   * xtb version 6.7.1 (edcfbbe) compiled by 'albert@albert-system' on 2024-07-22

   ID    Z sym.   atoms
    1    6 C      1-22, 24-26, 28-32, 34, 35, 37-41, 43-45, 47-72
    2    7 N      23, 27, 33, 36, 42, 46
    3    1 H      73-112

          program call               : xtb data2507/gas/DDPhCz-DPPZ/DDPhCz-DPPZ_gas_S0_crest.xyz --gfn 2 --ohess vtight --parallel 40 --molden --ceasefiles --namespace data2507/gas/DDPhCz-DPPZ/DDPhCz-DPPZ_gas_S0_finalOpt
          :  Hamiltonian                  GFN2-xTB          :
 * total energy  :  -179.3843418 Eh     change       -0.6130364E-08 Eh
 * total energy  :  -179.3843442 Eh     change       -0.2375496E-05 Eh
 * total energy  :  -179.3843479 Eh     change       -0.3677071E-05 Eh
 * total energy  :  -179.3843493 Eh     change       -0.1437328E-05 Eh
 * total energy  :  -179.3843525 Eh     change       -0.3207259E-05 Eh
 * total energy  :  -179.3843561 Eh     change       -0.3596949E-05 Eh
 * total energy  :  -179.3843582 Eh     change       -0.2136324E-05 Eh
 * total energy  :  -179.3843599 Eh     change       -0.1613122E-05 Eh
 * total energy  :  -179.3843622 Eh     change       -0.2309112E-05 Eh
 * total energy  :  -179.3843657 Eh     change       -0.3562064E-05 Eh
 * total energy  :  -179.3843742 Eh     change       -0.1456679E-05 Eh
 * total energy  :  -179.3843757 Eh     change       -0.1474390E-05 Eh
 * total energy  :  -179.3843768 Eh     change       -0.1130044E-05 Eh
 * total energy  :  -179.3843776 Eh     change       -0.7923152E-06 Eh
 * total energy  :  -179.3843783 Eh     change       -0.6555166E-06 Eh
 * total energy  :  -179.3843790 Eh     change       -0.7210642E-06 Eh
 * total energy  :  -179.3843799 Eh     change       -0.8700245E-06 Eh
 * total energy  :  -179.3843807 Eh     change       -0.8694846E-06 Eh
 * total energy  :  -179.3843807 Eh     change       -0.7975984E-08 Eh
   *** GEOMETRY OPTIMIZATION CONVERGED AFTER 22 ITERATIONS ***

 final structure:
================
112
 xtb: 6.7.1 (edcfbbe)
C            6.55728928466609        3.76560929806735       -2.46507081326987
C            5.46397195146743        4.01173129343434       -3.27870604114364
C            4.31946264303123        3.24539184810371       -3.15762269393282
C            4.25135210278922        2.21512586532093       -2.22294636711334
C            3.03080619427357        1.41413538866013       -2.05097302591915
C            1.78056980687911        2.04421221884782       -2.06382568375178
C            0.61754934608155        1.35594306795904       -1.78577544575068
C            0.72131397518465        0.00784679562653       -1.48348229587078
C            1.95415081697239       -0.66947118647343       -1.57969815627411
C            3.11263504981545        0.04183729888411       -1.84414322872634
C            1.67453529747920       -2.05311746566979       -1.30521197210438
C            2.47456657708622       -3.17868094493342       -1.21408827117714
C            1.90050411453155       -4.39111967945284       -0.84966223927589
C            2.74813060736712       -5.58128292900010       -0.67746719031886
C            3.78102665802050       -5.85726081169550       -1.57029716821931
C            4.59842613112955       -6.95614560746526       -1.38367649167052
C            4.40275877357621       -7.79452386624034       -0.29882865308664
C            3.37975859876363       -7.52960134371400        0.59611820616265
C            2.55770130577378       -6.43453814672613        0.40768041195410
C            0.52342948946863       -4.46137669782787       -0.60495617702331
C           -0.29405606193294       -3.35259928925346       -0.69820725217268
C            0.29007424200421       -2.14338649203369       -1.03848380254452
N           -0.27794256892963       -0.88316106421280       -1.12918551383881
C           -1.49561902851876       -0.48831966123298       -0.56080975486034
C           -2.68332733677696       -0.97833589010635       -1.03394152997801
C           -3.90655700568405       -0.51976884001372       -0.50523515384070
N           -5.06032930817023       -1.00293624768667       -0.98286954419664
C           -6.18462270793342       -0.52125764669384       -0.48513348860611
C           -7.44428231700209       -1.02346461117409       -0.98367428354806
C           -7.49579669127475       -2.00553031816317       -1.97850708015936
C           -8.72404083076454       -2.44782868285206       -2.41694385860274
C           -9.86833876476443       -1.89088832646657       -1.84325126414138
N           -9.84064929678846       -0.96931304364295       -0.91001955081831
C           -8.66140437109603       -0.52916958283591       -0.47388563772873
C           -8.65252713725696        0.49340317111354        0.56058675519811
N           -9.82416250336598        0.93510834317217        1.01525124009673
C           -9.83590534918452        1.85687120573994        1.94863683296394
C           -8.68197119516634        2.41226419458144        2.50423219215118
C           -7.46137321725834        1.96841338368861        2.04642382318709
C           -7.42686181252869        0.98632196698009        1.05089553578328
C           -6.17583611932944        0.48334827064335        0.53175041971681
N           -5.04320115059340        0.96487029228931        1.01035200518616
C           -3.89764815615961        0.48226219346663        0.51261133798917
C           -2.66540668779312        0.94278371874516        1.01830541731776
C           -1.48557669308754        0.45521061607959        0.52296798901256
N           -0.25860512999464        0.85627679742869        1.06660859948268
C            0.74846726142110       -0.02392375239039        1.42418378785690
C            0.65793318735655       -1.37058006835402        1.73766135517017
C            1.82300462580976       -2.03803505429667        2.05342285116078
C            3.06556683132950       -1.39117973035922        2.07848348550630
C            4.28438666747758       -2.16461955911774        2.35915006453782
C            5.30901358786641       -1.64037748209261        3.14424570571916
C            6.45362994651873       -2.37570244215056        3.39081189191273
C            6.59831540785220       -3.64467968491082        2.85482731593555
C            5.58678302003438       -4.17641639268036        2.07245310122537
C            4.44012955487806       -3.44433395880505        1.82982374248029
C            3.13329507128206       -0.02373494251793        1.83696079433495
C            1.97438955183224        0.66618498264198        1.52090604041934
C            1.68751361656287        2.04192716849941        1.21497182872687
C            2.48223094515208        3.16756913905814        1.08143368243710
C            1.89575113420504        4.37193789819879        0.71271063489000
C            2.72724517013205        5.56795452945063        0.51062909793106
C            2.31026671129320        6.82049867237640        0.95447754973987
C            3.09699728017312        7.93808864150302        0.74615996404111
C            4.30894185191454        7.82446842360035        0.08547618679055
C            4.73209150316643        6.58381509241628       -0.36118648753177
C            3.95067357825677        5.46413975659402       -0.14773836166729
C            0.51281015400413        4.43431620410873        0.50105361042741
C           -0.29654839803493        3.32164403109129        0.61592180964285
C            0.29984045922907        2.12021119984108        0.96196182306029
C            5.35950548425337        1.97330768445179       -1.41285080406901
C            6.50129050792039        2.74365683441603       -1.53174076342084
H            7.44973774641816        4.36704457191272       -2.55751167302238
H            5.50282533870794        4.80580371327465       -4.01019982595602
H            3.47486306154867        3.43535406399220       -3.80366493775305
H            1.72948871347343        3.10579202010338       -2.25306479728242
H           -0.33923997350565        1.85685507201565       -1.78938357565701
H            4.06466393996726       -0.46454180109065       -1.89323955760489
H            3.53788515732567       -3.10353126649669       -1.38443596490561
H            3.93067406669393       -5.21376386351072       -2.42510037197705
H            5.39256529469752       -7.16010505250031       -2.08736458654465
H            5.04517306808431       -8.65010128151990       -0.15089637841490
H            3.22504275970175       -8.17660838628232        1.44751593072250
H            1.77408898301846       -6.22326914498755        1.12134248326077
H            0.08778518472043       -5.41534107294854       -0.34669904832058
H           -1.35209600770090       -3.42675410848831       -0.49463068205378
H           -2.70473668428331       -1.69221253577686       -1.84268312312450
H           -6.56912663949739       -2.39027322940675       -2.37640236896742
H           -8.80628054494559       -3.20368150564563       -3.18253623449026
H          -10.85546509410370       -2.20713744093532       -2.15512004899537
H          -10.81756679689100        2.17434361571940        2.27611974487409
H           -8.75116730474135        3.16817282935668        3.27105542555057
H           -6.52798619296521        2.35204029440187        2.42941289330227
H           -2.67275820214439        1.65769619513221        1.82636624577679
H           -0.29317793704759       -1.88253865786534        1.73702000394454
H            1.77496661206011       -3.08749089670405        2.30112780409581
H            5.19771752972805       -0.65873014865141        3.58185510146514
H            7.23692209720800       -1.95787522408710        4.00698427344412
H            7.49454643797695       -4.21593516555756        3.04730234803861
H            5.68795276168217       -5.16420663540262        1.64562152227716
H            3.66435204674558       -3.86076969868963        1.20650826717458
H            4.07940893505711        0.49463076255318        1.87278014103503
H            3.54467254935809        3.10951111360671        1.26187243946639
H            1.37270147728311        6.91392515763588        1.48357587593705
H            2.76408084449318        8.90279609392407        1.10135927733804
H            4.92004795024294        8.69956746891955       -0.08012132323447
H            5.67344601837180        6.48487311783983       -0.88197860506139
H            4.27903043523182        4.50313649001463       -0.51386366481934
H            0.07275141659359        5.37539216419578        0.20567681159049
H           -1.35650438563969        3.38501310392599        0.41805838194472
H            5.31146071455410        1.18824513530339       -0.67166658295799
H            7.34945169413737        2.54994050447018       -0.89081966599223

          :  Hamiltonian                  GFN2-xTB          :
         :: gradient norm              0.000063934720 Eh/a0 ::
         :: HOMO-LUMO gap              1.311918066308 eV    ::
         :: SCC energy              -182.735527278605 Eh    ::
         :: -> dispersion             -0.190379122418 Eh    ::
         :: repulsion energy           3.351146533501 Eh    ::

    * Orbital Energies and Occupations

         #    Occupation            Energy/Eh            Energy/eV
      -------------------------------------------------------------
         1        2.0000           -0.6923211             -18.8390
       ...           ...                  ...                  ...
       155        2.0000           -0.4012503             -10.9186
       156        2.0000           -0.4009874             -10.9114
       157        2.0000           -0.4008211             -10.9069
       158        2.0000           -0.4000109             -10.8849
       159        2.0000           -0.3944209             -10.7327
       160        2.0000           -0.3913712             -10.6498
       161        2.0000           -0.3825251             -10.4090
       162        2.0000           -0.3754320             -10.2160
       163        2.0000           -0.3700429             -10.0694
       164        2.0000           -0.3689767             -10.0404
       165        2.0000           -0.3655092              -9.9460
       166        2.0000           -0.3635545              -9.8928
       167        2.0000           -0.3628911              -9.8748 (HOMO)
       168                         -0.3146789              -8.5629 (LUMO)
       169                         -0.2837817              -7.7221
       170                         -0.2758763              -7.5070
       171                         -0.2521354              -6.8610
       172                         -0.2495487              -6.7906
       173                         -0.2479308              -6.7465
       174                         -0.2430025              -6.6124
       175                         -0.2425031              -6.5988
       176                         -0.2414240              -6.5695
       177                         -0.2341893              -6.3726
       178                         -0.2301540              -6.2628
       ...                                ...                  ...
       328                          0.7471835              20.3319
      -------------------------------------------------------------
                  HL-Gap            0.0482121 Eh            1.3119 eV

     #   Z          covCN         q      C6AA      α(0)
     1   6 C        2.920    -0.031    28.768     8.796
     2   6 C        2.918    -0.028    28.706     8.786
     3   6 C        2.924    -0.033    28.824     8.804
     4   6 C        2.978     0.012    27.751     8.641
     5   6 C        2.978     0.002    27.984     8.677
     6   6 C        2.930    -0.035    28.876     8.813
     7   6 C        2.909    -0.047    29.171     8.856
     8   6 C        3.086     0.048    26.830     8.491
     9   6 C        3.060    -0.015    28.336     8.729
    10   6 C        2.919    -0.036    28.903     8.816
    11   6 C        3.069    -0.015    28.305     8.724
    12   6 C        2.919    -0.035    28.881     8.813
    13   6 C        2.977     0.001    28.007     8.681
    14   6 C        2.978     0.011    27.760     8.642
    15   6 C        2.925    -0.034    28.843     8.807
    16   6 C        2.919    -0.029    28.730     8.790
    17   6 C        2.920    -0.032    28.786     8.798
    18   6 C        2.918    -0.029    28.735     8.790
    19   6 C        2.925    -0.033    28.831     8.805
    20   6 C        2.929    -0.037    28.917     8.819
    21   6 C        2.908    -0.050    29.231     8.865
    22   6 C        3.075     0.049    26.823     8.492
    23   7 N        2.798    -0.050    22.206     6.999
    24   6 C        2.911     0.059    26.675     8.469
    25   6 C        2.919    -0.056    29.398     8.891
    26   6 C        2.967     0.080    26.212     8.398
    27   7 N        1.849    -0.235    27.001     7.701
    28   6 C        2.960     0.082    26.176     8.392
    29   6 C        2.983    -0.012    28.299     8.726
    30   6 C        2.928    -0.010    28.272     8.720
    31   6 C        2.912    -0.038    28.935     8.821
    32   6 C        2.907     0.064    26.573     8.453
    33   7 N        1.841    -0.199    26.148     7.578
    34   6 C        2.971     0.085    26.104     8.381
    35   6 C        2.971     0.085    26.104     8.381
    36   7 N        1.841    -0.199    26.148     7.578
    37   6 C        2.907     0.064    26.573     8.453
    38   6 C        2.912    -0.038    28.935     8.821
    39   6 C        2.928    -0.010    28.272     8.720
    40   6 C        2.983    -0.012    28.298     8.726
    41   6 C        2.960     0.082    26.175     8.392
    42   7 N        1.849    -0.235    27.000     7.701
    43   6 C        2.967     0.080    26.212     8.398
    44   6 C        2.919    -0.056    29.394     8.891
    45   6 C        2.910     0.059    26.676     8.469
    46   7 N        2.798    -0.050    22.205     6.999
    47   6 C        3.084     0.047    26.843     8.493
    48   6 C        2.909    -0.047    29.175     8.857
    49   6 C        2.930    -0.036    28.890     8.815
    50   6 C        2.977     0.002    27.982     8.677
    51   6 C        2.977     0.011    27.775     8.645
    52   6 C        2.925    -0.035    28.865     8.811
    53   6 C        2.918    -0.030    28.756     8.794
    54   6 C        2.920    -0.032    28.787     8.798
    55   6 C        2.918    -0.029    28.725     8.789
    56   6 C        2.926    -0.036    28.888     8.814
    57   6 C        2.919    -0.036    28.904     8.816
    58   6 C        3.061    -0.016    28.338     8.730
    59   6 C        3.067    -0.015    28.307     8.724
    60   6 C        2.919    -0.035    28.880     8.813
    61   6 C        2.977     0.001    27.990     8.678
    62   6 C        2.978     0.010    27.779     8.645
    63   6 C        2.924    -0.035    28.868     8.811
    64   6 C        2.919    -0.030    28.758     8.794
    65   6 C        2.920    -0.032    28.790     8.799
    66   6 C        2.919    -0.029    28.730     8.790
    67   6 C        2.926    -0.035    28.870     8.812
    68   6 C        2.930    -0.037    28.909     8.818
    69   6 C        2.908    -0.050    29.237     8.866
    70   6 C        3.075     0.048    26.838     8.494
    71   6 C        2.926    -0.033    28.834     8.806
    72   6 C        2.918    -0.029    28.735     8.790
    73   1 H        0.926     0.028     2.619     2.531
    74   1 H        0.926     0.029     2.605     2.524
    75   1 H        0.926     0.029     2.595     2.519
    76   1 H        0.926     0.034     2.536     2.490
    77   1 H        0.926     0.023     2.690     2.565
    78   1 H        0.926     0.035     2.511     2.478
    79   1 H        0.926     0.036     2.496     2.471
    80   1 H        0.926     0.030     2.582     2.513
    81   1 H        0.926     0.029     2.605     2.524
    82   1 H        0.926     0.028     2.612     2.527
    83   1 H        0.926     0.029     2.607     2.525
    84   1 H        0.926     0.028     2.613     2.528
    85   1 H        0.926     0.035     2.523     2.484
    86   1 H        0.926     0.028     2.612     2.527
    87   1 H        0.926     0.066     2.131     2.283
    88   1 H        0.926     0.061     2.189     2.314
    89   1 H        0.926     0.043     2.412     2.429
    90   1 H        0.925     0.048     2.344     2.394
    91   1 H        0.925     0.048     2.344     2.394
    92   1 H        0.926     0.043     2.412     2.429
    93   1 H        0.926     0.061     2.188     2.313
    94   1 H        0.926     0.066     2.130     2.282
    95   1 H        0.926     0.022     2.700     2.570
    96   1 H        0.926     0.033     2.547     2.496
    97   1 H        0.926     0.030     2.587     2.515
    98   1 H        0.926     0.029     2.607     2.525
    99   1 H        0.926     0.028     2.611     2.527
   100   1 H        0.926     0.027     2.624     2.533
   101   1 H        0.926     0.033     2.548     2.496
   102   1 H        0.926     0.035     2.522     2.483
   103   1 H        0.926     0.035     2.511     2.478
   104   1 H        0.926     0.030     2.589     2.516
   105   1 H        0.926     0.029     2.607     2.525
   106   1 H        0.926     0.028     2.608     2.526
   107   1 H        0.926     0.028     2.611     2.527
   108   1 H        0.926     0.032     2.562     2.503
   109   1 H        0.926     0.035     2.522     2.483
   110   1 H        0.926     0.028     2.616     2.529
   111   1 H        0.926     0.029     2.594     2.518
   112   1 H        0.926     0.028     2.609     2.526

molecular dipole:
                 x           y           z       tot (Debye)
 q only:        0.171       0.004      -0.053
   full:        0.661      -0.017      -0.073       1.690

 projected vibrational frequencies (cm⁻¹)
eigval :       -0.00    -0.00     0.00     0.00     0.00     0.00
eigval :       12.47    12.97    14.42    18.98    25.00    30.72
eigval :       35.09    40.50    41.79    44.50    49.27    50.13
eigval :       54.49    57.06    67.13    68.67    80.44    81.59
eigval :       82.35    85.78    91.28    96.05   104.41   114.91
eigval :      126.06   129.40   136.57   140.33   141.27   152.40
eigval :      168.65   183.16   186.58   196.09   214.36   221.80
eigval :      226.37   242.58   253.59   255.81   260.14   265.95
eigval :      278.68   280.34   294.93   305.07   310.82   323.62
eigval :      326.70   336.06   339.69   362.09   372.06   372.50
eigval :      373.67   374.87   379.78   392.59   397.03   397.36
eigval :      399.39   403.22   403.58   413.21   433.17   436.64
eigval :      438.20   443.71   445.39   448.52   456.14   475.07
eigval :      476.85   478.23   492.46   500.52   502.32   523.02
eigval :      526.66   533.46   549.07   557.22   562.85   571.33
eigval :      571.85   578.26   585.78   587.08   587.65   591.33
eigval :      592.25   594.63   598.95   600.84   604.97   613.12
eigval :      623.02   624.91   629.22   641.19   648.58   665.70
eigval :      669.09   670.25   672.48   673.61   684.48   685.28
eigval :      692.84   701.12   705.05   706.48   707.44   709.77
eigval :      730.12   737.31   743.75   744.23   747.93   758.67
eigval :      759.09   759.50   760.53   774.75   787.29   795.11
eigval :      811.26   823.86   824.92   829.03   830.03   843.56
eigval :      846.25   853.41   864.45   871.85   873.09   873.85
eigval :      875.22   878.45   879.32   881.44   881.86   882.56
eigval :      885.16   901.73   903.34   903.67   904.23   905.26
eigval :      906.57   912.46   912.75   916.17   916.87   916.98
eigval :      917.54   928.35   928.52   930.74   930.87   931.35
eigval :      931.37   932.64   933.07   934.64   937.42   949.77
eigval :      960.68   972.29   972.88   981.75   982.32  1027.73
eigval :     1028.21  1048.45  1068.84  1069.15  1071.63  1072.14
eigval :     1072.78  1085.28  1086.05  1086.81  1087.13  1091.23
eigval :     1094.02  1102.95  1119.54  1121.29  1122.17  1122.68
eigval :     1123.06  1136.19  1138.10  1156.24  1157.72  1172.82
eigval :     1181.34  1181.80  1182.25  1182.69  1183.24  1184.86
eigval :     1190.51  1201.13  1201.41  1202.51  1202.99  1218.73
eigval :     1218.84  1220.37  1220.86  1221.53  1234.55  1239.44
eigval :     1247.57  1272.33  1272.44  1280.10  1281.39  1281.97
eigval :     1282.09  1282.47  1282.91  1285.37  1295.06  1298.37
eigval :     1305.57  1306.44  1308.72  1317.54  1318.47  1319.29
eigval :     1319.64  1320.09  1324.29  1345.54  1345.62  1350.24
eigval :     1350.93  1358.41  1359.50  1375.90  1388.89  1401.19
eigval :     1409.31  1409.79  1426.17  1426.40  1430.52  1431.06
eigval :     1433.47  1433.57  1436.88  1444.57  1446.85  1460.10
eigval :     1460.68  1466.10  1467.87  1469.89  1470.09  1493.83
eigval :     1494.29  1496.90  1497.25  1497.78  1523.28  1542.58
eigval :     1551.18  1563.60  1565.06  1566.05  1576.99  1577.37
eigval :     1577.69  1582.43  1582.57  1585.04  1585.29  1589.28
eigval :     1594.71  1595.50  1598.38  1598.58  1603.74  1604.24
eigval :     1615.51  1616.50  3055.57  3055.89  3069.09  3069.35
eigval :     3069.57  3069.78  3071.68  3072.19  3072.70  3074.32
eigval :     3076.44  3077.15  3077.77  3078.74  3079.41  3079.58
eigval :     3080.58  3081.22  3083.88  3084.57  3088.45  3088.82
eigval :     3089.03  3089.09  3089.25  3090.00  3090.26  3090.48
eigval :     3091.42  3091.60  3092.78  3093.83  3095.50  3095.72
eigval :     3099.90  3100.10  3102.09  3102.89  3103.23  3110.73

   temp. (K)  partition function   enthalpy   heat capacity  entropy
                                   cal/mol     cal/K/mol   cal/K/mol   J/K/mol
 298.15  VIB  0.719E+25            32554.772    207.412    202.269
         ROT  0.250E+09              888.752      2.981     41.405
         INT  0.180E+34            33443.525    210.393    243.675
         TR   0.269E+29             1481.254      4.968     46.302
         TOT                       34924.7785   215.3609   289.9773  1213.2650

       T/K    H(0)-H(T)+PV         H(T)/Eh          T*S/Eh         G(T)/Eh
   ------------------------------------------------------------------------
    298.15    0.556562E-01    0.903166E+00    0.137778E+00    0.765388E+00
   ------------------------------------------------------------------------

         :::::::::::::::::::::::::::::::::::::::::::::::::::::
         ::                  THERMODYNAMIC                  ::
         :::::::::::::::::::::::::::::::::::::::::::::::::::::
         :: total free energy        -178.618992775956 Eh   ::
         ::.................................................::
         :: total energy             -179.384380745103 Eh   ::
         :: zero point energy           0.847509365972 Eh   ::
         :: G(RRHO) w/o ZPVE           -0.082121396824 Eh   ::
         :: G(RRHO) contrib.            0.765387969147 Eh   ::
         :::::::::::::::::::::::::::::::::::::::::::::::::::::

           -------------------------------------------------
          | TOTAL ENERGY             -179.384380745103 Eh   |
          | TOTAL ENTHALPY           -178.481215201980 Eh   |
          | TOTAL FREE ENERGY        -178.618992775956 Eh   |
          | GRADIENT NORM               0.000063931532 Eh/α |
          | HOMO-LUMO GAP               1.311918650143 eV   |
           -------------------------------------------------

 * finished run on 2025/08/22 at 13:17:22.509
