   * xtb version 6.7.1 (edcfbbe) compiled by 'albert@albert-system' on 2024-07-22

   ID    Z sym.   atoms
    1    6 C      1-22, 24-26, 28-32, 34, 35, 37-41, 43-45, 47-72
    2    7 N      23, 27, 33, 36, 42, 46
    3    1 H      73-112

          program call               : xtb data2507/gas/DDPhCz-DPPZ/DDPhCz-DPPZ_gas_T1_crest.xyz --gfn 2 --spinpol --tblite --uhf 2 --ohess vtight --parallel 40 --molden --ceasefiles --namespace data2507/gas/DDPhCz-DPPZ/DDPhCz-DPPZ_gas_T1_finalOpt
 * total energy  :  -179.3413790 Eh     change       -0.1044157E-07 Eh
 * total energy  :  -179.3414147 Eh     change       -0.3569054E-04 Eh
 * total energy  :  -179.3414264 Eh     change       -0.1161375E-04 Eh
 * total energy  :  -179.3414291 Eh     change       -0.2717516E-05 Eh
 * total energy  :  -179.3414309 Eh     change       -0.1832671E-05 Eh
 * total energy  :  -179.3414325 Eh     change       -0.1598159E-05 Eh
 * total energy  :  -179.3414346 Eh     change       -0.2133628E-05 Eh
 * total energy  :  -179.3414364 Eh     change       -0.1798006E-05 Eh
 * total energy  :  -179.3414376 Eh     change       -0.1159030E-05 Eh
 * total energy  :  -179.3414383 Eh     change       -0.7284718E-06 Eh
 * total energy  :  -179.3414409 Eh     change       -0.6390948E-06 Eh
 * total energy  :  -179.3414413 Eh     change       -0.3884687E-06 Eh
 * total energy  :  -179.3414416 Eh     change       -0.3363770E-06 Eh
 * total energy  :  -179.3414415 Eh     change        0.1627187E-06 Eh
 * total energy  :  -179.3414417 Eh     change       -0.1872587E-06 Eh
 * total energy  :  -179.3414421 Eh     change       -0.4026061E-06 Eh
 * total energy  :  -179.3414423 Eh     change       -0.2458778E-06 Eh
 * total energy  :  -179.3414425 Eh     change       -0.2077700E-06 Eh
 * total energy  :  -179.3414426 Eh     change       -0.4409225E-07 Eh
   *** GEOMETRY OPTIMIZATION CONVERGED AFTER 22 ITERATIONS ***

 final structure:
================
112
 xtb: 6.7.1 (edcfbbe)
C            6.51472150834390        3.88657214627133       -2.48375015758786
C            5.40844881197027        4.13180419802517       -3.28003096612600
C            4.27364646066154        3.35217263066169       -3.15434803720729
C            4.22762186898973        2.30916501634110       -2.23212035256549
C            3.01788615037637        1.49301017670910       -2.05877219293272
C            1.75981246232935        2.10839326554541       -2.05991053490152
C            0.60600148054597        1.40304875627681       -1.78852505524243
C            0.72505809657093        0.05074608376672       -1.50787003340941
C            1.96813770943469       -0.60944440532822       -1.60786046548452
C            3.11707962026198        0.11938311944147       -1.86467700364689
C            1.70609411130755       -1.99817897950908       -1.34213159266433
C            2.51635756288543       -3.11673980483349       -1.26172353283613
C            1.95349850007821       -4.33842675100310       -0.90820098917664
C            2.81107853553920       -5.52302726906165       -0.75195012711719
C            3.84862844968537       -5.77639336553594       -1.64657643060141
C            4.67480382694695       -6.87113081029583       -1.47546639002038
C            4.48410500085076       -7.72813768626472       -0.40430279765522
C            3.45680727930675       -7.48607653082307        0.49232657476098
C            2.62558105966637       -6.39555911678000        0.31906672230671
C            0.57679583932685       -4.42413694988154       -0.66215058753138
C           -0.25060231802123       -3.32265395375692       -0.74291407939602
C            0.32212227084132       -2.10377071825463       -1.07234265309596
N           -0.26077541579192       -0.85411017230200       -1.16159841545998
C           -1.47960411577093       -0.47330629100543       -0.57176866756500
C           -2.68465510484244       -0.93746256166396       -1.07947626174162
C           -3.90025900834042       -0.52503371063051       -0.54242063706314
N           -5.07038485092943       -0.94844634385582       -1.01778047369507
C           -6.22553771180059       -0.52525012786989       -0.51698241382494
C           -7.46919714954053       -0.97938631884737       -1.04337264524390
C           -7.51490652278291       -1.88674813907331       -2.11575757359181
C           -8.73254033632329       -2.29850491124756       -2.59435687446599
C           -9.89160262508176       -1.79351101569472       -1.98896732464710
N           -9.87421917220361       -0.94907489875127       -0.99121710848321
C           -8.70309588344375       -0.53291845029052       -0.50824344344246
C           -8.69766365277263        0.39973943050196        0.59119008747236
N           -9.86393334545518        0.81307416209426        1.08813926686359
C           -9.87144096480004        1.65827855167516        2.08535448476488
C           -8.70645900087850        2.16684149242408        2.67620447485851
C           -7.49363512026943        1.75789233246511        2.18318027894550
C           -7.45855594972547        0.84990777288834        1.11092612610898
C           -6.22019690424219        0.40019939250767        0.56841931910372
N           -5.06025091333495        0.82997112343684        1.05219828138815
C           -3.89487228641451        0.41639033318510        0.55683577138607
C           -2.67386142509583        0.84257385317322        1.07023379136194
C           -1.47351999403831        0.39546071867400        0.53643228102786
N           -0.24889431646967        0.80275782105308        1.09626136713229
C            0.76196610310897       -0.07201958224059        1.44447114222535
C            0.68336432217134       -1.42551208438578        1.73495181719132
C            1.85366536776830       -2.08820160453398        2.03972224911928
C            3.09106725955244       -1.43136667044679        2.07518796850601
C            4.31521138863577       -2.19683281682297        2.35095359620901
C            5.32857906563721       -1.67450830554740        3.15225151968314
C            6.47721117206795       -2.40334323239796        3.39869042705196
C            6.63782879538673       -3.66315390913152        2.84558547541202
C            5.63837725785862       -4.19215034001027        2.04582533296599
C            4.48720857999121       -3.46711774761176        1.80388296200505
C            3.14896182558518       -0.05984389252144        1.84943268647808
C            1.98519955609640        0.62527842978879        1.54374920015586
C            1.68823638507008        2.00112388148594        1.24759270031482
C            2.47052409162292        3.13581384757949        1.12501994285632
C            1.87042679664034        4.33851934480629        0.76890684132903
C            2.68827498641054        5.54575005303120        0.58426949800068
C            2.25351451730833        6.78822358156949        1.04043878420786
C            3.02829528363110        7.91730500443399        0.85122072653143
C            4.24563999826563        7.82616127623441        0.19674369192655
C            4.68621462955164        6.59617578473300       -0.26270900190376
C            3.91730783333100        5.46469605494641       -0.06750132049734
C            0.48619853516725        4.38879133300846        0.55743209671773
C           -0.31070212457028        3.26686029541607        0.65922713232283
C            0.29892255887379        2.06709955661667        0.99300708994063
C            5.34871457547177        2.06888340663909       -1.43918482741952
C            6.48099335793552        2.85239283964907       -1.56285759976033
H            7.39993212013886        4.49796739230633       -2.58030389129380
H            5.42998192879202        4.93515114589219       -4.00203441240897
H            3.41945369311983        3.54095997978052       -3.78792657132747
H            1.69609914607103        3.17178047550697       -2.23476923786850
H           -0.35706045172535        1.89128176204008       -1.78237015272660
H            4.07564237972525       -0.37415844247273       -1.91856466892815
H            3.57880844903618       -3.03097491616961       -1.43283139503688
H            3.99454187831438       -5.11878712623063       -2.49118466043555
H            5.47188619206003       -7.05744104230220       -2.18070456532523
H            5.13341822018359       -8.58049940660152       -0.26846371700134
H            3.30585960673942       -8.14763236344871        1.33313408002868
H            1.83876660500422       -6.20248055678419        1.03432565806128
H            0.15085055981023       -5.38511124398940       -0.41386928503065
H           -1.30818532778423       -3.40646757045560       -0.54088040485467
H           -2.69132578866465       -1.60477234247189       -1.92672636243090
H           -6.58186764303328       -2.23564646423983       -2.53420628164345
H           -8.80571961518113       -2.99398907238412       -3.41583157517348
H          -10.87222654591441       -2.09269779042215       -2.33508373082616
H          -10.84858290337174        1.95529494378559        2.44300987790291
H           -8.77149824953709        2.86289196193211        3.49789040090067
H           -6.55651823911988        2.10965338073597        2.58995317494543
H           -2.67148772563653        1.51017021539000        1.91728770281350
H           -0.26411951160356       -1.94348825585988        1.72597792892151
H            1.81512355530486       -3.14174985093868        2.27117614092264
H            5.20413201136835       -0.70043767122531        3.60303356542187
H            7.25107493347788       -1.98793237085617        4.02821817461353
H            7.53720303743897       -4.22937091326160        3.03816453119898
H            5.75261971924501       -5.17234159970933        1.60512447420596
H            3.72086580217501       -3.88052890811261        1.16711925390529
H            4.09232810018122        0.46343757050358        1.88811979725249
H            3.53334315706791        3.08867853902137        1.30665384877243
H            1.31201600156575        6.86401078869706        1.56526113758670
H            2.68201135782250        8.87341680818151        1.21662769241416
H            4.84743236640200        8.71033150580182        0.04610307825515
H            5.63163631693676        6.51495873080545       -0.77911544666025
H            4.25931808765837        4.51245501753313       -0.44367941517258
H            0.03690381009881        5.32862465947484        0.27226662244888
H           -1.37159866148430        3.31873643602883        0.46353371226377
H            5.31833987120603        1.27475124903512       -0.70677834922868
H            7.33924397219239        2.65936189061578       -0.93529574749013

 projected vibrational frequencies (cm⁻¹)
eigval :       -0.00    -0.00    -0.00    -0.00     0.00     0.00
eigval :       12.02    14.22    14.34    18.72    25.13    31.10
eigval :       35.58    40.53    41.62    45.34    49.04    50.91
eigval :       53.43    56.09    65.87    67.88    80.60    81.44
eigval :       82.92    87.24    91.06    98.54   103.78   113.08
eigval :      125.12   130.21   136.08   141.29   142.45   151.29
eigval :      167.97   182.17   186.16   193.10   215.03   216.46
eigval :      228.77   229.31   250.68   254.61   258.26   263.94
eigval :      276.60   278.98   292.60   297.10   307.67   321.16
eigval :      323.44   333.03   337.39   347.13   371.82   372.29
eigval :      373.25   374.24   391.71   391.92   395.41   396.29
eigval :      397.55   401.85   402.91   418.47   425.39   433.35
eigval :      437.46   441.94   446.84   448.02   459.88   475.12
eigval :      476.45   477.39   493.21   499.73   501.53   521.29
eigval :      522.25   528.59   545.45   557.05   560.63   565.21
eigval :      566.00   572.43   578.34   584.16   586.97   587.51
eigval :      590.10   592.43   596.03   596.64   602.34   610.44
eigval :      622.10   624.20   627.30   630.89   640.18   648.34
eigval :      661.29   668.91   669.57   672.22   673.27   679.16
eigval :      684.01   685.90   695.65   696.84   698.07   706.34
eigval :      707.28   725.70   728.87   739.55   740.85   745.82
eigval :      757.96   758.80   758.94   760.12   783.49   788.04
eigval :      795.75   813.17   821.25   825.63   825.94   828.97
eigval :      829.91   840.27   842.60   863.86   870.84   872.00
eigval :      873.21   873.66   877.25   880.37   880.87   881.18
eigval :      883.30   901.71   903.19   903.46   904.04   904.18
eigval :      905.31   906.79   906.97   912.21   912.47   915.20
eigval :      916.14   918.49   918.81   920.50   930.66   930.80
eigval :      931.17   931.23   932.49   932.83   934.39   936.97
eigval :      956.56   971.70   972.32   981.33   981.68  1026.77
eigval :     1027.44  1032.76  1057.17  1067.61  1070.65  1070.93
eigval :     1071.31  1084.63  1084.68  1085.78  1086.46  1086.87
eigval :     1090.83  1096.25  1121.20  1121.90  1122.44  1122.59
eigval :     1124.78  1128.89  1136.66  1152.88  1154.95  1172.69
eigval :     1180.80  1181.25  1181.72  1182.30  1182.58  1185.49
eigval :     1193.43  1200.63  1200.82  1201.52  1202.48  1212.91
eigval :     1217.71  1218.26  1220.76  1221.86  1236.41  1237.85
eigval :     1241.56  1241.64  1266.08  1278.19  1278.62  1281.16
eigval :     1281.52  1282.21  1282.46  1282.65  1283.28  1292.22
eigval :     1296.06  1301.45  1304.74  1306.11  1315.98  1316.54
eigval :     1318.67  1319.43  1320.64  1322.68  1335.22  1339.61
eigval :     1349.39  1352.46  1353.68  1356.04  1363.08  1382.16
eigval :     1389.51  1407.34  1409.77  1410.15  1415.91  1430.02
eigval :     1430.16  1431.24  1431.80  1432.83  1435.31  1445.75
eigval :     1455.81  1456.52  1458.55  1467.65  1468.18  1481.00
eigval :     1491.69  1492.09  1493.08  1495.33  1495.89  1506.30
eigval :     1507.46  1534.12  1559.33  1561.21  1562.58  1572.68
eigval :     1574.34  1575.26  1580.69  1581.23  1582.77  1583.16
eigval :     1585.38  1588.04  1590.70  1596.38  1601.54  1602.01
eigval :     1607.02  1612.95  3057.58  3057.83  3069.45  3069.52
eigval :     3069.97  3070.06  3071.91  3072.69  3072.89  3074.87
eigval :     3076.59  3077.25  3077.51  3077.99  3079.42  3079.70
eigval :     3080.40  3080.79  3081.09  3081.72  3084.07  3084.76
eigval :     3088.09  3088.44  3089.17  3089.76  3090.27  3090.33
eigval :     3091.24  3091.44  3091.97  3093.03  3094.90  3095.11
eigval :     3095.16  3095.81  3102.41  3103.56  3104.02  3111.19

   temp. (K)  partition function   enthalpy   heat capacity  entropy
                                   cal/mol     cal/K/mol   cal/K/mol   J/K/mol
 298.15  VIB  0.839E+25            32740.366    208.700    203.260
         ROT  0.251E+09              888.752      2.981     41.413
         INT  0.210E+34            33629.119    211.681    244.674
         TR   0.269E+29             1481.254      4.968     46.302
         TOT                       35110.3727   216.6490   290.9760  1217.4436

       T/K    H(0)-H(T)+PV         H(T)/Eh          T*S/Eh         G(T)/Eh
   ------------------------------------------------------------------------
    298.15    0.559519E-01    0.900464E+00    0.138252E+00    0.762212E+00
   ------------------------------------------------------------------------

         :::::::::::::::::::::::::::::::::::::::::::::::::::::
         ::                  THERMODYNAMIC                  ::
         :::::::::::::::::::::::::::::::::::::::::::::::::::::
         :: total free energy        -178.579230905366 Eh   ::
         ::.................................................::
         :: total energy             -179.341442495565 Eh   ::
         :: zero point energy           0.844511742416 Eh   ::
         :: G(RRHO) w/o ZPVE           -0.082300152217 Eh   ::
         :: G(RRHO) contrib.            0.762211590199 Eh   ::
         :::::::::::::::::::::::::::::::::::::::::::::::::::::

           -------------------------------------------------
          | TOTAL ENERGY             -179.341442495565 Eh   |
          | TOTAL ENTHALPY           -178.440978812723 Eh   |
          | TOTAL FREE ENERGY        -178.579230905366 Eh   |
          | GRADIENT NORM               0.000077702719 Eh/α |
           -------------------------------------------------

 * finished run on 2025/08/22 at 13:29:21.444
