   * xtb version 6.7.1 (edcfbbe) compiled by 'albert@albert-system' on 2024-07-22

   ID    Z sym.   atoms
    1    6 C      1-22, 24-26, 28-32, 34, 35, 37-41, 43-45, 47-72
    2    7 N      23, 27, 33, 36, 42, 46
    3    1 H      73-112

          program call               : xtb data2507/gas/DDPhCz-DPPZ/DDPhCz-DPPZ_gas_S0_finalOpt.xtbopt.xyz --gfn 2 --spinpol --tblite --uhf 2 --ohess vtight --parallel 40 --molden --ceasefiles --namespace data2507/gas/DDPhCz-DPPZ/DDPhCz-DPPZ_gas_T1_preOpt
 * total energy  :  -179.3372083 Eh     change       -0.2841441E-07 Eh
 * total energy  :  -179.3401564 Eh     change       -0.2948138E-02 Eh
 * total energy  :  -179.3411979 Eh     change       -0.1041466E-02 Eh
 * total energy  :  -179.3413182 Eh     change       -0.1202979E-03 Eh
 * total energy  :  -179.3413753 Eh     change       -0.5704986E-04 Eh
 * total energy  :  -179.3413831 Eh     change       -0.7852758E-05 Eh
 * total energy  :  -179.3413894 Eh     change       -0.6250687E-05 Eh
 * total energy  :  -179.3413943 Eh     change       -0.4936108E-05 Eh
 * total energy  :  -179.3413990 Eh     change       -0.4709855E-05 Eh
 * total energy  :  -179.3414023 Eh     change       -0.3254753E-05 Eh
 * total energy  :  -179.3414328 Eh     change       -0.7036700E-06 Eh
 * total energy  :  -179.3414340 Eh     change       -0.1198173E-05 Eh
 * total energy  :  -179.3414346 Eh     change       -0.6466179E-06 Eh
 * total energy  :  -179.3414353 Eh     change       -0.6734749E-06 Eh
 * total energy  :  -179.3414360 Eh     change       -0.7271907E-06 Eh
 * total energy  :  -179.3414368 Eh     change       -0.7396488E-06 Eh
 * total energy  :  -179.3414375 Eh     change       -0.6893400E-06 Eh
 * total energy  :  -179.3414382 Eh     change       -0.7660607E-06 Eh
 * total energy  :  -179.3414382 Eh     change       -0.3300784E-08 Eh
   *** GEOMETRY OPTIMIZATION CONVERGED AFTER 44 ITERATIONS ***

 final structure:
================
112
 xtb: 6.7.1 (edcfbbe)
C            6.55444559714902        3.78986277917914       -2.53461556799180
C            5.45401370359138        4.02988488369719       -3.34051559287517
C            4.31214480810200        3.26205438674583       -3.20639228192736
C            4.25302544587305        2.23621385634396       -2.26585313126584
C            3.03549745449774        1.43385970481619       -2.08280600067992
C            1.78294315826705        2.06011245279177       -2.10029611460559
C            0.62205496880006        1.37050624680633       -1.81871516220185
C            0.72815113233658        0.02311318785221       -1.51056560940646
C            1.96539858775051       -0.65003578555908       -1.59501041649560
C            3.12161189942815        0.06329593484578       -1.86251270962871
C            1.69018082979443       -2.03103466507182       -1.30351384534374
C            2.49005979613909       -3.15531245657458       -1.20181652011329
C            1.91560517787186       -4.36526203680212       -0.82722532043516
C            2.76151520995130       -5.55539811563716       -0.65087343384700
C            3.79626944343054       -5.83388248431651       -1.54125745008405
C            4.61088228951797       -6.93439085788263       -1.35268409405646
C            4.41122696260452       -7.77219321417806       -0.26804541611586
C            3.38674111981071       -7.50495035563847        0.62463728084653
C            2.56706668275500       -6.40859267066031        0.43401467010736
C            0.53808504284828       -4.43353334187859       -0.58042894204467
C           -0.27902419171479       -3.32610147046186       -0.68206307378342
C            0.30491766817585       -2.11889106310180       -1.03398624554797
N           -0.26648386618377       -0.86580082777510       -1.14810709188247
C           -1.48297863081126       -0.46302399728153       -0.56877151900539
C           -2.69031578392462       -0.93738861810117       -1.06149390943904
C           -3.90374327822988       -0.50675448820749       -0.53395496022536
N           -5.07573440243079       -0.94676290370945       -0.98915686957155
C           -6.22894543266817       -0.50647570525427       -0.49870615341757
C           -7.47454100746210       -0.98607653649209       -0.99716420190937
C           -7.52443364408567       -1.94262407272880       -2.02574315501243
C           -8.74386024813704       -2.38043946915658       -2.47581766974326
C           -9.90054286182110       -1.85128220705593       -1.88674164910573
N           -9.87926463840185       -0.96050508864233       -0.93022876352589
C           -8.70634645041749       -0.51856864664272       -0.47536480614907
C           -8.69672079964946        0.46456470985687        0.57911834406258
N           -9.86114734442767        0.90201427485702        1.05943490562478
C           -9.86501973038741        1.79278764484265        2.01617604667374
C           -8.69783062305208        2.32647044801991        2.57987369711246
C           -7.48681405346248        1.89328329206960        2.10336073043531
C           -7.45564988057082        0.93682346201209        1.07398216265243
C           -6.21932414323409        0.46183531180905        0.54862985093155
N           -5.05741419069716        0.90655749108082        1.01383434193914
C           -3.89389768864631        0.47073691186453        0.53334389522653
C           -2.67082742132523        0.90599190182243        1.03413417625257
C           -1.47268225257204        0.43562180294853        0.51554407220743
N           -0.24610396737105        0.84457764483742        1.06962189173722
C            0.75362143703807       -0.03364272168803        1.44086148659172
C            0.65874816403641       -1.37997828128502        1.75845479027604
C            1.82038754153034       -2.04927502716059        2.08116330030571
C            3.06495458354238       -1.40568150933486        2.10800443785291
C            4.27925499851142       -2.17987275611712        2.40231378569216
C            5.29705245023657       -1.65405335996334        3.19564200872112
C            6.43601296865440       -2.39188148819655        3.45967152914607
C            6.58239385161704       -3.66444761020317        2.93242839285558
C            5.57850392513713       -4.19702144762857        2.14063643365346
C            4.43701945930370       -3.46284998878291        1.88109582175539
C            3.13886443732553       -0.03955107372230        1.85574270965872
C            1.98389106764968        0.65215742732910        1.53181139343908
C            1.70301359028662        2.02491187493777        1.20694369196354
C            2.49810986736306        3.14856573322191        1.06658514137874
C            1.91298866147636        4.35045278879227        0.68376419692256
C            2.74477620336224        5.54516588913092        0.48088463351953
C            2.32008009247719        6.80098264257219        0.90919222015311
C            3.10806868615160        7.91791943133557        0.70317472192931
C            4.32896816795245        7.80104860162549        0.05950523827975
C            4.75970586832808        6.55759818440852       -0.37217492869777
C            3.97746220284239        5.43834725136074       -0.16020318920908
C            0.53055790908750        4.41115687966965        0.46337963662516
C           -0.27899238092076        3.30006647802801        0.58293952137185
C            0.31569858322979        2.10064239880865        0.94382422361077
C            5.36839691469346        2.00086211098468       -1.46341143496430
C            6.50777964011426        2.77260988273108       -1.59560550605574
H            7.44511456509753        4.39220290601144       -2.63767902091668
H            5.48562939836916        4.82002343662455       -4.07658349726730
H            3.46256437726179        3.44653916639001       -3.84739591948138
H            1.72924245339965        3.12040011821883       -2.29606840342894
H           -0.33657996646960        1.86736581879341       -1.82537866847328
H            4.07579238658579       -0.43983464588076       -1.90413016392951
H            3.55341986461094       -3.08245832375083       -1.37324905228429
H            3.94891164139538       -5.19148380974877       -2.39631647340911
H            5.40583920564182       -7.14034070106984       -2.05485229861343
H            5.05138555205950       -8.62921124257967       -0.11873405942610
H            3.22885323854273       -8.15144764330431        1.47582315528668
H            1.78240830464039       -6.19589772089456        1.14606701970502
H            0.10299339032719       -5.38577695598339       -0.31498661518975
H           -1.33735580626848       -3.39670200433212       -0.47905436363720
H           -2.70051617902194       -1.62938139562756       -1.88866832230397
H           -6.59309744232318       -2.30818453220658       -2.43361657984619
H           -8.82019210957653       -3.11441535370682       -3.26279234974464
H          -10.88246701939312       -2.17006311528546       -2.21101580248676
H          -10.84087072138593        2.10773303350272        2.36182329406655
H           -8.75982456509056        3.06022303466557        3.36831559140766
H           -6.54822859367839        2.26245692907190        2.49085110535075
H           -2.66530589545044        1.59841654067903        1.86100797574542
H           -0.29440095104160       -1.88754080333996        1.75614503078524
H            1.76914277539758       -3.09744808585201        2.33358945968386
H            5.18360870938976       -0.66967094943608        3.62647868685526
H            7.21345574025334       -1.97344710170211        4.08275145605214
H            7.47418732336934       -4.23774565740611        3.13881473228366
H            5.68172818489123       -5.18717679965209        1.71992812346435
H            3.66728865626117       -3.87939362856998        1.25046107467288
H            4.08780536582117        0.47399997594296        1.88789393856981
H            3.55932695422824        3.09359398439690        1.25522875734172
H            1.37584460286681        6.89709615407694        1.42569446436736
H            2.76935617708703        8.88469188405604        1.04699421131434
H            4.94113464164592        8.67570548113464       -0.10431663504708
H            5.70787078568053        6.45622784144721       -0.87991340403620
H            4.31202546206992        4.47530630065787       -0.51493334921679
H            0.09294689229188        5.34986817004173        0.15713482979325
H           -1.33818219463622        3.35954216623724        0.38033409284916
H            5.32793059342995        1.22029334661033       -0.71704582014887
H            7.36140234650254        2.58381994897413       -0.96047863122966

 projected vibrational frequencies (cm⁻¹)
eigval :       -0.00    -0.00    -0.00     0.00     0.00     0.00
eigval :       11.90    14.15    14.22    19.10    24.98    31.02
eigval :       35.50    40.64    41.50    45.25    49.13    51.13
eigval :       53.58    56.16    66.02    68.00    80.55    81.46
eigval :       82.91    87.39    91.11    98.61   103.92   112.96
eigval :      125.56   130.25   136.13   141.07   142.70   151.33
eigval :      167.99   182.29   186.25   192.71   215.22   216.94
eigval :      228.56   229.00   250.97   254.57   258.39   263.82
eigval :      276.80   279.13   292.54   297.19   307.84   321.31
eigval :      323.44   333.21   337.27   346.93   371.78   372.20
eigval :      373.22   374.21   391.84   392.02   395.49   396.32
eigval :      397.52   402.00   402.88   418.22   425.52   433.40
eigval :      437.48   441.94   446.54   448.17   459.91   475.28
eigval :      476.89   477.62   493.10   499.84   501.53   521.28
eigval :      522.36   528.78   545.71   557.01   560.74   565.40
eigval :      565.62   572.33   578.37   584.11   586.92   587.48
eigval :      590.08   592.43   595.70   596.22   602.68   610.32
eigval :      622.06   624.23   627.38   630.82   640.23   649.10
eigval :      661.23   668.91   669.55   672.18   673.29   678.93
eigval :      684.09   685.77   694.49   696.84   698.09   706.29
eigval :      707.50   725.11   728.75   739.82   740.98   745.85
eigval :      757.92   758.79   758.97   760.12   782.99   788.02
eigval :      795.67   813.35   821.45   825.66   825.96   829.06
eigval :      830.04   839.61   842.78   863.88   870.87   872.04
eigval :      873.23   873.64   877.29   880.42   880.84   881.14
eigval :      883.23   901.62   903.18   903.48   904.08   904.23
eigval :      905.33   906.76   906.92   912.27   912.48   915.45
eigval :      916.16   918.43   918.76   921.13   930.61   930.73
eigval :      931.12   931.16   932.39   932.79   934.37   936.97
eigval :      956.58   971.81   972.45   981.60   981.91  1027.09
eigval :     1027.74  1033.18  1055.06  1067.78  1070.86  1071.15
eigval :     1071.69  1084.73  1085.10  1086.25  1086.91  1087.25
eigval :     1091.35  1096.38  1120.74  1121.82  1122.21  1122.82
eigval :     1124.53  1128.54  1136.81  1152.97  1155.01  1172.75
eigval :     1179.07  1181.21  1181.51  1182.32  1182.53  1185.51
eigval :     1193.79  1200.55  1200.76  1201.32  1202.38  1212.43
eigval :     1217.59  1218.22  1220.72  1221.58  1234.52  1237.89
eigval :     1241.53  1241.70  1267.69  1277.52  1277.95  1280.52
eigval :     1281.49  1282.12  1282.29  1282.66  1283.32  1292.75
eigval :     1296.27  1301.39  1304.68  1306.64  1315.86  1316.53
eigval :     1318.68  1319.46  1320.74  1322.62  1336.26  1339.97
eigval :     1349.04  1352.22  1353.60  1355.93  1363.25  1382.11
eigval :     1389.47  1406.35  1409.62  1409.94  1415.39  1429.64
eigval :     1430.16  1431.15  1431.85  1432.66  1435.46  1444.73
eigval :     1455.64  1456.50  1458.70  1467.41  1468.09  1480.60
eigval :     1491.47  1491.96  1494.63  1495.60  1496.24  1506.24
eigval :     1508.41  1534.12  1559.11  1561.16  1562.55  1572.48
eigval :     1574.37  1575.24  1580.52  1581.11  1582.66  1583.12
eigval :     1585.32  1588.00  1591.94  1596.07  1601.37  1601.83
eigval :     1606.83  1612.61  3057.90  3058.16  3069.51  3069.63
eigval :     3070.04  3070.07  3071.94  3072.83  3072.91  3075.05
eigval :     3076.90  3077.05  3077.55  3078.07  3079.59  3079.73
eigval :     3080.35  3081.00  3081.09  3081.96  3084.10  3084.82
eigval :     3087.89  3088.30  3089.28  3089.91  3090.26  3090.47
eigval :     3091.50  3091.64  3092.26  3093.20  3094.82  3094.85
eigval :     3095.27  3095.79  3102.81  3103.20  3103.83  3110.93

   temp. (K)  partition function   enthalpy   heat capacity  entropy
                                   cal/mol     cal/K/mol   cal/K/mol   J/K/mol
 298.15  VIB  0.836E+25            32737.994    208.708    203.245
         ROT  0.251E+09              888.752      2.981     41.414
         INT  0.210E+34            33626.746    211.689    244.659
         TR   0.269E+29             1481.254      4.968     46.302
         TOT                       35107.9999   216.6571   290.9611  1217.3813

       T/K    H(0)-H(T)+PV         H(T)/Eh          T*S/Eh         G(T)/Eh
   ------------------------------------------------------------------------
    298.15    0.559482E-01    0.900461E+00    0.138245E+00    0.762216E+00
   ------------------------------------------------------------------------

         :::::::::::::::::::::::::::::::::::::::::::::::::::::
         ::                  THERMODYNAMIC                  ::
         :::::::::::::::::::::::::::::::::::::::::::::::::::::
         :: total free energy        -178.579221981112 Eh   ::
         ::.................................................::
         :: total energy             -179.341438239563 Eh   ::
         :: zero point energy           0.844513117202 Eh   ::
         :: G(RRHO) w/o ZPVE           -0.082296858752 Eh   ::
         :: G(RRHO) contrib.            0.762216258451 Eh   ::
         :::::::::::::::::::::::::::::::::::::::::::::::::::::

           -------------------------------------------------
          | TOTAL ENERGY             -179.341438239563 Eh   |
          | TOTAL ENTHALPY           -178.440976963315 Eh   |
          | TOTAL FREE ENERGY        -178.579221981112 Eh   |
          | GRADIENT NORM               0.000040084297 Eh/α |
           -------------------------------------------------

 * finished run on 2025/08/22 at 13:17:46.697
