   * xtb version 6.7.1 (edcfbbe) compiled by 'albert@albert-system' on 2024-07-22

   ID    Z sym.   atoms
    1    7 N      1, 7, 16
    2    6 C      2-6, 8-12, 14, 15, 17-32
    3   35 Br     13
    4    1 H      33-48

          program call               : xtb data2507/toluene/PICNAnCz/PICNAnCz_toluene_T1_crest.xyz --gfn 2 --uhf 2 --gbsa toluene --ohess vtight --parallel 40 --molden --ceasefiles --namespace data2507/toluene/PICNAnCz/PICNAnCz_toluene_T1_finalOpt
      * Solvation model:               GBSA
        Solvent                        toluene
        Solvent mass                       9.2140E+01 g/mol
          :  Hamiltonian                  GFN2-xTB          :
 * total energy  :   -80.9276126 Eh     change       -0.3209934E-08 Eh
 * total energy  :   -80.9276421 Eh     change       -0.2947485E-04 Eh
 * total energy  :   -80.9276386 Eh     change        0.3446835E-05 Eh
 * total energy  :   -80.9276503 Eh     change       -0.1168880E-04 Eh
 * total energy  :   -80.9276523 Eh     change       -0.1969748E-05 Eh
 * total energy  :   -80.9276542 Eh     change       -0.1967953E-05 Eh
 * total energy  :   -80.9276565 Eh     change       -0.2229642E-05 Eh
 * total energy  :   -80.9276585 Eh     change       -0.2039736E-05 Eh
 * total energy  :   -80.9276595 Eh     change       -0.9387585E-06 Eh
 * total energy  :   -80.9276597 Eh     change       -0.2801150E-06 Eh
 * total energy  :   -80.9276599 Eh     change       -0.1724159E-06 Eh
 * total energy  :   -80.9276600 Eh     change       -0.1386327E-06 Eh
 * total energy  :   -80.9276601 Eh     change       -0.1009289E-06 Eh
 * total energy  :   -80.9276601 Eh     change        0.2666795E-08 Eh
 * total energy  :   -80.9276602 Eh     change       -0.6044844E-07 Eh
   *** GEOMETRY OPTIMIZATION CONVERGED AFTER 15 ITERATIONS ***

 final structure:
================
48
 xtb: 6.7.1 (edcfbbe)
N            1.55731180603783       -6.70595630309341       -0.06828504580103
C            1.15438183083309       -5.62698622397969       -0.04423721760666
C            0.66105832920249       -4.31394410473920       -0.01811117551670
C            1.02449117647139       -3.44061878104723        1.02002859485811
C            0.54794175303637       -2.15277732418341        1.03773246679027
C           -0.31833985398110       -1.70473667090562        0.02775154009582
N           -0.78551481796292       -0.39269603636962        0.04626605164354
C            0.02919334801347        0.76355866982464        0.15159945543075
C            1.42921870549516        0.84694827743370        0.07384152136183
C            2.02878803678961        2.08576974890845        0.45021004187528
C            3.38194534608388        2.26692740604887        0.40382441632168
C            4.20034437333926        1.22355305652023       -0.04122801845262
Br           6.08696692509073        1.46483849547563       -0.09700936223932
C            3.64714567208970        0.01491444714899       -0.46556282890543
C            2.29142629056612       -0.17530278359293       -0.41223158433258
N           -0.73463741717505        1.87499388454150        0.23022860681123
C           -1.98895058066673        1.49019829979905        0.09642228250965
C           -3.14631922379910        2.31614855601980        0.01536844860264
C           -3.02960730318263        3.70950869811423        0.00296910268072
C           -4.15018002573418        4.50118925889812       -0.13979570914878
C           -5.39139402165383        3.89672712481870       -0.28336098159068
C           -5.51732797804753        2.51768064509730       -0.26166747622042
C           -4.40693850439946        1.68477773240158       -0.09725577415221
C           -4.50871460866072        0.23248454956145       -0.01358233582558
C           -5.74569959291887       -0.40418908149904        0.04066100984791
C           -5.86627953124068       -1.77691715035457        0.17039208981113
C           -4.72442788454013       -2.56892859061321        0.28091178093133
C           -3.48496867588388       -1.98860646728470        0.22603390731058
C           -3.33034594792414       -0.58952025501921        0.05615605284670
C           -2.08644432256673        0.05486029333737        0.00781984996962
C           -0.68357842766776       -2.57813927351305       -1.00860666378650
C           -0.19779079677078       -3.86228933865492       -1.03497158679500
H            1.67759039282329       -3.79248170491824        1.80470097250475
H            0.82500366975510       -1.47770819055073        1.83344502828696
H            1.37775487170839        2.87378204789343        0.79160496816789
H            3.82389762333251        3.20289213775721        0.70907755061853
H            4.28903929931958       -0.76519927320828       -0.84623079894105
H            1.88266449525819       -1.09395577533197       -0.79659242928479
H           -2.04307895230948        4.13592760310369        0.09718887674701
H           -4.06218107203433        5.57669179098103       -0.14899798431420
H           -6.27413322930462        4.50558506861282       -0.41188632697393
H           -6.50260952188975        2.09817930486467       -0.38277984761097
H           -6.65135264546628        0.17817075323123       -0.00238979335084
H           -6.84512264555123       -2.23001757111267        0.20461515993006
H           -4.81467540806336       -3.63623290688746        0.41614453965812
H           -2.60824188588476       -2.60325843291878        0.33995049510393
H           -1.33434386232687       -2.22389925521153       -1.79440032182891
H           -0.46319335913929       -4.53097286530414       -1.84028815923791

          :  Hamiltonian                  GFN2-xTB          :
         :: gradient norm              0.000055691280 Eh/a0 ::
         :: HOMO-LUMO gap              0.557412587869 eV    ::
         :: SCC energy               -82.375546892603 Eh    ::
         :: -> dispersion             -0.068995012274 Eh    ::
         :: -> Gsolv                  -0.039978279341 Eh    ::
         :: repulsion energy           1.447886692500 Eh    ::

    * Orbital Energies and Occupations

         #    Occupation            Energy/Eh            Energy/eV
      -------------------------------------------------------------
         1        2.0000           -0.8455823             -23.0095
       ...           ...                  ...                  ...
        64        2.0000           -0.4348334             -11.8324
        65        2.0000           -0.4320235             -11.7560
        66        2.0000           -0.4292934             -11.6817
        67        2.0000           -0.4266208             -11.6089
        68        2.0000           -0.4232954             -11.5185
        69        2.0000           -0.4226237             -11.5002
        70        2.0000           -0.4186569             -11.3922
        71        2.0000           -0.4106548             -11.1745
        72        2.0000           -0.4084090             -11.1134
        73        2.0000           -0.3992491             -10.8641
        74        2.0000           -0.3975669             -10.8183
        75        1.0000           -0.3770869             -10.2611
        76        1.0000           -0.2957591              -8.0480 (HOMO)
        77        0.0000           -0.2752746              -7.4906 (LUMO)
        78                         -0.2674407              -7.2774
        79                         -0.2618250              -7.1246
        80                         -0.2473707              -6.7313
        81                         -0.2408393              -6.5536
        82                         -0.2283726              -6.2143
        83                         -0.2085759              -5.6756
        84                         -0.2081557              -5.6642
        85                         -0.2072809              -5.6404
        86                         -0.1987037              -5.4070
        87                         -0.1749130              -4.7596
       ...                                ...                  ...
       149                          1.1575926              31.4997
      -------------------------------------------------------------
                  HL-Gap            0.0204846 Eh            0.5574 eV

     #   Z          covCN         q      C6AA      α(0)
     1   7 N        0.911    -0.299    27.698     7.612
     2   6 C        1.911     0.111    28.368     8.602
     3   6 C        2.970     0.001    28.002     8.680
     4   6 C        2.923    -0.022    28.556     8.763
     5   6 C        2.917    -0.041    29.018     8.834
     6   6 C        2.908     0.055    26.760     8.482
     7   7 N        2.806    -0.052    22.234     7.003
     8   6 C        3.139     0.126    25.028     8.187
     9   6 C        2.967    -0.005    28.148     8.702
    10   6 C        2.930    -0.029    28.729     8.790
    11   6 C        2.975    -0.032    28.801     8.803
    12   6 C        2.915     0.077    26.279     8.406
    13  35 Br       1.054    -0.163   189.556    22.199
    14   6 C        2.978    -0.032    28.796     8.802
    15   6 C        2.917    -0.038    28.947     8.823
    16   7 N        1.877    -0.296    28.512     7.915
    17   6 C        3.162     0.090    25.695     8.285
    18   6 C        2.983    -0.001    28.055     8.688
    19   6 C        2.922    -0.021    28.524     8.758
    20   6 C        2.915    -0.027    28.670     8.780
    21   6 C        2.917    -0.020    28.517     8.757
    22   6 C        2.921    -0.030    28.742     8.792
    23   6 C        2.977     0.006    27.877     8.661
    24   6 C        2.976     0.004    27.921     8.668
    25   6 C        2.919    -0.029    28.719     8.788
    26   6 C        2.916    -0.025    28.623     8.773
    27   6 C        2.913    -0.027    28.680     8.782
    28   6 C        2.917    -0.033    28.825     8.804
    29   6 C        2.972    -0.005    28.141     8.701
    30   6 C        3.029     0.039    27.108     8.540
    31   6 C        2.917    -0.041    29.026     8.835
    32   6 C        2.923    -0.024    28.596     8.769
    33   1 H        0.926     0.042     2.428     2.437
    34   1 H        0.926     0.040     2.442     2.444
    35   1 H        0.926     0.068     2.103     2.268
    36   1 H        0.926     0.060     2.201     2.320
    37   1 H        0.926     0.054     2.273     2.358
    38   1 H        0.926     0.044     2.398     2.422
    39   1 H        0.926     0.058     2.219     2.330
    40   1 H        0.926     0.049     2.334     2.389
    41   1 H        0.926     0.050     2.316     2.380
    42   1 H        0.926     0.051     2.303     2.373
    43   1 H        0.926     0.051     2.304     2.374
    44   1 H        0.926     0.046     2.365     2.405
    45   1 H        0.926     0.042     2.425     2.435
    46   1 H        0.926     0.040     2.447     2.446
    47   1 H        0.926     0.045     2.385     2.415
    48   1 H        0.926     0.042     2.418     2.432

molecular dipole:
                 x           y           z       tot (Debye)
 q only:       -3.230       2.276      -0.012
   full:       -3.776       2.187      -0.035      11.092

 projected vibrational frequencies (cm⁻¹)
eigval :       -0.00    -0.00    -0.00    -0.00     0.00     0.00
eigval :       16.63    21.66    27.04    44.15    48.61    59.52
eigval :       70.79    85.09   113.13   119.88   121.17   145.70
eigval :      157.50   176.86   183.56   201.08   229.42   247.17
eigval :      261.63   265.06   284.25   313.63   353.10   367.53
eigval :      375.50   385.69   392.41   396.43   408.16   418.34
eigval :      425.01   437.09   468.46   480.96   509.98   518.20
eigval :      528.60   535.26   571.09   579.33   584.83   593.48
eigval :      613.13   636.21   643.93   653.42   662.67   663.88
eigval :      666.21   675.73   721.30   727.86   748.77   768.22
eigval :      773.80   785.93   795.23   811.42   821.11   845.80
eigval :      857.06   860.37   896.35   898.91   906.68   908.02
eigval :      910.23   910.93   914.73   919.68   923.69   930.98
eigval :      956.14   981.74   997.74  1041.26  1061.60  1077.72
eigval :     1085.50  1100.46  1126.91  1131.00  1132.04  1147.04
eigval :     1168.76  1173.68  1176.87  1181.30  1193.94  1205.82
eigval :     1233.59  1240.41  1245.68  1253.55  1257.45  1278.98
eigval :     1304.23  1315.19  1319.61  1328.11  1333.96  1350.27
eigval :     1376.65  1382.13  1394.76  1407.71  1415.16  1421.41
eigval :     1424.59  1438.90  1460.06  1462.71  1472.70  1480.26
eigval :     1501.86  1531.69  1539.96  1549.98  1553.03  1566.21
eigval :     1585.06  2309.68  3082.04  3083.48  3084.34  3086.20
eigval :     3091.71  3093.29  3094.05  3095.48  3096.32  3097.24
eigval :     3105.63  3107.31  3116.27  3118.88  3129.57  3131.20

   temp. (K)  partition function   enthalpy   heat capacity  entropy
                                   cal/mol     cal/K/mol   cal/K/mol   J/K/mol
 298.15  VIB  0.456E+11            14473.927     91.840     88.988
         ROT  0.376E+08              888.752      2.981     37.644
         INT  0.171E+19            15362.679     94.820    126.633
         TR   0.100E+29             1481.254      4.968     44.338
         TOT                       16843.9330    99.7886   170.9709   715.3421

       T/K    H(0)-H(T)+PV         H(T)/Eh          T*S/Eh         G(T)/Eh
   ------------------------------------------------------------------------
    298.15    0.268425E-01    0.372357E+00    0.812338E-01    0.291123E+00
   ------------------------------------------------------------------------

         :::::::::::::::::::::::::::::::::::::::::::::::::::::
         ::                  THERMODYNAMIC                  ::
         :::::::::::::::::::::::::::::::::::::::::::::::::::::
         :: total free energy         -80.636536972492 Eh   ::
         ::.................................................::
         :: total energy              -80.927660198897 Eh   ::
         :: zero point energy           0.345514482164 Eh   ::
         :: G(RRHO) w/o ZPVE           -0.054391255759 Eh   ::
         :: G(RRHO) contrib.            0.291123226405 Eh   ::
         :::::::::::::::::::::::::::::::::::::::::::::::::::::

           -------------------------------------------------
          | TOTAL ENERGY              -80.927660198897 Eh   |
          | TOTAL ENTHALPY            -80.555303200952 Eh   |
          | TOTAL FREE ENERGY         -80.636536972492 Eh   |
          | GRADIENT NORM               0.000055682869 Eh/α |
          | HOMO-LUMO GAP               0.557413090961 eV   |
           -------------------------------------------------

 * finished run on 2025/07/18 at 16:17:53.777
