   * xtb version 6.7.1 (edcfbbe) compiled by 'albert@albert-system' on 2024-07-22

   ID    Z sym.   atoms
    1    7 N      1, 7, 16
    2    6 C      2-6, 8-12, 14, 15, 17-32
    3   35 Br     13
    4    1 H      33-48

          program call               : xtb data2507/toluene/PICNAnCz/PICNAnCz_toluene_S0_finalOpt.xtbopt.xyz --gfn 2 --uhf 2 --gbsa toluene --ohess vtight --parallel 40 --molden --ceasefiles --namespace data2507/toluene/PICNAnCz/PICNAnCz_toluene_T1_preOpt
      * Solvation model:               GBSA
        Solvent                        toluene
        Solvent mass                       9.2140E+01 g/mol
          :  Hamiltonian                  GFN2-xTB          :
 * total energy  :   -80.9167044 Eh     change       -0.4973629E-08 Eh
 * total energy  :   -80.9227373 Eh     change       -0.6032846E-02 Eh
 * total energy  :   -80.9251534 Eh     change       -0.2416114E-02 Eh
 * total energy  :   -80.9256698 Eh     change       -0.5164054E-03 Eh
 * total energy  :   -80.9260860 Eh     change       -0.4162610E-03 Eh
 * total energy  :   -80.9266150 Eh     change       -0.5289493E-03 Eh
 * total energy  :   -80.9269341 Eh     change       -0.3191247E-03 Eh
 * total energy  :   -80.9271252 Eh     change       -0.1911200E-03 Eh
 * total energy  :   -80.9272784 Eh     change       -0.1531700E-03 Eh
 * total energy  :   -80.9273975 Eh     change       -0.1190457E-03 Eh
 * total energy  :   -80.9276640 Eh     change       -0.6527812E-06 Eh
 * total energy  :   -80.9276647 Eh     change       -0.6764226E-06 Eh
 * total energy  :   -80.9276650 Eh     change       -0.3504751E-06 Eh
 * total energy  :   -80.9276652 Eh     change       -0.1507544E-06 Eh
 * total energy  :   -80.9276653 Eh     change       -0.1627863E-06 Eh
 * total energy  :   -80.9276656 Eh     change       -0.2124070E-06 Eh
 * total energy  :   -80.9276657 Eh     change       -0.1912959E-06 Eh
 * total energy  :   -80.9276659 Eh     change       -0.1051952E-06 Eh
 * total energy  :   -80.9276659 Eh     change       -0.6019826E-07 Eh
   *** GEOMETRY OPTIMIZATION CONVERGED AFTER 37 ITERATIONS ***

 final structure:
================
48
 xtb: 6.7.1 (edcfbbe)
N            1.86776570411678       -6.58471857672513       -0.09265897034781
C            1.41702819554835       -5.52478388300772       -0.07108376704723
C            0.86569655504747       -4.23496807897239       -0.04634014521519
C            1.19392047622744       -3.34359396537586        0.98813465589117
C            0.65646253097983       -2.07995770738977        1.00747068429784
C           -0.23712968095513       -1.67559794833732        0.00295559070567
N           -0.77074450959383       -0.38910335370558        0.02576398360352
C           -0.01635822037983        0.80771307050335        0.12600897252476
C            1.37706533913723        0.96331387180235        0.04197617626877
C            1.91334313878137        2.23142389962313        0.41650003825884
C            3.25557359924517        2.48072458014977        0.36937476164301
C            4.12545887392703        1.47984973325285       -0.07577932301191
Br           5.99789395059167        1.81486753508705       -0.13023147566114
C            3.63359760823195        0.24505496010209       -0.50053065867157
C            2.28932436955295       -0.01361150515068       -0.44606804763214
N           -0.83620006568536        1.87788477924068        0.21235394387203
C           -2.07003356271400        1.42840528569665        0.09081713275279
C           -3.26973672638037        2.19310797877948        0.02727800205218
C           -3.22556967800807        3.59067192203303        0.01916678144656
C           -4.38796609075322        4.32362421202416       -0.10148306260281
C           -5.59832475175732        3.65586884454007       -0.22726318634611
C           -5.65203830649299        2.27205462764669       -0.21096594388102
C           -4.49731999329068        1.49731576084155       -0.06881704461496
C           -4.52212291843174        0.04147067059449        0.01071114469604
C           -5.72351477163903       -0.65894066760487        0.07839474765025
C           -5.77106270107720       -2.03634834838598        0.20578122484996
C           -4.58824781211006       -2.76806583624775        0.30002449575630
C           -3.38147453038224       -2.12383087192437        0.23138859424591
C           -3.30173593646642       -0.71824140191342        0.06325365621584
C           -2.09365988396684       -0.00996877012766        0.00133335558756
C           -0.56463990455665       -2.56598918013989       -1.03148263154262
C           -0.01848994910588       -3.82563773209614       -1.05937114515556
H            1.86775399082233       -3.66283998026479        1.76923338799591
H            0.90531790702636       -1.39167433085973        1.80117503069534
H            1.22335293261064        2.98557200917975        0.75795904684618
H            3.64951730481510        3.43798349489819        0.67424150795761
H            4.31388003689715       -0.50143201949070       -0.88197040553037
H            1.92712644235090       -0.95170158291604       -0.83016596371754
H           -2.26079080414520        4.06689528382439        0.09998093926216
H           -4.35647453810156        5.40231909195509       -0.10679171613452
H           -6.51361316572076        4.21841201469395       -0.33784097608227
H           -6.61616523785661        1.80246026852441       -0.31774436564610
H           -6.65866020543078       -0.12436416539852        0.04780139801869
H           -6.72464068360883       -2.53962943661861        0.25074136244898
H           -4.62095061404689       -3.83895985156082        0.43324828859954
H           -2.47259138635834       -2.69218804807813        0.33272984763453
H           -1.23557903017566       -2.24390216553219       -1.81411248845809
H           -0.25588083658272       -4.50708307621219       -1.86272710982489

          :  Hamiltonian                  GFN2-xTB          :
         :: gradient norm              0.000058820337 Eh/a0 ::
         :: HOMO-LUMO gap              0.555643486392 eV    ::
         :: SCC energy               -82.375513704517 Eh    ::
         :: -> dispersion             -0.068994930856 Eh    ::
         :: -> Gsolv                  -0.039976411604 Eh    ::
         :: repulsion energy           1.447847792513 Eh    ::

    * Orbital Energies and Occupations

         #    Occupation            Energy/Eh            Energy/eV
      -------------------------------------------------------------
         1        2.0000           -0.8455728             -23.0092
       ...           ...                  ...                  ...
        64        2.0000           -0.4348399             -11.8326
        65        2.0000           -0.4320186             -11.7558
        66        2.0000           -0.4292895             -11.6816
        67        2.0000           -0.4266145             -11.6088
        68        2.0000           -0.4232863             -11.5182
        69        2.0000           -0.4226345             -11.5005
        70        2.0000           -0.4186475             -11.3920
        71        2.0000           -0.4106697             -11.1749
        72        2.0000           -0.4084050             -11.1133
        73        2.0000           -0.3992459             -10.8640
        74        2.0000           -0.3975370             -10.8175
        75        1.0000           -0.3770875             -10.2611
        76        1.0000           -0.2957337              -8.0473 (HOMO)
        77        0.0000           -0.2753143              -7.4917 (LUMO)
        78                         -0.2674467              -7.2776
        79                         -0.2618320              -7.1248
        80                         -0.2473943              -6.7319
        81                         -0.2408197              -6.5530
        82                         -0.2283521              -6.2138
        83                         -0.2085964              -5.6762
        84                         -0.2081848              -5.6650
        85                         -0.2072605              -5.6398
        86                         -0.1986274              -5.4049
        87                         -0.1749456              -4.7605
       ...                                ...                  ...
       149                          1.1575628              31.4989
      -------------------------------------------------------------
                  HL-Gap            0.0204195 Eh            0.5556 eV

     #   Z          covCN         q      C6AA      α(0)
     1   7 N        0.911    -0.299    27.696     7.611
     2   6 C        1.911     0.111    28.367     8.602
     3   6 C        2.970     0.001    28.001     8.680
     4   6 C        2.923    -0.022    28.556     8.763
     5   6 C        2.917    -0.041    29.017     8.833
     6   6 C        2.908     0.055    26.759     8.482
     7   7 N        2.806    -0.052    22.236     7.004
     8   6 C        3.139     0.126    25.028     8.188
     9   6 C        2.967    -0.005    28.149     8.703
    10   6 C        2.930    -0.029    28.730     8.790
    11   6 C        2.975    -0.032    28.802     8.803
    12   6 C        2.915     0.077    26.279     8.406
    13  35 Br       1.054    -0.163   189.557    22.199
    14   6 C        2.978    -0.032    28.796     8.802
    15   6 C        2.917    -0.038    28.947     8.823
    16   7 N        1.877    -0.296    28.514     7.916
    17   6 C        3.162     0.090    25.694     8.285
    18   6 C        2.983    -0.001    28.056     8.689
    19   6 C        2.922    -0.021    28.524     8.758
    20   6 C        2.915    -0.027    28.670     8.780
    21   6 C        2.917    -0.020    28.518     8.757
    22   6 C        2.921    -0.030    28.742     8.792
    23   6 C        2.977     0.006    27.878     8.661
    24   6 C        2.976     0.004    27.922     8.668
    25   6 C        2.919    -0.029    28.719     8.788
    26   6 C        2.916    -0.025    28.623     8.773
    27   6 C        2.913    -0.027    28.680     8.782
    28   6 C        2.917    -0.033    28.826     8.804
    29   6 C        2.972    -0.005    28.141     8.702
    30   6 C        3.029     0.039    27.107     8.540
    31   6 C        2.917    -0.041    29.024     8.834
    32   6 C        2.923    -0.024    28.596     8.769
    33   1 H        0.926     0.042     2.427     2.436
    34   1 H        0.926     0.041     2.442     2.444
    35   1 H        0.926     0.068     2.103     2.268
    36   1 H        0.926     0.060     2.202     2.320
    37   1 H        0.926     0.054     2.273     2.358
    38   1 H        0.926     0.044     2.397     2.421
    39   1 H        0.926     0.058     2.219     2.330
    40   1 H        0.926     0.049     2.334     2.389
    41   1 H        0.926     0.050     2.316     2.380
    42   1 H        0.926     0.051     2.303     2.373
    43   1 H        0.926     0.051     2.304     2.374
    44   1 H        0.926     0.046     2.365     2.405
    45   1 H        0.926     0.042     2.425     2.435
    46   1 H        0.926     0.040     2.448     2.447
    47   1 H        0.926     0.045     2.384     2.415
    48   1 H        0.926     0.042     2.418     2.431

molecular dipole:
                 x           y           z       tot (Debye)
 q only:       -3.334       2.108       0.010
   full:       -3.871       1.994      -0.013      11.067

 projected vibrational frequencies (cm⁻¹)
eigval :       -0.00    -0.00     0.00     0.00     0.00     0.00
eigval :       15.63    21.63    26.15    44.52    48.89    56.81
eigval :       67.37    83.97   113.61   118.20   122.25   145.39
eigval :      157.29   176.29   183.08   200.84   229.45   247.55
eigval :      260.25   265.74   284.44   312.74   353.26   367.33
eigval :      375.95   386.62   391.24   396.56   408.02   418.28
eigval :      425.38   437.80   468.64   480.14   510.34   516.70
eigval :      529.35   534.64   571.16   579.67   584.66   593.40
eigval :      613.13   636.23   644.21   653.76   662.45   662.98
eigval :      666.20   675.98   721.50   726.94   748.92   768.42
eigval :      774.13   785.94   795.33   812.59   820.94   845.14
eigval :      858.17   861.14   895.16   898.79   906.89   908.20
eigval :      910.91   911.11   916.46   919.57   924.13   930.99
eigval :      955.98   981.79   997.76  1041.48  1061.01  1078.24
eigval :     1085.76  1101.56  1128.30  1130.11  1132.90  1149.14
eigval :     1169.62  1176.41  1178.56  1182.13  1193.79  1206.04
eigval :     1233.49  1241.26  1245.80  1252.77  1258.02  1279.19
eigval :     1304.22  1315.30  1319.55  1328.07  1334.36  1351.06
eigval :     1376.37  1382.66  1394.58  1407.82  1414.99  1421.25
eigval :     1424.81  1438.99  1459.86  1462.91  1472.94  1480.55
eigval :     1502.20  1531.62  1539.92  1550.05  1553.11  1566.25
eigval :     1585.04  2309.74  3081.35  3084.15  3084.83  3085.81
eigval :     3091.41  3093.68  3095.00  3095.30  3095.83  3096.89
eigval :     3106.39  3107.82  3116.10  3117.54  3129.52  3130.76

   temp. (K)  partition function   enthalpy   heat capacity  entropy
                                   cal/mol     cal/K/mol   cal/K/mol   J/K/mol
 298.15  VIB  0.546E+11            14486.593     91.754     89.187
         ROT  0.376E+08              888.752      2.981     37.645
         INT  0.205E+19            15375.345     94.735    126.832
         TR   0.100E+29             1481.254      4.968     44.338
         TOT                       16856.5992    99.7030   171.1704   716.1768

       T/K    H(0)-H(T)+PV         H(T)/Eh          T*S/Eh         G(T)/Eh
   ------------------------------------------------------------------------
    298.15    0.268627E-01    0.372391E+00    0.813286E-01    0.291062E+00
   ------------------------------------------------------------------------

         :::::::::::::::::::::::::::::::::::::::::::::::::::::
         ::                  THERMODYNAMIC                  ::
         :::::::::::::::::::::::::::::::::::::::::::::::::::::
         :: total free energy         -80.636603666867 Eh   ::
         ::.................................................::
         :: total energy              -80.927665911537 Eh   ::
         :: zero point energy           0.345528106962 Eh   ::
         :: G(RRHO) w/o ZPVE           -0.054465862292 Eh   ::
         :: G(RRHO) contrib.            0.291062244670 Eh   ::
         :::::::::::::::::::::::::::::::::::::::::::::::::::::

           -------------------------------------------------
          | TOTAL ENERGY              -80.927665911537 Eh   |
          | TOTAL ENTHALPY            -80.555275103860 Eh   |
          | TOTAL FREE ENERGY         -80.636603666867 Eh   |
          | GRADIENT NORM               0.000058689194 Eh/α |
          | HOMO-LUMO GAP               0.555642065909 eV   |
           -------------------------------------------------

 * finished run on 2025/07/18 at 16:16:30.378
