   * xtb version 6.7.1 (edcfbbe) compiled by 'albert@albert-system' on 2024-07-22

   ID    Z sym.   atoms
    1    7 N      1, 7, 16
    2    6 C      2-6, 8-12, 14, 15, 17-32
    3   35 Br     13
    4    1 H      33-48

          program call               : xtb data2507/toluene/PICNAnCz/PICNAnCz_toluene_S0_crest.xyz --gfn 2 --gbsa toluene --ohess vtight --parallel 40 --molden --ceasefiles --namespace data2507/toluene/PICNAnCz/PICNAnCz_toluene_S0_finalOpt
      * Solvation model:               GBSA
        Solvent                        toluene
        Solvent mass                       9.2140E+01 g/mol
          :  Hamiltonian                  GFN2-xTB          :
 * total energy  :   -81.0147998 Eh     change       -0.7886030E-09 Eh
 * total energy  :   -81.0148295 Eh     change       -0.2974188E-04 Eh
 * total energy  :   -81.0148332 Eh     change       -0.3664482E-05 Eh
 * total energy  :   -81.0148435 Eh     change       -0.1026613E-04 Eh
 * total energy  :   -81.0148481 Eh     change       -0.4635426E-05 Eh
 * total energy  :   -81.0148539 Eh     change       -0.5754934E-05 Eh
 * total energy  :   -81.0148595 Eh     change       -0.5657620E-05 Eh
 * total energy  :   -81.0148617 Eh     change       -0.2185715E-05 Eh
 * total energy  :   -81.0148624 Eh     change       -0.6733960E-06 Eh
 * total energy  :   -81.0148628 Eh     change       -0.4534626E-06 Eh
 * total energy  :   -81.0148632 Eh     change       -0.3464031E-06 Eh
 * total energy  :   -81.0148634 Eh     change       -0.2061020E-06 Eh
 * total energy  :   -81.0148635 Eh     change       -0.1085618E-06 Eh
 * total energy  :   -81.0148636 Eh     change       -0.7754980E-07 Eh
   *** GEOMETRY OPTIMIZATION CONVERGED AFTER 14 ITERATIONS ***

 final structure:
================
48
 xtb: 6.7.1 (edcfbbe)
N            1.94700629431189       -6.46725899215909       -0.07245701606614
C            1.48298699184740       -5.41818312219165       -0.05584703648577
C            0.90830519514140       -4.12671244671966       -0.03788115947861
C            1.12324836660148       -3.28277742105374        1.05352060721569
C            0.55714350812856       -2.02385659714278        1.06896854888564
C           -0.22735268389523       -1.60150234853784       -0.00159663900234
N           -0.77883846446729       -0.30693097263091        0.00589770202820
C           -0.05452411121792        0.86819809572510       -0.00272390470174
C            1.39656704583064        0.96366300735086       -0.02340405106228
C            1.98753436731950        2.04515954402098        0.63436393337463
C            3.35812204108516        2.20649073358083        0.64018455408908
C            4.14735691626206        1.28069908456279       -0.02314334893531
Br           6.04962890431092        1.48871368929751       -0.01470881662602
C            3.58512116928590        0.21302037807988       -0.70155920796776
C            2.21131201558596        0.05941368804585       -0.70408767662916
N           -0.83093063700455        1.92269568385887       -0.00916544980009
C           -2.10627974766296        1.45391314450212       -0.01000443497214
C           -3.31278565698980        2.20828611732867       -0.06127518737485
C           -3.29397574142931        3.60548940310108       -0.13102836128702
C           -4.46838988623647        4.31157626396997       -0.21687962916658
C           -5.68003367055051        3.62336420510682       -0.23935157980493
C           -5.71041746146158        2.24997918353357       -0.16514202903860
C           -4.53231956862235        1.49317720282489       -0.06557410505107
C           -4.53266262764895        0.04425805828458        0.05158181373550
C           -5.72774938915414       -0.68477321691779        0.13864153437502
C           -5.74049811959378       -2.05087702891351        0.29543995621803
C           -4.54355650108840       -2.75381483859144        0.39090196797820
C           -3.35101383987517       -2.07815210614822        0.30340870157682
C           -3.31541651412944       -0.68927215898799        0.11276250623765
C           -2.10818113695557        0.06056731731929        0.01388583537572
C           -0.43929329414303       -2.44249610359817       -1.09436705112025
C            0.12383665428243       -3.70153850415855       -1.11334903090410
H            1.72895483703732       -3.61951895805411        1.88096794305931
H            0.71617546581858       -1.36222246393399        1.90691570537886
H            1.35186172516027        2.75609758514217        1.13802043935921
H            3.81023288333685        3.04037087196060        1.15441612370992
H            4.21221457439686       -0.48865008789501       -1.22967310167721
H            1.78103439396812       -0.75666589298625       -1.26268694546494
H           -2.33477763926570        4.10015932046371       -0.12225452283581
H           -4.45738077446813        5.39012132628553       -0.27247628689414
H           -6.60664266030044        4.17381398291421       -0.31550331227135
H           -6.67122451493561        1.76138590592691       -0.18952098339604
H           -6.67336015211856       -0.16976563619993        0.09385514492655
H           -6.68160271996251       -2.57692666682132        0.35826379112963
H           -4.55012361483212       -3.82359302997513        0.53880659015345
H           -2.42711962663744       -2.62505965082619        0.40005592354212
H           -1.04845759062692       -2.10169011635987       -1.91835629957092
H           -0.03533026133763       -4.35882723298423       -1.95469473246396

          :  Hamiltonian                  GFN2-xTB          :
         :: gradient norm              0.000074807591 Eh/a0 ::
         :: HOMO-LUMO gap              2.212497794086 eV    ::
         :: SCC energy               -82.483335770668 Eh    ::
         :: -> dispersion             -0.068985512634 Eh    ::
         :: -> Gsolv                  -0.038935709441 Eh    ::
         :: repulsion energy           1.468472203587 Eh    ::

    * Orbital Energies and Occupations

         #    Occupation            Energy/Eh            Energy/eV
      -------------------------------------------------------------
         1        2.0000           -0.8440917             -22.9689
       ...           ...                  ...                  ...
        63        2.0000           -0.4385362             -11.9332
        64        2.0000           -0.4359035             -11.8615
        65        2.0000           -0.4336550             -11.8004
        66        2.0000           -0.4311546             -11.7323
        67        2.0000           -0.4272348             -11.6256
        68        2.0000           -0.4243828             -11.5480
        69        2.0000           -0.4174827             -11.3603
        70        2.0000           -0.4164891             -11.3332
        71        2.0000           -0.4105714             -11.1722
        72        2.0000           -0.4055404             -11.0353
        73        2.0000           -0.3920928             -10.6694
        74        2.0000           -0.3896212             -10.6021
        75        2.0000           -0.3753059             -10.2126 (HOMO)
        76                         -0.2939980              -8.0001 (LUMO)
        77                         -0.2756405              -7.5006
        78                         -0.2632332              -7.1629
        79                         -0.2568565              -6.9894
        80                         -0.2531139              -6.8876
        81                         -0.2510873              -6.8324
        82                         -0.2239036              -6.0927
        83                         -0.2208675              -6.0101
        84                         -0.2117464              -5.7619
        85                         -0.2004874              -5.4555
        86                         -0.1967447              -5.3537
       ...                                ...                  ...
       149                          1.1501024              31.2959
      -------------------------------------------------------------
                  HL-Gap            0.0813079 Eh            2.2125 eV

     #   Z          covCN         q      C6AA      α(0)
     1   7 N        0.911    -0.254    26.594     7.458
     2   6 C        1.912     0.120    28.149     8.568
     3   6 C        2.973     0.021    27.536     8.607
     4   6 C        2.926    -0.014    28.359     8.733
     5   6 C        2.920    -0.034    28.841     8.807
     6   6 C        2.911     0.075    26.326     8.414
     7   7 N        2.839    -0.047    22.145     6.989
     8   6 C        3.186     0.129    24.752     8.118
     9   6 C        2.972     0.001    27.991     8.678
    10   6 C        2.932    -0.025    28.626     8.775
    11   6 C        2.983    -0.030    28.742     8.794
    12   6 C        2.917     0.086    26.080     8.374
    13  35 Br       1.057    -0.185   190.164    22.234
    14   6 C        2.985    -0.032    28.797     8.803
    15   6 C        2.925    -0.033    28.831     8.806
    16   7 N        1.895    -0.302    28.670     7.938
    17   6 C        3.202     0.060    26.101     8.324
    18   6 C        2.985    -0.001    28.054     8.688
    19   6 C        2.921    -0.032    28.807     8.802
    20   6 C        2.917    -0.030    28.751     8.793
    21   6 C        2.917    -0.032    28.802     8.801
    22   6 C        2.921    -0.035    28.879     8.813
    23   6 C        2.979    -0.003    28.084     8.693
    24   6 C        2.979     0.001    27.990     8.678
    25   6 C        2.922    -0.034    28.837     8.806
    26   6 C        2.916    -0.032    28.791     8.799
    27   6 C        2.917    -0.031    28.775     8.796
    28   6 C        2.919    -0.041    29.009     8.832
    29   6 C        2.978    -0.004    28.116     8.698
    30   6 C        3.071     0.021    27.472     8.594
    31   6 C        2.920    -0.032    28.799     8.800
    32   6 C        2.926    -0.015    28.389     8.738
    33   1 H        0.926     0.060     2.204     2.321
    34   1 H        0.926     0.055     2.264     2.353
    35   1 H        0.926     0.065     2.136     2.286
    36   1 H        0.926     0.064     2.151     2.294
    37   1 H        0.926     0.060     2.195     2.317
    38   1 H        0.926     0.045     2.383     2.414
    39   1 H        0.926     0.046     2.370     2.408
    40   1 H        0.926     0.035     2.510     2.477
    41   1 H        0.926     0.035     2.516     2.481
    42   1 H        0.926     0.038     2.477     2.461
    43   1 H        0.926     0.041     2.437     2.441
    44   1 H        0.926     0.036     2.501     2.473
    45   1 H        0.926     0.034     2.528     2.486
    46   1 H        0.926     0.028     2.615     2.529
    47   1 H        0.926     0.059     2.207     2.323
    48   1 H        0.926     0.060     2.196     2.317

molecular dipole:
                 x           y           z       tot (Debye)
 q only:       -1.447       0.213       0.049
   full:       -2.041       0.186       0.044       5.210

 projected vibrational frequencies (cm⁻¹)
eigval :       -0.00    -0.00    -0.00    -0.00     0.00     0.00
eigval :       21.19    22.63    28.62    41.79    47.09    58.46
eigval :       80.00    91.70   100.04   116.11   123.49   141.19
eigval :      153.12   176.62   192.88   203.26   235.89   253.79
eigval :      266.01   281.73   288.05   346.72   359.38   370.31
eigval :      372.64   382.08   400.75   407.01   424.27   433.77
eigval :      461.26   464.91   488.33   513.76   522.78   533.34
eigval :      536.88   547.17   576.43   585.01   596.50   611.53
eigval :      637.63   648.82   663.37   668.39   672.99   682.36
eigval :      688.17   696.57   729.09   736.40   765.37   776.29
eigval :      783.16   805.39   810.66   824.66   862.18   864.42
eigval :      865.69   875.82   907.46   911.30   914.83   915.69
eigval :      921.64   924.22   926.14   927.45   938.32   949.35
eigval :      991.19  1011.81  1026.94  1067.33  1084.53  1088.74
eigval :     1106.92  1125.23  1130.66  1134.73  1150.67  1170.43
eigval :     1178.23  1180.80  1184.01  1193.67  1204.18  1228.07
eigval :     1252.98  1255.26  1256.98  1260.72  1281.18  1301.27
eigval :     1307.17  1318.10  1322.71  1336.48  1344.19  1369.60
eigval :     1394.13  1397.51  1404.73  1416.93  1427.73  1432.24
eigval :     1443.23  1477.46  1509.03  1511.42  1537.75  1548.76
eigval :     1558.56  1564.43  1566.96  1576.88  1580.20  1592.63
eigval :     1603.16  2366.78  3072.03  3075.83  3082.77  3085.91
eigval :     3091.95  3093.93  3096.66  3098.70  3099.05  3100.68
eigval :     3102.41  3104.27  3109.46  3111.31  3112.25  3116.21

   temp. (K)  partition function   enthalpy   heat capacity  entropy
                                   cal/mol     cal/K/mol   cal/K/mol   J/K/mol
 298.15  VIB  0.248E+11            14163.554     89.910     87.054
         ROT  0.367E+08              888.752      2.981     37.598
         INT  0.913E+18            15052.306     92.891    124.652
         TR   0.100E+29             1481.254      4.968     44.338
         TOT                       16533.5598    97.8590   168.9905   707.0562

       T/K    H(0)-H(T)+PV         H(T)/Eh          T*S/Eh         G(T)/Eh
   ------------------------------------------------------------------------
    298.15    0.263479E-01    0.376004E+00    0.802928E-01    0.295711E+00
   ------------------------------------------------------------------------

         :::::::::::::::::::::::::::::::::::::::::::::::::::::
         ::                  THERMODYNAMIC                  ::
         :::::::::::::::::::::::::::::::::::::::::::::::::::::
         :: total free energy         -80.719152882263 Eh   ::
         ::.................................................::
         :: total energy              -81.014863569659 Eh   ::
         :: zero point energy           0.349655615888 Eh   ::
         :: G(RRHO) w/o ZPVE           -0.053944928492 Eh   ::
         :: G(RRHO) contrib.            0.295710687396 Eh   ::
         :::::::::::::::::::::::::::::::::::::::::::::::::::::

           -------------------------------------------------
          | TOTAL ENERGY              -81.014863569659 Eh   |
          | TOTAL ENTHALPY            -80.638860049084 Eh   |
          | TOTAL FREE ENERGY         -80.719152882263 Eh   |
          | GRADIENT NORM               0.000074893604 Eh/α |
          | HOMO-LUMO GAP               2.212501795503 eV   |
           -------------------------------------------------

 * finished run on 2025/07/18 at 16:16:27.702
