   * xtb version 6.7.1 (edcfbbe) compiled by 'albert@albert-system' on 2024-07-22

   ID    Z sym.   atoms
    1    7 N      1, 7, 16
    2    6 C      2-6, 8-12, 14, 15, 17-32
    3   35 Br     13
    4    1 H      33-48

          program call               : xtb data2507/toluene/PICNAnCz/PICNAnCz.xyz --gfn 2 --gbsa toluene --ohess vtight --parallel 40 --molden --ceasefiles --namespace data2507/toluene/PICNAnCz/PICNAnCz_toluene_S0_preOpt
      * Solvation model:               GBSA
        Solvent                        toluene
        Solvent mass                       9.2140E+01 g/mol
          :  Hamiltonian                  GFN2-xTB          :
 * total energy  :   -81.0011909 Eh     change       -0.1274230E-08 Eh
 * total energy  :   -81.0097797 Eh     change       -0.8588798E-02 Eh
 * total energy  :   -81.0117444 Eh     change       -0.1964643E-02 Eh
 * total energy  :   -81.0121343 Eh     change       -0.3899309E-03 Eh
 * total energy  :   -81.0123942 Eh     change       -0.2599064E-03 Eh
 * total energy  :   -81.0125721 Eh     change       -0.1779206E-03 Eh
 * total energy  :   -81.0128065 Eh     change       -0.2344127E-03 Eh
 * total energy  :   -81.0130862 Eh     change       -0.2796229E-03 Eh
 * total energy  :   -81.0134157 Eh     change       -0.3295123E-03 Eh
 * total energy  :   -81.0136417 Eh     change       -0.2260725E-03 Eh
 * total energy  :   -81.0148500 Eh     change       -0.3349770E-06 Eh
 * total energy  :   -81.0148505 Eh     change       -0.4774557E-06 Eh
 * total energy  :   -81.0148510 Eh     change       -0.4630161E-06 Eh
 * total energy  :   -81.0148513 Eh     change       -0.3399206E-06 Eh
 * total energy  :   -81.0148516 Eh     change       -0.2808888E-06 Eh
 * total energy  :   -81.0148519 Eh     change       -0.2983801E-06 Eh
 * total energy  :   -81.0148521 Eh     change       -0.2159424E-06 Eh
 * total energy  :   -81.0148522 Eh     change       -0.1088881E-06 Eh
 * total energy  :   -81.0148522 Eh     change       -0.3398229E-07 Eh
   *** GEOMETRY OPTIMIZATION CONVERGED AFTER 55 ITERATIONS ***

 final structure:
================
48
 xtb: 6.7.1 (edcfbbe)
N            4.92999762253352       -5.04780327991230       -0.20318582747002
C            4.16968892816790       -4.18932455773452       -0.16997214123736
C            3.23224699623511       -3.13178612592408       -0.13114261253096
C            3.19925778485172       -2.26988836674045        0.96679567824194
C            2.28228607142696       -1.23858277454763        1.00153894194535
C            1.39279218610416       -1.06350440899626       -0.05582717127004
N            0.48134896275670        0.00858745163627       -0.02838430749840
C            0.82576533206145        1.34535830046019       -0.03983383131352
C            2.18405980744542        1.86249412898169       -0.09199773178991
C            2.45033623146024        3.06387069989270        0.56928874546031
C            3.71582895434714        3.61435005023584        0.55402495151555
C            4.72543697971278        2.96167752899721       -0.13505691399170
Br           6.48735874203753        3.70830686028674       -0.15249220460155
C            4.48114387039866        1.78413026799432       -0.82061962158381
C            3.21068562891138        1.23971579314399       -0.80123330482103
N           -0.22709177611032        2.12337730730118       -0.01122745726175
C           -1.30653000134964        1.29844527937940        0.01635124433033
C           -2.68282583355500        1.66311522829042        0.01643561127710
C           -3.07922511337180        3.00411866969298       -0.02727112909297
C           -4.41184186548815        3.33303909317042       -0.05744303050927
C           -5.36696235271863        2.31815429792578       -0.04872043358807
C           -4.98840290972048        0.99644713792653       -0.00074265236203
C           -3.63667933336005        0.61997300981765        0.04123276321056
C           -3.20557710478942       -0.76551216408511        0.12834315253907
C           -4.12879295372375       -1.81621326895720        0.23383771926375
C           -3.73275907148925       -3.12717429804819        0.35856449896290
C           -2.37927618009417       -3.44631691883780        0.40295731565193
C           -1.44274157799947       -2.44738668845027        0.29632635665988
C           -1.82478017838706       -1.10740716504123        0.13756916531735
C           -0.89630247370955       -0.03342249139553        0.02003226092368
C            1.42667969221559       -1.92263380191975       -1.15444629578418
C            2.34099365893281       -2.95476213883545       -1.19285335461734
H            3.88944249167852       -2.41509982999615        1.78383557154390
H            2.24694913417612       -0.56527988720081        1.84456929720524
H            1.64674133651975        3.55627183115646        1.09372768707020
H            3.91822250481376        4.53893888060144        1.07206426193810
H            5.27248277879530        1.29878184657765       -1.37082147825584
H            3.02320284633165        0.33934543500155       -1.36451020700464
H           -2.30865436852051        3.75959672725975       -0.04300803253562
H           -4.72096144015925        4.36729343463106       -0.09248032641043
H           -6.41693692005887        2.57130694775809       -0.07987167901156
H           -5.76305600987395        0.24653507173523        0.00065394021193
H           -5.18519062673392       -1.60314865091589        0.22740873863786
H           -4.47404082230461       -3.90873319491597        0.43654162499124
H           -2.06507654612640       -4.47224492223334        0.52553175624243
H           -0.39591416575456       -2.69838059225187        0.35260991043590
H            0.73190816238311       -1.77469261776858       -1.96787189551023
H            2.37475992110193       -3.62393413514765       -2.03922655352578

          :  Hamiltonian                  GFN2-xTB          :
         :: gradient norm              0.000035696473 Eh/a0 ::
         :: HOMO-LUMO gap              2.211749751855 eV    ::
         :: SCC energy               -82.483291140146 Eh    ::
         :: -> dispersion             -0.068994410196 Eh    ::
         :: -> Gsolv                  -0.038931446097 Eh    ::
         :: repulsion energy           1.468438908092 Eh    ::

    * Orbital Energies and Occupations

         #    Occupation            Energy/Eh            Energy/eV
      -------------------------------------------------------------
         1        2.0000           -0.8441051             -22.9693
       ...           ...                  ...                  ...
        63        2.0000           -0.4385828             -11.9344
        64        2.0000           -0.4358665             -11.8605
        65        2.0000           -0.4336651             -11.8006
        66        2.0000           -0.4311397             -11.7319
        67        2.0000           -0.4273157             -11.6279
        68        2.0000           -0.4243606             -11.5474
        69        2.0000           -0.4174932             -11.3606
        70        2.0000           -0.4164378             -11.3318
        71        2.0000           -0.4105940             -11.1728
        72        2.0000           -0.4055520             -11.0356
        73        2.0000           -0.3920459             -10.6681
        74        2.0000           -0.3896364             -10.6025
        75        2.0000           -0.3752750             -10.2118 (HOMO)
        76                         -0.2939947              -8.0000 (LUMO)
        77                         -0.2757043              -7.5023
        78                         -0.2632979              -7.1647
        79                         -0.2568560              -6.9894
        80                         -0.2531087              -6.8874
        81                         -0.2511086              -6.8330
        82                         -0.2239556              -6.0941
        83                         -0.2208285              -6.0090
        84                         -0.2117727              -5.7626
        85                         -0.2003799              -5.4526
        86                         -0.1967029              -5.3526
       ...                                ...                  ...
       149                          1.1499530              31.2918
      -------------------------------------------------------------
                  HL-Gap            0.0812803 Eh            2.2117 eV

     #   Z          covCN         q      C6AA      α(0)
     1   7 N        0.911    -0.254    26.590     7.458
     2   6 C        1.912     0.120    28.149     8.568
     3   6 C        2.973     0.021    27.534     8.607
     4   6 C        2.926    -0.014    28.358     8.733
     5   6 C        2.920    -0.034    28.839     8.806
     6   6 C        2.911     0.075    26.326     8.413
     7   7 N        2.839    -0.047    22.149     6.990
     8   6 C        3.186     0.129    24.750     8.118
     9   6 C        2.972     0.001    27.992     8.678
    10   6 C        2.932    -0.025    28.627     8.775
    11   6 C        2.983    -0.030    28.743     8.794
    12   6 C        2.917     0.086    26.080     8.374
    13  35 Br       1.057    -0.184   190.163    22.234
    14   6 C        2.985    -0.032    28.798     8.803
    15   6 C        2.925    -0.033    28.834     8.806
    16   7 N        1.895    -0.302    28.671     7.938
    17   6 C        3.203     0.060    26.099     8.323
    18   6 C        2.985    -0.001    28.054     8.688
    19   6 C        2.921    -0.032    28.807     8.802
    20   6 C        2.917    -0.030    28.752     8.793
    21   6 C        2.917    -0.032    28.802     8.801
    22   6 C        2.921    -0.035    28.879     8.813
    23   6 C        2.979    -0.003    28.084     8.693
    24   6 C        2.979     0.001    27.989     8.678
    25   6 C        2.922    -0.034    28.837     8.806
    26   6 C        2.916    -0.032    28.791     8.799
    27   6 C        2.917    -0.031    28.775     8.796
    28   6 C        2.919    -0.041    29.011     8.833
    29   6 C        2.977    -0.004    28.116     8.698
    30   6 C        3.071     0.021    27.471     8.594
    31   6 C        2.919    -0.032    28.798     8.800
    32   6 C        2.925    -0.015    28.390     8.738
    33   1 H        0.926     0.060     2.203     2.321
    34   1 H        0.926     0.054     2.264     2.353
    35   1 H        0.926     0.065     2.136     2.286
    36   1 H        0.926     0.064     2.151     2.294
    37   1 H        0.926     0.060     2.196     2.317
    38   1 H        0.926     0.045     2.382     2.414
    39   1 H        0.926     0.046     2.370     2.408
    40   1 H        0.926     0.035     2.510     2.477
    41   1 H        0.926     0.035     2.517     2.481
    42   1 H        0.926     0.038     2.478     2.461
    43   1 H        0.926     0.041     2.437     2.441
    44   1 H        0.926     0.036     2.502     2.473
    45   1 H        0.926     0.034     2.528     2.486
    46   1 H        0.926     0.028     2.614     2.528
    47   1 H        0.926     0.059     2.205     2.322
    48   1 H        0.926     0.060     2.195     2.317

molecular dipole:
                 x           y           z       tot (Debye)
 q only:       -1.447      -0.228       0.075
   full:       -2.010      -0.429       0.078       5.227

 projected vibrational frequencies (cm⁻¹)
eigval :       -0.00    -0.00     0.00     0.00     0.00     0.00
eigval :       18.96    20.71    27.14    38.93    48.91    57.02
eigval :       73.03    85.54    99.13   113.78   122.55   140.90
eigval :      152.87   175.97   192.98   202.98   235.34   253.36
eigval :      264.21   281.71   287.03   346.12   359.22   370.19
eigval :      373.90   383.58   399.41   405.96   424.11   431.56
eigval :      460.74   464.44   488.19   513.17   522.07   532.85
eigval :      534.07   546.87   576.45   584.86   596.72   611.72
eigval :      638.09   649.67   663.75   668.80   672.82   679.77
eigval :      688.30   697.17   729.01   734.78   765.08   776.14
eigval :      782.64   805.45   809.33   826.03   861.88   862.92
eigval :      867.17   874.38   907.84   910.79   914.90   915.64
eigval :      921.38   923.78   926.35   927.97   938.42   949.45
eigval :      991.20  1011.70  1026.97  1067.24  1083.62  1088.76
eigval :     1106.64  1125.39  1130.42  1134.46  1149.75  1170.24
eigval :     1178.40  1180.44  1183.25  1193.29  1204.17  1227.96
eigval :     1251.87  1255.73  1257.28  1260.67  1280.92  1301.23
eigval :     1306.95  1318.10  1322.37  1336.16  1343.99  1369.71
eigval :     1394.18  1397.50  1404.27  1416.75  1427.64  1432.08
eigval :     1443.38  1477.80  1509.26  1511.36  1537.99  1548.91
eigval :     1558.49  1564.38  1566.95  1577.07  1580.31  1592.33
eigval :     1602.87  2366.45  3071.88  3076.03  3082.30  3086.10
eigval :     3091.27  3093.44  3096.82  3097.50  3098.49  3100.25
eigval :     3101.73  3104.10  3109.05  3110.94  3112.63  3116.74

   temp. (K)  partition function   enthalpy   heat capacity  entropy
                                   cal/mol     cal/K/mol   cal/K/mol   J/K/mol
 298.15  VIB  0.397E+11            14205.697     89.802     87.622
         ROT  0.367E+08              888.752      2.981     37.593
         INT  0.146E+19            15094.449     92.782    125.215
         TR   0.100E+29             1481.254      4.968     44.338
         TOT                       16575.7031    97.7506   169.5530   709.4097

       T/K    H(0)-H(T)+PV         H(T)/Eh          T*S/Eh         G(T)/Eh
   ------------------------------------------------------------------------
    298.15    0.264151E-01    0.375948E+00    0.805601E-01    0.295387E+00
   ------------------------------------------------------------------------

         :::::::::::::::::::::::::::::::::::::::::::::::::::::
         ::                  THERMODYNAMIC                  ::
         :::::::::::::::::::::::::::::::::::::::::::::::::::::
         :: total free energy         -80.719464778477 Eh   ::
         ::.................................................::
         :: total energy              -81.014852236798 Eh   ::
         :: zero point energy           0.349532495036 Eh   ::
         :: G(RRHO) w/o ZPVE           -0.054145036714 Eh   ::
         :: G(RRHO) contrib.            0.295387458322 Eh   ::
         :::::::::::::::::::::::::::::::::::::::::::::::::::::

           -------------------------------------------------
          | TOTAL ENERGY              -81.014852236798 Eh   |
          | TOTAL ENTHALPY            -80.638904677433 Eh   |
          | TOTAL FREE ENERGY         -80.719464778477 Eh   |
          | GRADIENT NORM               0.000035567264 Eh/α |
          | HOMO-LUMO GAP               2.211748666580 eV   |
           -------------------------------------------------

 * finished run on 2025/07/18 at 16:15:08.938
