   * xtb version 6.7.1 (edcfbbe) compiled by 'albert@albert-system' on 2024-07-22

   ID    Z sym.   atoms
    1    6 C      1-6, 8-27
    2   16 S      7, 28
    3    1 H      29-44

          program call               : xtb data2507/toluene/2-TA-AN/2-TA-AN_toluene_S0_finalOpt.xtbopt.xyz --gfn 2 --uhf 2 --gbsa toluene --ohess vtight --parallel 40 --molden --ceasefiles --namespace data2507/toluene/2-TA-AN/2-TA-AN_toluene_T1_preOpt
      * Solvation model:               GBSA
        Solvent                        toluene
        Solvent mass                       9.2140E+01 g/mol
          :  Hamiltonian                  GFN2-xTB          :
 * total energy  :   -70.2697519 Eh     change       -0.2878053E-08 Eh
 * total energy  :   -70.2756883 Eh     change       -0.5936450E-02 Eh
 * total energy  :   -70.2771079 Eh     change       -0.1419628E-02 Eh
 * total energy  :   -70.2772465 Eh     change       -0.1385976E-03 Eh
 * total energy  :   -70.2773927 Eh     change       -0.1461191E-03 Eh
 * total energy  :   -70.2774861 Eh     change       -0.9347758E-04 Eh
 * total energy  :   -70.2776186 Eh     change       -0.1324559E-03 Eh
 * total energy  :   -70.2777696 Eh     change       -0.1510205E-03 Eh
 * total energy  :   -70.2778924 Eh     change       -0.1228095E-03 Eh
 * total energy  :   -70.2779840 Eh     change       -0.9156712E-04 Eh
 * total energy  :   -70.2789607 Eh     change       -0.7350890E-06 Eh
 * total energy  :   -70.2789618 Eh     change       -0.1071881E-05 Eh
 * total energy  :   -70.2789631 Eh     change       -0.1389344E-05 Eh
 * total energy  :   -70.2789644 Eh     change       -0.1246489E-05 Eh
 * total energy  :   -70.2789653 Eh     change       -0.9250342E-06 Eh
 * total energy  :   -70.2789660 Eh     change       -0.6952712E-06 Eh
 * total energy  :   -70.2789668 Eh     change       -0.7464810E-06 Eh
 * total energy  :   -70.2789676 Eh     change       -0.8851845E-06 Eh
 * total energy  :   -70.2789676 Eh     change       -0.5518785E-08 Eh
   *** GEOMETRY OPTIMIZATION CONVERGED AFTER 44 ITERATIONS ***

 final structure:
================
44
 xtb: 6.7.1 (edcfbbe)
C            6.41192682550069        0.93979930352270       -0.84340253733780
C            5.99503631073982        0.22469497385792       -1.95646069942099
C            4.82101596742325       -0.50251346092606       -1.90990415318641
C            4.06096470193966       -0.53401545427623       -0.74658528980572
C            4.47652371881350        0.18604817801816        0.36637899832169
C            5.65078516903773        0.92755323844442        0.30973698808677
S            3.58277778841770        0.18058986602883        1.89980277134004
C            1.90810366019821        0.16551730506138        1.33557595831109
C            0.96612160978938        0.89099067957282        2.06318960660842
C           -0.35853285784929        0.88919437307778        1.69436171070682
C           -0.79977607614551        0.15291009766405        0.58077304266355
C           -2.19704057795221        0.13565452975295        0.19368744846216
C           -2.86935817334958       -1.11620186026310       -0.01148507017019
C           -2.26740750554306       -2.34837409122006        0.24770778448147
C           -2.94193623422260       -3.55149332346088        0.02758911430550
C           -4.24177743302411       -3.54642958884707       -0.43342984404629
C           -4.89191984595798       -2.33338214229017       -0.63912773461095
C           -4.23939430065552       -1.11466798420017       -0.41662754540322
C           -4.92381481349269        0.10927840815679       -0.54217806019100
C           -4.29128683028827        1.34615471672518       -0.31500106996007
C           -4.98767277664253        2.55256100775837       -0.45745374062184
C           -4.34152958398767        3.77760760463965       -0.32018765466475
C           -2.98611854759279        3.80712801466410       -0.06715262358948
C           -2.27225565295500        2.61645492079121        0.08851729411501
C           -2.90323529497524        1.37348448203119        0.02111012008580
C            0.15835823182225       -0.56776009272076       -0.14369635384953
C            1.48956774714833       -0.56486559224630        0.22615298392655
S            2.60757130547832       -1.55119204428941       -0.73896024303447
H            7.32729928342582        1.51036271337279       -0.87350484442039
H            6.58276037206068        0.23328184231830       -2.86140483277800
H            4.48289316026440       -1.06607178899452       -2.76620116318534
H            5.95942273452864        1.47982235844759        1.18431988963975
H            1.29501877803248        1.44179864362849        2.93166361508392
H           -1.07973793785704        1.42490511591346        2.29268415784792
H           -1.26245562482852       -2.38464440736330        0.63992008146884
H           -2.43431367424074       -4.48447503804698        0.22370226308193
H           -4.76240450118801       -4.47472392933640       -0.61720796973566
H           -5.92179776496793       -2.32087455087088       -0.96585311756950
H           -5.96628062498246        0.09890501971755       -0.82564750771485
H           -6.04294230044594        2.52094598871387       -0.68745311398135
H           -4.89945937127069        4.69593553530851       -0.42967042547244
H           -2.46440089446852        4.74975904084235        0.00995386831193
H           -1.20633190970307        2.66910048815799        0.25001348628937
H           -0.13555389216580       -1.11641165324521       -1.02589500851132

          :  Hamiltonian                  GFN2-xTB          :
         :: gradient norm              0.000053455536 Eh/a0 ::
         :: HOMO-LUMO gap              0.901786083997 eV    ::
         :: SCC energy               -71.530945188397 Eh    ::
         :: -> dispersion             -0.062745252686 Eh    ::
         :: -> Gsolv                  -0.030407766948 Eh    ::
         :: repulsion energy           1.251977539563 Eh    ::

    * Orbital Energies and Occupations

         #    Occupation            Energy/Eh            Energy/eV
      -------------------------------------------------------------
         1        2.0000           -0.7313296             -19.9005
       ...           ...                  ...                  ...
        55        2.0000           -0.4328749             -11.7791
        56        2.0000           -0.4281923             -11.6517
        57        2.0000           -0.4258737             -11.5886
        58        2.0000           -0.4225728             -11.4988
        59        2.0000           -0.4186477             -11.3920
        60        2.0000           -0.4111156             -11.1870
        61        2.0000           -0.4098288             -11.1520
        62        2.0000           -0.4027870             -10.9604
        63        2.0000           -0.4004163             -10.8959
        64        2.0000           -0.3883795             -10.5683
        65        1.9989           -0.3654789              -9.9452
        66        1.0011           -0.3525984              -9.5947
        67        1.0000           -0.2897670              -7.8850 (HOMO)
        68                         -0.2566268              -6.9832 (LUMO)
        69                         -0.2453090              -6.6752
        70                         -0.2428646              -6.6087
        71                         -0.2410315              -6.5588
        72                         -0.2272279              -6.1832
        73                         -0.2232967              -6.0762
        74                         -0.2046810              -5.5697
        75                         -0.2025115              -5.5106
        76                         -0.1789719              -4.8701
        77                         -0.1744580              -4.7472
        78                         -0.1606955              -4.3727
       ...                                ...                  ...
       138                          0.7086672              19.2838
      -------------------------------------------------------------
                  HL-Gap            0.0331401 Eh            0.9018 eV

     #   Z          covCN         q      C6AA      α(0)
     1   6 C        2.919    -0.029    28.725     8.789
     2   6 C        2.919    -0.029    28.720     8.788
     3   6 C        2.974    -0.036    28.881     8.815
     4   6 C        2.992     0.045    26.984     8.521
     5   6 C        2.993     0.043    27.026     8.528
     6   6 C        2.974    -0.036    28.880     8.815
     7  16 S        2.121    -0.131   146.550    20.375
     8   6 C        2.992     0.037    27.165     8.550
     9   6 C        2.968    -0.038    28.949     8.826
    10   6 C        2.922    -0.034    28.854     8.809
    11   6 C        2.972     0.016    27.646     8.625
    12   6 C        2.970    -0.011    28.290     8.724
    13   6 C        2.976     0.008    27.825     8.653
    14   6 C        2.919    -0.038    28.953     8.824
    15   6 C        2.914    -0.032    28.804     8.801
    16   6 C        2.912    -0.031    28.779     8.797
    17   6 C        2.922    -0.039    28.971     8.827
    18   6 C        2.976     0.012    27.734     8.638
    19   6 C        2.920    -0.050    29.248     8.869
    20   6 C        2.976     0.012    27.733     8.638
    21   6 C        2.922    -0.039    28.973     8.827
    22   6 C        2.912    -0.031    28.782     8.797
    23   6 C        2.914    -0.033    28.813     8.802
    24   6 C        2.919    -0.039    28.973     8.827
    25   6 C        2.976     0.008    27.825     8.653
    26   6 C        2.982    -0.043    29.057     8.842
    27   6 C        2.989     0.042    27.041     8.530
    28  16 S        2.125    -0.150   147.380    20.433
    29   1 H        0.926     0.053     2.279     2.361
    30   1 H        0.926     0.053     2.282     2.363
    31   1 H        0.926     0.053     2.280     2.361
    32   1 H        0.926     0.054     2.270     2.356
    33   1 H        0.926     0.051     2.309     2.376
    34   1 H        0.926     0.051     2.312     2.378
    35   1 H        0.926     0.030     2.587     2.515
    36   1 H        0.926     0.030     2.587     2.515
    37   1 H        0.926     0.031     2.570     2.507
    38   1 H        0.926     0.032     2.557     2.501
    39   1 H        0.926     0.032     2.559     2.502
    40   1 H        0.926     0.032     2.560     2.502
    41   1 H        0.926     0.031     2.571     2.508
    42   1 H        0.926     0.030     2.582     2.513
    43   1 H        0.926     0.031     2.569     2.506
    44   1 H        0.926     0.050     2.316     2.380

molecular dipole:
                 x           y           z       tot (Debye)
 q only:        0.416       0.550      -0.294
   full:        0.398       0.655      -0.363       2.156

 projected vibrational frequencies (cm⁻¹)
eigval :       -0.00    -0.00     0.00     0.00     0.00     0.00
eigval :       15.45    26.97    34.48    48.71    72.20    94.59
eigval :      112.41   128.31   150.98   167.64   192.18   204.59
eigval :      218.47   242.12   264.36   277.00   298.00   318.77
eigval :      328.97   373.52   378.50   387.23   388.85   400.21
eigval :      411.69   422.67   451.62   461.68   468.54   469.46
eigval :      493.18   507.69   518.33   559.67   575.95   589.15
eigval :      604.97   639.13   645.38   648.16   659.42   662.57
eigval :      675.19   706.24   718.91   730.63   741.77   744.70
eigval :      769.64   770.45   823.03   832.78   836.31   842.72
eigval :      872.54   874.16   875.44   880.57   897.65   900.14
eigval :      904.56   906.47   919.20   921.22   923.22   939.85
eigval :      983.38  1004.83  1086.98  1092.91  1094.71  1110.41
eigval :     1112.83  1129.23  1136.40  1146.59  1159.37  1170.11
eigval :     1172.68  1176.87  1178.46  1187.73  1225.85  1231.77
eigval :     1249.54  1252.64  1255.12  1272.14  1304.32  1312.77
eigval :     1317.50  1331.49  1369.29  1369.72  1380.15  1399.90
eigval :     1403.57  1409.66  1421.99  1425.16  1434.20  1472.94
eigval :     1488.55  1492.54  1517.68  1528.18  1535.41  1554.90
eigval :     1561.26  1563.95  3069.29  3069.92  3073.43  3075.16
eigval :     3076.35  3083.69  3084.69  3085.26  3086.99  3089.50
eigval :     3091.66  3092.17  3094.14  3096.35  3096.95  3104.44

   temp. (K)  partition function   enthalpy   heat capacity  entropy
                                   cal/mol     cal/K/mol   cal/K/mol   J/K/mol
 298.15  VIB  0.253E+09            12252.703     81.895     73.133
         ROT  0.195E+08              888.752      2.981     36.343
         INT  0.495E+16            13141.455     84.876    109.476
         TR   0.752E+28             1481.254      4.968     43.774
         TOT                       14622.7092    89.8442   153.2499   641.1977

       T/K    H(0)-H(T)+PV         H(T)/Eh          T*S/Eh         G(T)/Eh
   ------------------------------------------------------------------------
    298.15    0.233028E-01    0.345246E+00    0.728140E-01    0.272432E+00
   ------------------------------------------------------------------------

         :::::::::::::::::::::::::::::::::::::::::::::::::::::
         ::                  THERMODYNAMIC                  ::
         :::::::::::::::::::::::::::::::::::::::::::::::::::::
         :: total free energy         -70.006535560261 Eh   ::
         ::.................................................::
         :: total energy              -70.278967650788 Eh   ::
         :: zero point energy           0.321943309113 Eh   ::
         :: G(RRHO) w/o ZPVE           -0.049511218586 Eh   ::
         :: G(RRHO) contrib.            0.272432090527 Eh   ::
         :::::::::::::::::::::::::::::::::::::::::::::::::::::

           -------------------------------------------------
          | TOTAL ENERGY              -70.278967650788 Eh   |
          | TOTAL ENTHALPY            -69.933721571281 Eh   |
          | TOTAL FREE ENERGY         -70.006535560261 Eh   |
          | GRADIENT NORM               0.000053452318 Eh/α |
          | HOMO-LUMO GAP               0.901788239280 eV   |
           -------------------------------------------------

 * finished run on 2025/09/08 at 11:15:41.321
