   * xtb version 6.7.1 (edcfbbe) compiled by 'albert@albert-system' on 2024-07-22

   ID    Z sym.   atoms
    1    6 C      1-6, 8-27
    2   16 S      7, 28
    3    1 H      29-44

          program call               : xtb data2507/toluene/2-TA-AN/2-TA-AN.xyz --gfn 2 --gbsa toluene --ohess vtight --parallel 40 --molden --ceasefiles --namespace data2507/toluene/2-TA-AN/2-TA-AN_toluene_S0_preOpt
      * Solvation model:               GBSA
        Solvent                        toluene
        Solvent mass                       9.2140E+01 g/mol
          :  Hamiltonian                  GFN2-xTB          :
 * total energy  :   -70.3380625 Eh     change       -0.9087699E-09 Eh
 * total energy  :   -70.3466587 Eh     change       -0.8596147E-02 Eh
 * total energy  :   -70.3487308 Eh     change       -0.2072144E-02 Eh
 * total energy  :   -70.3490937 Eh     change       -0.3628468E-03 Eh
 * total energy  :   -70.3492580 Eh     change       -0.1643453E-03 Eh
 * total energy  :   -70.3492859 Eh     change       -0.2788971E-04 Eh
 * total energy  :   -70.3493101 Eh     change       -0.2417208E-04 Eh
 * total energy  :   -70.3493245 Eh     change       -0.1441714E-04 Eh
 * total energy  :   -70.3493417 Eh     change       -0.1715026E-04 Eh
 * total energy  :   -70.3493581 Eh     change       -0.1640602E-04 Eh
 * total energy  :   -70.3496325 Eh     change       -0.3501229E-06 Eh
 * total energy  :   -70.3496329 Eh     change       -0.3469091E-06 Eh
 * total energy  :   -70.3496332 Eh     change       -0.3180478E-06 Eh
 * total energy  :   -70.3496334 Eh     change       -0.2721742E-06 Eh
 * total energy  :   -70.3496337 Eh     change       -0.2372514E-06 Eh
 * total energy  :   -70.3496339 Eh     change       -0.2133749E-06 Eh
 * total energy  :   -70.3496341 Eh     change       -0.1754162E-06 Eh
 * total energy  :   -70.3496342 Eh     change       -0.1021123E-06 Eh
 * total energy  :   -70.3496342 Eh     change       -0.2170958E-07 Eh
   *** GEOMETRY OPTIMIZATION CONVERGED AFTER 87 ITERATIONS ***

 final structure:
================
44
 xtb: 6.7.1 (edcfbbe)
C            6.85493299111883        0.34996888181819       -0.27747238174820
C            6.43475131911690        0.25812400294662       -1.59560490131440
C            5.21991146431622       -0.33001905219096       -1.89435537413154
C            4.42579031802645       -0.84683402552610       -0.87892892883230
C            4.84574430888976       -0.75328005497480        0.44119748825433
C            6.05820686674850       -0.14457873919731        0.73828929868526
S            3.89428788442454       -1.42078588772132        1.78445585760594
C            2.25283638905145       -0.96935788668965        1.27912696184611
C            1.36222974005174       -0.53316138344721        2.25178254843515
C            0.06150209570584       -0.21512382506112        1.91461131686761
C           -0.36970853767497       -0.31141219630328        0.59311115078670
C           -1.76232021915323        0.02435216229975        0.22478309487824
C           -2.64855006380799       -0.99866240647249       -0.14556643256194
C           -2.26816535372484       -2.36670726633951       -0.15992950529256
C           -3.14988187862500       -3.33860463983608       -0.52325402655137
C           -4.47125763187215       -3.00878600404244       -0.89141879837515
C           -4.88056656223467       -1.71130647706408       -0.87716823960144
C           -3.99393224754807       -0.66844402650558       -0.50235814148067
C           -4.40451296480608        0.66063679350952       -0.46935167834958
C           -3.53380317661528        1.68132929993745       -0.10039941942559
C           -3.94942970191477        3.03791176785401       -0.06813710082818
C           -3.08405404688247        4.02880399599709        0.27898583204905
C           -1.74766868936894        3.71856892231523        0.60788162798031
C           -1.31107861400277        2.42892542910130        0.59218867004604
C           -2.18418168943326        1.36241519855778        0.25040594809913
C            0.53039707151187       -0.72824673526697       -0.37955297100150
C            1.83263574319519       -1.06477888599021       -0.04074413067612
S            2.90495525581853       -1.64417260472127       -1.33325892146722
H            7.80165749781240        0.80932339604236       -0.03807200261156
H            7.05094214025644        0.64542137780125       -2.39238370466346
H            4.87723737883358       -0.41013697127540       -2.91483390146739
H            6.36974477305555       -0.08052997572650        1.76984221474050
H            1.69976449885730       -0.46298975633149        3.27465068810993
H           -0.62934201080290        0.10731612720469        2.67902092429794
H           -1.26029153679982       -2.62821974710694        0.12762394481512
H           -2.84420239806997       -4.37492261028840       -0.52954769594033
H           -5.15168295638351       -3.79759559571205       -1.17773308658931
H           -5.89286483819245       -1.44746039259550       -1.14918661698232
H           -5.42316519783899        0.90577033295402       -0.73659157899535
H           -4.97347382089881        3.26418046962350       -0.32977674357509
H           -3.40762836926659        5.05933733417223        0.30076273984093
H           -1.07069561863745        4.51887868507386        0.87004242020870
H           -0.28429586883711        2.19997285926791        0.83760828387428
H            0.21922425660043       -0.80511789009084       -1.41074772896446

          :  Hamiltonian                  GFN2-xTB          :
         :: gradient norm              0.000049718947 Eh/a0 ::
         :: HOMO-LUMO gap              2.122990574430 eV    ::
         :: SCC energy               -71.619673687311 Eh    ::
         :: -> dispersion             -0.062630660113 Eh    ::
         :: -> Gsolv                  -0.030926491172 Eh    ::
         :: repulsion energy           1.270039490010 Eh    ::

    * Orbital Energies and Occupations

         #    Occupation            Energy/Eh            Energy/eV
      -------------------------------------------------------------
         1        2.0000           -0.7274172             -19.7940
       ...           ...                  ...                  ...
        54        2.0000           -0.4341272             -11.8132
        55        2.0000           -0.4326739             -11.7737
        56        2.0000           -0.4280318             -11.6473
        57        2.0000           -0.4261257             -11.5955
        58        2.0000           -0.4226254             -11.5002
        59        2.0000           -0.4208582             -11.4521
        60        2.0000           -0.4115146             -11.1979
        61        2.0000           -0.4109566             -11.1827
        62        2.0000           -0.4077967             -11.0967
        63        2.0000           -0.4007150             -10.9040
        64        2.0000           -0.3856079             -10.4929
        65        2.0000           -0.3653840              -9.9426
        66        2.0000           -0.3606329              -9.8133 (HOMO)
        67                         -0.2826144              -7.6903 (LUMO)
        68                         -0.2549804              -6.9384
        69                         -0.2441744              -6.6443
        70                         -0.2435231              -6.6266
        71                         -0.2428934              -6.6095
        72                         -0.2328817              -6.3370
        73                         -0.2222232              -6.0470
        74                         -0.2022166              -5.5026
        75                         -0.2021112              -5.4997
        76                         -0.1784684              -4.8564
        77                         -0.1741488              -4.7388
       ...                                ...                  ...
       138                          0.7133859              19.4122
      -------------------------------------------------------------
                  HL-Gap            0.0780185 Eh            2.1230 eV

     #   Z          covCN         q      C6AA      α(0)
     1   6 C        2.920    -0.030    28.751     8.793
     2   6 C        2.920    -0.030    28.750     8.793
     3   6 C        2.971    -0.036    28.895     8.817
     4   6 C        2.995     0.045    26.982     8.521
     5   6 C        2.995     0.045    26.982     8.521
     6   6 C        2.970    -0.036    28.897     8.818
     7  16 S        2.120    -0.164   147.992    20.475
     8   6 C        2.995     0.042    27.052     8.532
     9   6 C        2.968    -0.037    28.925     8.822
    10   6 C        2.924    -0.034    28.847     8.808
    11   6 C        2.976     0.018    27.598     8.617
    12   6 C        2.976    -0.004    28.113     8.697
    13   6 C        2.984     0.007    27.851     8.657
    14   6 C        2.916    -0.034    28.854     8.808
    15   6 C        2.915    -0.030    28.741     8.791
    16   6 C        2.914    -0.030    28.739     8.791
    17   6 C        2.918    -0.035    28.879     8.812
    18   6 C        2.981     0.011    27.754     8.642
    19   6 C        2.922    -0.045    29.121     8.849
    20   6 C        2.981     0.011    27.756     8.642
    21   6 C        2.918    -0.035    28.877     8.812
    22   6 C        2.914    -0.030    28.745     8.792
    23   6 C        2.915    -0.030    28.748     8.792
    24   6 C        2.916    -0.035    28.865     8.810
    25   6 C        2.984     0.007    27.853     8.657
    26   6 C        2.977    -0.040    28.985     8.831
    27   6 C        2.993     0.044    27.006     8.525
    28  16 S        2.123    -0.164   147.992    20.475
    29   1 H        0.926     0.051     2.303     2.373
    30   1 H        0.926     0.051     2.304     2.373
    31   1 H        0.926     0.052     2.300     2.371
    32   1 H        0.926     0.052     2.297     2.370
    33   1 H        0.926     0.052     2.296     2.370
    34   1 H        0.926     0.049     2.333     2.388
    35   1 H        0.926     0.028     2.619     2.531
    36   1 H        0.926     0.031     2.567     2.505
    37   1 H        0.926     0.033     2.542     2.493
    38   1 H        0.926     0.035     2.514     2.480
    39   1 H        0.925     0.037     2.488     2.467
    40   1 H        0.926     0.035     2.516     2.481
    41   1 H        0.926     0.033     2.543     2.494
    42   1 H        0.926     0.031     2.566     2.505
    43   1 H        0.926     0.028     2.609     2.526
    44   1 H        0.926     0.049     2.329     2.386

molecular dipole:
                 x           y           z       tot (Debye)
 q only:       -0.270       0.771      -0.078
   full:       -0.226       0.908      -0.083       2.387

 projected vibrational frequencies (cm⁻¹)
eigval :       -0.00    -0.00    -0.00     0.00     0.00     0.00
eigval :       15.09    27.15    42.67    47.20    73.55    98.24
eigval :      108.89   123.46   146.70   171.15   179.86   208.50
eigval :      211.72   246.50   257.69   286.00   300.25   323.34
eigval :      336.82   382.43   391.26   395.15   397.32   405.54
eigval :      416.37   448.02   454.90   459.91   464.63   487.74
eigval :      506.61   517.86   525.92   568.48   596.92   600.99
eigval :      612.28   640.51   647.79   650.25   665.02   670.16
eigval :      696.44   717.86   730.34   749.40   758.52   772.49
eigval :      774.26   820.12   841.46   851.26   872.04   873.33
eigval :      874.95   875.78   877.76   909.02   910.87   913.90
eigval :      916.63   917.20   921.41   926.75   928.78   939.64
eigval :      983.69  1012.88  1073.72  1075.57  1086.82  1115.04
eigval :     1132.37  1137.25  1147.01  1156.07  1158.62  1171.33
eigval :     1173.29  1181.39  1184.27  1209.47  1230.66  1233.45
eigval :     1236.75  1253.43  1294.37  1299.76  1307.19  1315.53
eigval :     1345.01  1350.58  1367.75  1395.46  1402.53  1414.79
eigval :     1426.61  1429.36  1439.07  1454.97  1481.54  1524.49
eigval :     1539.91  1540.77  1562.75  1565.29  1566.06  1570.08
eigval :     1606.59  1622.40  3064.82  3066.86  3068.46  3071.55
eigval :     3072.15  3080.67  3080.81  3085.55  3087.22  3088.40
eigval :     3089.01  3089.84  3091.16  3095.29  3098.12  3103.14

   temp. (K)  partition function   enthalpy   heat capacity  entropy
                                   cal/mol     cal/K/mol   cal/K/mol   J/K/mol
 298.15  VIB  0.195E+09            12081.924     80.791     72.389
         ROT  0.193E+08              888.752      2.981     36.315
         INT  0.377E+16            12970.676     83.772    108.704
         TR   0.752E+28             1481.254      4.968     43.774
         TOT                       14451.9302    88.7397   152.4783   637.9691

       T/K    H(0)-H(T)+PV         H(T)/Eh          T*S/Eh         G(T)/Eh
   ------------------------------------------------------------------------
    298.15    0.230306E-01    0.347875E+00    0.724474E-01    0.275427E+00
   ------------------------------------------------------------------------

         :::::::::::::::::::::::::::::::::::::::::::::::::::::
         ::                  THERMODYNAMIC                  ::
         :::::::::::::::::::::::::::::::::::::::::::::::::::::
         :: total free energy         -70.074206831663 Eh   ::
         ::.................................................::
         :: total energy              -70.349634197144 Eh   ::
         :: zero point energy           0.324844101484 Eh   ::
         :: G(RRHO) w/o ZPVE           -0.049416736003 Eh   ::
         :: G(RRHO) contrib.            0.275427365481 Eh   ::
         :::::::::::::::::::::::::::::::::::::::::::::::::::::

           -------------------------------------------------
          | TOTAL ENERGY              -70.349634197144 Eh   |
          | TOTAL ENTHALPY            -70.001759478935 Eh   |
          | TOTAL FREE ENERGY         -70.074206831663 Eh   |
          | GRADIENT NORM               0.000049682871 Eh/α |
          | HOMO-LUMO GAP               2.122991050802 eV   |
           -------------------------------------------------

 * finished run on 2025/09/08 at 11:14:28.034
