   * xtb version 6.7.1 (edcfbbe) compiled by 'albert@albert-system' on 2024-07-22

   ID    Z sym.   atoms
    1    6 C      1-6, 8-27
    2   16 S      7, 28
    3    1 H      29-44

          program call               : xtb data2507/toluene/2-TA-AN/2-TA-AN_toluene_T1_crest.xyz --gfn 2 --uhf 2 --gbsa toluene --ohess vtight --parallel 40 --molden --ceasefiles --namespace data2507/toluene/2-TA-AN/2-TA-AN_toluene_T1_finalOpt
      * Solvation model:               GBSA
        Solvent                        toluene
        Solvent mass                       9.2140E+01 g/mol
          :  Hamiltonian                  GFN2-xTB          :
 * total energy  :   -70.2789517 Eh     change       -0.2419782E-08 Eh
 * total energy  :   -70.2789750 Eh     change       -0.2331413E-04 Eh
 * total energy  :   -70.2789785 Eh     change       -0.3556584E-05 Eh
 * total energy  :   -70.2789801 Eh     change       -0.1574829E-05 Eh
 * total energy  :   -70.2789817 Eh     change       -0.1618404E-05 Eh
 * total energy  :   -70.2789841 Eh     change       -0.2402753E-05 Eh
 * total energy  :   -70.2789875 Eh     change       -0.3332720E-05 Eh
 * total energy  :   -70.2789908 Eh     change       -0.3284591E-05 Eh
 * total energy  :   -70.2789932 Eh     change       -0.2396425E-05 Eh
 * total energy  :   -70.2789948 Eh     change       -0.1619788E-05 Eh
 * total energy  :   -70.2789977 Eh     change       -0.4271149E-06 Eh
 * total energy  :   -70.2789981 Eh     change       -0.4177780E-06 Eh
 * total energy  :   -70.2789986 Eh     change       -0.4230497E-06 Eh
 * total energy  :   -70.2789989 Eh     change       -0.3804069E-06 Eh
 * total energy  :   -70.2789992 Eh     change       -0.3027170E-06 Eh
 * total energy  :   -70.2789995 Eh     change       -0.2788207E-06 Eh
 * total energy  :   -70.2789998 Eh     change       -0.3085948E-06 Eh
 * total energy  :   -70.2790001 Eh     change       -0.2775356E-06 Eh
 * total energy  :   -70.2790001 Eh     change       -0.1850836E-08 Eh
   *** GEOMETRY OPTIMIZATION CONVERGED AFTER 22 ITERATIONS ***

 final structure:
================
44
 xtb: 6.7.1 (edcfbbe)
C            6.41546454020277        0.87625568452444       -1.04644989324846
C            6.01258016698406       -0.01015538389641       -2.03439660535095
C            4.84442616109547       -0.73177180262663       -1.87993937700466
C            4.07687757010913       -0.58718341223424       -0.73000727196107
C            4.48043691057707        0.30122956262336        0.25881125749130
C            5.64788132228477        1.03688074495519        0.09116508834438
S            3.58522803472862        0.52384451674404        1.77471286611658
C            1.90972585072878        0.38940792604783        1.22979573005727
C            0.95501487804569        1.19181613844086        1.85281675758783
C           -0.37235972470673        1.10307565413588        1.50507535378653
C           -0.80348460992933        0.20094658935729        0.51658136540836
C           -2.20344608123380        0.08792855827478        0.15690606126820
C           -2.83878033915574       -1.19979067260311        0.14466501352154
C           -2.19527743909906       -2.36422177241996        0.56636605908773
C           -2.83525555739422       -3.60528555913082        0.53549229884123
C           -4.14206975034992       -3.70401304276280        0.10571978877485
C           -4.83191289486320       -2.55260532362437       -0.26115192978757
C           -4.21358375490631       -1.29658801907319       -0.23175984671726
C           -4.93619832363544       -0.12480952248140       -0.52594188496192
C           -4.33943133052820        1.14965018129016       -0.49228411542385
C           -5.07387761483345        2.30098079427403       -0.80146504522834
C           -4.46604291580061        3.55198372109706       -0.84878042887500
C           -3.11073873231218        3.65866460051295       -0.61660877812732
C           -2.35848979976475        2.52489832703464       -0.30043983491247
C           -2.95006493958960        1.26644769662108       -0.18170490387098
C            0.16803339724484       -0.59236399249160       -0.10762074977833
C            1.50140591512632       -0.50554629338283        0.24394146340155
S            2.63204458685730       -1.60414269948882       -0.57376719075445
H            7.32551327915555        1.44440535859729       -1.16198154737049
H            6.60645084197416       -0.13908518849367       -2.92606118722423
H            4.51646290919294       -1.42621655091611       -2.63849052172702
H            5.94600035583184        1.72218165024709        0.87007580375749
H            1.27676853396121        1.87230807078921        2.62689050935063
H           -1.10242778117561        1.70101582989334        2.02895789436490
H           -1.18410645865740       -2.31501675899919        0.94052002402895
H           -2.29531731631519       -4.48524624149865        0.85304325149311
H           -4.63712064294136       -4.66328292164967        0.06967140796538
H           -5.86627707259942       -2.61683958455202       -0.56695795369948
H           -5.98107791192686       -0.20662939480191       -0.78820564283109
H           -6.12909743028471        2.20440803989884       -1.01286340840495
H           -5.05341462660915        4.42751426766293       -1.08354551452016
H           -2.61864775317801        4.61810571529550       -0.67996443036493
H           -1.29365816443620        2.63269586734422       -0.16081263711602
H           -0.11862150987407       -1.26972060253263       -0.89797393458723

          :  Hamiltonian                  GFN2-xTB          :
         :: gradient norm              0.000031171943 Eh/a0 ::
         :: HOMO-LUMO gap              0.893400879210 eV    ::
         :: SCC energy               -71.530973033200 Eh    ::
         :: -> dispersion             -0.062747490273 Eh    ::
         :: -> Gsolv                  -0.030416368854 Eh    ::
         :: repulsion energy           1.251972931552 Eh    ::

    * Orbital Energies and Occupations

         #    Occupation            Energy/Eh            Energy/eV
      -------------------------------------------------------------
         1        2.0000           -0.7315148             -19.9055
       ...           ...                  ...                  ...
        55        2.0000           -0.4328662             -11.7789
        56        2.0000           -0.4282892             -11.6543
        57        2.0000           -0.4257973             -11.5865
        58        2.0000           -0.4226617             -11.5012
        59        2.0000           -0.4185795             -11.3901
        60        2.0000           -0.4110239             -11.1845
        61        2.0000           -0.4098192             -11.1517
        62        2.0000           -0.4027037             -10.9581
        63        2.0000           -0.4003436             -10.8939
        64        2.0000           -0.3885298             -10.5724
        65        1.9988           -0.3653244              -9.9410
        66        1.0012           -0.3524910              -9.5918
        67        1.0000           -0.2896811              -7.8826 (HOMO)
        68                         -0.2568493              -6.9892 (LUMO)
        69                         -0.2453184              -6.6755
        70                         -0.2424403              -6.5971
        71                         -0.2408598              -6.5541
        72                         -0.2271226              -6.1803
        73                         -0.2231902              -6.0733
        74                         -0.2047810              -5.5724
        75                         -0.2023014              -5.5049
        76                         -0.1788984              -4.8681
        77                         -0.1743568              -4.7445
        78                         -0.1610938              -4.3836
       ...                                ...                  ...
       138                          0.7087561              19.2862
      -------------------------------------------------------------
                  HL-Gap            0.0328318 Eh            0.8934 eV

     #   Z          covCN         q      C6AA      α(0)
     1   6 C        2.919    -0.029    28.726     8.789
     2   6 C        2.919    -0.029    28.720     8.788
     3   6 C        2.974    -0.036    28.882     8.815
     4   6 C        2.992     0.045    26.984     8.521
     5   6 C        2.993     0.043    27.028     8.528
     6   6 C        2.975    -0.036    28.880     8.815
     7  16 S        2.121    -0.130   146.509    20.372
     8   6 C        2.992     0.037    27.167     8.550
     9   6 C        2.969    -0.038    28.952     8.826
    10   6 C        2.922    -0.034    28.854     8.809
    11   6 C        2.972     0.016    27.647     8.625
    12   6 C        2.970    -0.011    28.292     8.725
    13   6 C        2.976     0.008    27.827     8.653
    14   6 C        2.919    -0.038    28.957     8.824
    15   6 C        2.914    -0.032    28.804     8.801
    16   6 C        2.912    -0.031    28.780     8.797
    17   6 C        2.922    -0.039    28.973     8.827
    18   6 C        2.976     0.012    27.735     8.639
    19   6 C        2.920    -0.050    29.250     8.869
    20   6 C        2.976     0.012    27.734     8.638
    21   6 C        2.922    -0.039    28.974     8.827
    22   6 C        2.912    -0.031    28.782     8.797
    23   6 C        2.914    -0.033    28.813     8.802
    24   6 C        2.919    -0.039    28.975     8.827
    25   6 C        2.976     0.008    27.825     8.653
    26   6 C        2.983    -0.043    29.060     8.843
    27   6 C        2.989     0.042    27.043     8.530
    28  16 S        2.126    -0.149   147.334    20.429
    29   1 H        0.926     0.053     2.279     2.361
    30   1 H        0.926     0.053     2.282     2.363
    31   1 H        0.926     0.053     2.280     2.361
    32   1 H        0.926     0.054     2.270     2.356
    33   1 H        0.926     0.051     2.310     2.377
    34   1 H        0.926     0.051     2.312     2.378
    35   1 H        0.926     0.030     2.587     2.515
    36   1 H        0.926     0.030     2.588     2.516
    37   1 H        0.926     0.031     2.571     2.508
    38   1 H        0.926     0.032     2.559     2.501
    39   1 H        0.926     0.032     2.561     2.503
    40   1 H        0.926     0.032     2.561     2.503
    41   1 H        0.926     0.031     2.573     2.508
    42   1 H        0.926     0.030     2.583     2.513
    43   1 H        0.926     0.031     2.568     2.506
    44   1 H        0.926     0.050     2.316     2.380

molecular dipole:
                 x           y           z       tot (Debye)
 q only:        0.432       0.494      -0.365
   full:        0.413       0.585      -0.447       2.145

 projected vibrational frequencies (cm⁻¹)
eigval :       -0.00    -0.00    -0.00    -0.00     0.00     0.00
eigval :       20.24    28.62    36.39    49.19    75.88    96.06
eigval :      113.69   130.74   151.99   167.85   192.38   206.95
eigval :      221.99   241.31   264.45   276.94   299.08   319.10
eigval :      330.10   374.59   379.03   387.37   389.30   401.88
eigval :      412.48   424.87   452.04   461.78   469.08   471.20
eigval :      493.82   507.94   518.58   559.77   577.84   588.97
eigval :      605.06   639.07   646.47   648.73   659.85   662.34
eigval :      675.93   708.08   719.10   731.45   744.60   745.62
eigval :      771.20   772.66   820.58   833.19   838.27   845.56
eigval :      874.12   874.51   877.37   883.29   899.38   903.52
eigval :      908.10   909.75   919.30   922.21   923.63   939.83
eigval :      983.56  1004.80  1087.55  1093.05  1095.12  1111.04
eigval :     1112.94  1129.51  1136.56  1146.60  1158.36  1170.59
eigval :     1172.45  1177.67  1178.68  1187.32  1225.48  1232.96
eigval :     1249.48  1253.18  1255.39  1272.56  1304.06  1312.77
eigval :     1317.65  1331.75  1369.23  1370.10  1380.24  1399.16
eigval :     1403.73  1410.16  1422.48  1425.43  1434.51  1473.01
eigval :     1488.59  1492.46  1517.91  1528.40  1535.54  1554.99
eigval :     1561.02  1564.03  3069.51  3070.19  3073.08  3074.52
eigval :     3075.86  3083.91  3084.75  3085.18  3086.95  3089.57
eigval :     3091.74  3093.02  3094.34  3096.22  3097.04  3104.30

   temp. (K)  partition function   enthalpy   heat capacity  entropy
                                   cal/mol     cal/K/mol   cal/K/mol   J/K/mol
 298.15  VIB  0.156E+09            12208.461     81.903     72.571
         ROT  0.196E+08              888.752      2.981     36.346
         INT  0.306E+16            13097.214     84.884    108.917
         TR   0.752E+28             1481.254      4.968     43.774
         TOT                       14578.4675    89.8518   152.6912   638.8602

       T/K    H(0)-H(T)+PV         H(T)/Eh          T*S/Eh         G(T)/Eh
   ------------------------------------------------------------------------
    298.15    0.232323E-01    0.345362E+00    0.725485E-01    0.272813E+00
   ------------------------------------------------------------------------

         :::::::::::::::::::::::::::::::::::::::::::::::::::::
         ::                  THERMODYNAMIC                  ::
         :::::::::::::::::::::::::::::::::::::::::::::::::::::
         :: total free energy         -70.006186922204 Eh   ::
         ::.................................................::
         :: total energy              -70.279000100589 Eh   ::
         :: zero point energy           0.322129449575 Eh   ::
         :: G(RRHO) w/o ZPVE           -0.049316271190 Eh   ::
         :: G(RRHO) contrib.            0.272813178385 Eh   ::
         :::::::::::::::::::::::::::::::::::::::::::::::::::::

           -------------------------------------------------
          | TOTAL ENERGY              -70.279000100589 Eh   |
          | TOTAL ENTHALPY            -69.933638384265 Eh   |
          | TOTAL FREE ENERGY         -70.006186922204 Eh   |
          | GRADIENT NORM               0.000031177676 Eh/α |
          | HOMO-LUMO GAP               0.893399605618 eV   |
           -------------------------------------------------

 * finished run on 2025/09/08 at 11:16:47.787
