   * xtb version 6.7.1 (edcfbbe) compiled by 'albert@albert-system' on 2024-07-22

   ID    Z sym.   atoms
    1    6 C      1-6, 8-27
    2   16 S      7, 28
    3    1 H      29-44

          program call               : xtb data2507/toluene/2-TA-AN/2-TA-AN_toluene_S0_crest.xyz --gfn 2 --gbsa toluene --ohess vtight --parallel 40 --molden --ceasefiles --namespace data2507/toluene/2-TA-AN/2-TA-AN_toluene_S0_finalOpt
      * Solvation model:               GBSA
        Solvent                        toluene
        Solvent mass                       9.2140E+01 g/mol
          :  Hamiltonian                  GFN2-xTB          :
 * total energy  :   -70.3494547 Eh     change       -0.6419754E-09 Eh
 * total energy  :   -70.3494728 Eh     change       -0.1814419E-04 Eh
 * total energy  :   -70.3494806 Eh     change       -0.7765839E-05 Eh
 * total energy  :   -70.3494836 Eh     change       -0.2961988E-05 Eh
 * total energy  :   -70.3494869 Eh     change       -0.3302854E-05 Eh
 * total energy  :   -70.3494897 Eh     change       -0.2880588E-05 Eh
 * total energy  :   -70.3494928 Eh     change       -0.3033800E-05 Eh
 * total energy  :   -70.3494959 Eh     change       -0.3093828E-05 Eh
 * total energy  :   -70.3494993 Eh     change       -0.3416275E-05 Eh
 * total energy  :   -70.3495037 Eh     change       -0.4437628E-05 Eh
 * total energy  :   -70.3495258 Eh     change       -0.4534387E-05 Eh
 * total energy  :   -70.3495301 Eh     change       -0.4360475E-05 Eh
 * total energy  :   -70.3495351 Eh     change       -0.4986115E-05 Eh
 * total energy  :   -70.3495405 Eh     change       -0.5370640E-05 Eh
 * total energy  :   -70.3495445 Eh     change       -0.4042524E-05 Eh
 * total energy  :   -70.3495468 Eh     change       -0.2227305E-05 Eh
 * total energy  :   -70.3495479 Eh     change       -0.1099569E-05 Eh
 * total energy  :   -70.3495484 Eh     change       -0.5884456E-06 Eh
 * total energy  :   -70.3495485 Eh     change       -0.7008296E-08 Eh
   *** GEOMETRY OPTIMIZATION CONVERGED AFTER 22 ITERATIONS ***

 final structure:
================
44
 xtb: 6.7.1 (edcfbbe)
C            6.36940534063369        1.16779321805274       -0.65604697421927
C            5.95615709412941        0.75079165635658       -1.91205194765803
C            4.79593719050651        0.01161713630158       -2.04784800615957
C            4.05168728277036       -0.33366896991677       -0.92699521682532
C            4.46538882829343        0.08462825070403        0.33066310177774
C            5.62057274179643        0.84494409068071        0.46009893691400
S            3.58575521045063       -0.34819449600077        1.81128227475282
C            1.90433660694294       -0.19272156337196        1.26321871577372
C            0.97564969697684        0.34072942910653        2.14801138823369
C           -0.35627577902290        0.42605408150199        1.79439607165936
C           -0.78292621528398       -0.00428090673529        0.53963885219412
C           -2.21242619487799        0.06346145179221        0.16606829693203
C           -2.95737899914009       -1.12163787979144        0.06423073544621
C           -2.39374559937650       -2.39963036863888        0.32033980543017
C           -3.14181745348005       -3.53268312434025        0.21682113111853
C           -4.50358939018445       -3.46390307907829       -0.14526931227452
C           -5.08613953713919       -2.25805460329632       -0.38564887984772
C           -4.34289687542413       -1.05321716621031       -0.28501574214497
C           -4.93181247008194        0.18711299037906       -0.51064433154801
C           -4.20172989491377        1.36732660141137       -0.40985540013028
C           -4.79962884628415        2.63356988862375       -0.64035989388644
C           -4.07121130661942        3.77957207365991       -0.55391608428534
C           -2.69736461095517        3.72308712169051       -0.23788244603246
C           -2.08786238718490        2.52796654211052       -0.00470748802122
C           -2.81347035202438        1.30909167603663       -0.07002613571375
C            0.15400620208787       -0.51038339073779       -0.35250995590926
C            1.48983304294122       -0.61498005681324        0.00719871516304
S            2.60877128870731       -1.34196576300107       -1.16525052688421
H            7.27332480830461        1.74641694661133       -0.54394170609114
H            6.53517829457395        1.00175700673860       -2.78743557548759
H            4.46001126863029       -0.32072847383878       -3.01835969917086
H            5.92741162761054        1.16136841645176        1.44554280255803
H            1.31055472578827        0.66696457081280        3.12095019919020
H           -1.07559507825278        0.82221615860245        2.49521537183384
H           -1.35358485908985       -2.46078387095272        0.60521237265090
H           -2.69709662238914       -4.49729950668688        0.41485416376359
H           -5.07592009651679       -4.37689318706796       -0.22334878754580
H           -6.13048143806022       -2.19223900482748       -0.65640672651078
H           -5.98053431600097        0.23482717063820       -0.76958776152932
H           -5.85093369970720        2.66339818104768       -0.88971041809157
H           -4.53332442577606        4.73998838389320       -0.73099639663558
H           -2.13108582133534        4.64183145812656       -0.18507805609269
H           -1.03409519287752        2.49166565443997        0.23032963816324
H           -0.15366682244199       -0.84267056826138       -1.33288490435991

          :  Hamiltonian                  GFN2-xTB          :
         :: gradient norm              0.000065553443 Eh/a0 ::
         :: HOMO-LUMO gap              2.117398375370 eV    ::
         :: SCC energy               -71.619528035424 Eh    ::
         :: -> dispersion             -0.062635773982 Eh    ::
         :: -> Gsolv                  -0.030821311196 Eh    ::
         :: repulsion energy           1.269979579053 Eh    ::

    * Orbital Energies and Occupations

         #    Occupation            Energy/Eh            Energy/eV
      -------------------------------------------------------------
         1        2.0000           -0.7275671             -19.7981
       ...           ...                  ...                  ...
        54        2.0000           -0.4341501             -11.8138
        55        2.0000           -0.4330163             -11.7830
        56        2.0000           -0.4279931             -11.6463
        57        2.0000           -0.4262580             -11.5991
        58        2.0000           -0.4227513             -11.5036
        59        2.0000           -0.4208257             -11.4512
        60        2.0000           -0.4114732             -11.1968
        61        2.0000           -0.4109841             -11.1834
        62        2.0000           -0.4077483             -11.0954
        63        2.0000           -0.4006711             -10.9028
        64        2.0000           -0.3858192             -10.4987
        65        2.0000           -0.3652464              -9.9389
        66        2.0000           -0.3603938              -9.8068 (HOMO)
        67                         -0.2825809              -7.6894 (LUMO)
        68                         -0.2553119              -6.9474
        69                         -0.2442067              -6.6452
        70                         -0.2428882              -6.6093
        71                         -0.2425423              -6.5999
        72                         -0.2328317              -6.3357
        73                         -0.2221846              -6.0460
        74                         -0.2021863              -5.5018
        75                         -0.2018238              -5.4919
        76                         -0.1784367              -4.8555
        77                         -0.1741165              -4.7380
       ...                                ...                  ...
       138                          0.7133877              19.4123
      -------------------------------------------------------------
                  HL-Gap            0.0778130 Eh            2.1174 eV

     #   Z          covCN         q      C6AA      α(0)
     1   6 C        2.920    -0.030    28.751     8.793
     2   6 C        2.920    -0.030    28.752     8.793
     3   6 C        2.971    -0.036    28.897     8.818
     4   6 C        2.994     0.045    26.984     8.521
     5   6 C        2.994     0.045    26.982     8.521
     6   6 C        2.972    -0.036    28.899     8.818
     7  16 S        2.120    -0.164   147.963    20.473
     8   6 C        2.994     0.042    27.053     8.532
     9   6 C        2.969    -0.037    28.927     8.822
    10   6 C        2.924    -0.034    28.848     8.808
    11   6 C        2.976     0.018    27.600     8.618
    12   6 C        2.976    -0.004    28.113     8.697
    13   6 C        2.984     0.007    27.852     8.657
    14   6 C        2.916    -0.034    28.856     8.809
    15   6 C        2.915    -0.030    28.741     8.791
    16   6 C        2.914    -0.030    28.740     8.791
    17   6 C        2.918    -0.035    28.880     8.813
    18   6 C        2.981     0.011    27.754     8.642
    19   6 C        2.922    -0.045    29.121     8.850
    20   6 C        2.981     0.011    27.756     8.642
    21   6 C        2.918    -0.035    28.877     8.812
    22   6 C        2.914    -0.030    28.744     8.792
    23   6 C        2.915    -0.030    28.748     8.792
    24   6 C        2.916    -0.035    28.864     8.810
    25   6 C        2.984     0.007    27.852     8.657
    26   6 C        2.977    -0.040    28.987     8.832
    27   6 C        2.993     0.044    27.008     8.525
    28  16 S        2.122    -0.163   147.953    20.472
    29   1 H        0.926     0.051     2.304     2.373
    30   1 H        0.926     0.051     2.304     2.374
    31   1 H        0.926     0.052     2.301     2.372
    32   1 H        0.926     0.052     2.298     2.370
    33   1 H        0.926     0.052     2.298     2.370
    34   1 H        0.926     0.049     2.335     2.390
    35   1 H        0.926     0.028     2.620     2.531
    36   1 H        0.926     0.031     2.567     2.506
    37   1 H        0.926     0.033     2.542     2.493
    38   1 H        0.926     0.035     2.514     2.479
    39   1 H        0.925     0.037     2.489     2.467
    40   1 H        0.926     0.035     2.517     2.481
    41   1 H        0.926     0.033     2.544     2.494
    42   1 H        0.926     0.031     2.565     2.505
    43   1 H        0.926     0.029     2.607     2.525
    44   1 H        0.926     0.049     2.329     2.387

molecular dipole:
                 x           y           z       tot (Debye)
 q only:       -0.340       0.675      -0.224
   full:       -0.308       0.808      -0.258       2.293

 projected vibrational frequencies (cm⁻¹)
eigval :       -0.00    -0.00    -0.00    -0.00     0.00     0.00
eigval :        9.18    21.66    40.35    45.25    74.33    99.48
eigval :      108.22   122.65   146.16   169.36   181.50   204.03
eigval :      211.91   245.18   256.51   285.64   300.91   322.90
eigval :      337.56   382.71   391.37   394.72   397.60   405.35
eigval :      416.07   448.84   454.20   458.64   463.07   487.06
eigval :      507.02   517.71   525.71   568.07   596.69   600.77
eigval :      612.10   640.29   644.92   648.67   665.04   669.95
eigval :      696.33   717.79   730.25   749.08   757.85   773.27
eigval :      773.91   824.24   841.24   850.07   869.96   874.76
eigval :      875.67   877.01   878.17   910.31   912.94   914.30
eigval :      916.02   918.98   920.88   925.39   927.20   939.54
eigval :      983.65  1012.94  1073.28  1075.29  1087.67  1114.88
eigval :     1132.02  1137.15  1146.21  1155.88  1158.47  1171.45
eigval :     1172.89  1180.71  1183.05  1208.88  1230.83  1233.94
eigval :     1236.57  1253.27  1294.23  1299.79  1307.09  1315.41
eigval :     1344.90  1350.16  1367.38  1395.45  1401.67  1414.82
eigval :     1426.76  1429.27  1439.05  1454.80  1481.30  1524.30
eigval :     1539.84  1540.65  1562.49  1565.09  1566.22  1569.84
eigval :     1606.39  1622.27  3064.96  3066.77  3067.98  3070.20
eigval :     3071.24  3079.81  3080.66  3086.31  3087.11  3087.65
eigval :     3089.08  3089.75  3090.52  3096.21  3098.06  3103.78

   temp. (K)  partition function   enthalpy   heat capacity  entropy
                                   cal/mol     cal/K/mol   cal/K/mol   J/K/mol
 298.15  VIB  0.434E+09            12112.595     80.683     73.085
         ROT  0.193E+08              888.752      2.981     36.321
         INT  0.839E+16            13001.347     83.664    109.407
         TR   0.752E+28             1481.254      4.968     43.774
         TOT                       14482.6009    88.6325   153.1808   640.9085

       T/K    H(0)-H(T)+PV         H(T)/Eh          T*S/Eh         G(T)/Eh
   ------------------------------------------------------------------------
    298.15    0.230795E-01    0.347839E+00    0.727812E-01    0.275058E+00
   ------------------------------------------------------------------------

         :::::::::::::::::::::::::::::::::::::::::::::::::::::
         ::                  THERMODYNAMIC                  ::
         :::::::::::::::::::::::::::::::::::::::::::::::::::::
         :: total free energy         -70.074490868929 Eh   ::
         ::.................................................::
         :: total energy              -70.349548456564 Eh   ::
         :: zero point energy           0.324759244455 Eh   ::
         :: G(RRHO) w/o ZPVE           -0.049701656820 Eh   ::
         :: G(RRHO) contrib.            0.275057587635 Eh   ::
         :::::::::::::::::::::::::::::::::::::::::::::::::::::

           -------------------------------------------------
          | TOTAL ENERGY              -70.349548456564 Eh   |
          | TOTAL ENTHALPY            -70.001709718547 Eh   |
          | TOTAL FREE ENERGY         -70.074490868929 Eh   |
          | GRADIENT NORM               0.000065555436 Eh/α |
          | HOMO-LUMO GAP               2.117398405957 eV   |
           -------------------------------------------------

 * finished run on 2025/09/08 at 11:15:38.464
