   * xtb version 6.7.1 (edcfbbe) compiled by 'albert@albert-system' on 2024-07-22

   ID    Z sym.   atoms
    1    6 C      1-6, 8-28
    2    5 B      7
    3    1 H      29-61

          program call               : xtb data2507/toluene/trimesitylboron/trimesitylboron.xyz --gfn 2 --gbsa toluene --ohess vtight --parallel 40 --molden --ceasefiles --namespace data2507/toluene/trimesitylboron/trimesitylboron_toluene_S0_preOpt
      * Solvation model:               GBSA
        Solvent                        toluene
        Solvent mass                       9.2140E+01 g/mol
          :  Hamiltonian                  GFN2-xTB          :
 * total energy  :   -75.8898543 Eh     change       -0.7066774E-08 Eh
 * total energy  :   -75.9172153 Eh     change       -0.2736102E-01 Eh
 * total energy  :   -75.9221233 Eh     change       -0.4907984E-02 Eh
 * total energy  :   -75.9225151 Eh     change       -0.3918120E-03 Eh
 * total energy  :   -75.9226740 Eh     change       -0.1589455E-03 Eh
 * total energy  :   -75.9227577 Eh     change       -0.8368425E-04 Eh
 * total energy  :   -75.9228281 Eh     change       -0.7037928E-04 Eh
 * total energy  :   -75.9228829 Eh     change       -0.5483478E-04 Eh
 * total energy  :   -75.9229592 Eh     change       -0.7623882E-04 Eh
 * total energy  :   -75.9230090 Eh     change       -0.4980420E-04 Eh
 * total energy  :   -75.9234365 Eh     change       -0.4694626E-06 Eh
 * total energy  :   -75.9234368 Eh     change       -0.3372747E-06 Eh
 * total energy  :   -75.9234372 Eh     change       -0.3736098E-06 Eh
 * total energy  :   -75.9234377 Eh     change       -0.4448480E-06 Eh
 * total energy  :   -75.9234382 Eh     change       -0.5030221E-06 Eh
 * total energy  :   -75.9234387 Eh     change       -0.4884157E-06 Eh
 * total energy  :   -75.9234390 Eh     change       -0.3353696E-06 Eh
 * total energy  :   -75.9234392 Eh     change       -0.1658688E-06 Eh
 * total energy  :   -75.9234392 Eh     change       -0.4899732E-08 Eh
   *** GEOMETRY OPTIMIZATION CONVERGED AFTER 44 ITERATIONS ***

 final structure:
================
61
 xtb: 6.7.1 (edcfbbe)
C           -2.38206175338774       -5.39873019708904       -0.02112792946485
C           -1.78736197647650       -4.02265622733208        0.00200062082409
C           -2.20326076634999       -3.05428668219633       -0.90032786594315
C           -1.65649060993302       -1.78058212348953       -0.90481779915968
C           -2.17440981187568       -0.79134634550505       -1.91101314404825
C           -0.64149622784048       -1.43452358841284        0.00513875747590
B           -0.00138305380055        0.00263994080027        0.00418580163272
C            1.56348773818450        0.16571595830546        0.01026760929505
C            2.20186922722426        1.03248270249646        0.91439446658956
C            1.41716248941130        1.83748970093209        1.91209065685489
C            3.58247817395902        1.16329842794961        0.91141581265042
C            4.37791489600920        0.46540733139053        0.01560571108054
C            5.87030055880945        0.60764304799524        0.03089434115764
C            3.75067055472399       -0.38640605409945       -0.88132332876331
C            2.37367974284683       -0.54869571362474       -0.88982255846605
C            1.77931799492506       -1.49825229258345       -1.89206301633993
C           -0.92477553422166        1.27630212000231       -0.00544813992362
C           -1.99923496691777        1.40364803573681        0.89332161260960
C           -2.30843728079127        0.32913640322775        1.89787810328515
C           -2.79939237310212        2.53509975080867        0.87946907285891
C           -2.58532486850998        3.56828076772441       -0.02189145323520
C           -3.48016781062804        4.77116440826867       -0.03339622494216
C           -1.53264710430300        3.44188980899150       -0.91408514842781
C           -0.70587336633399        2.32767870052070       -0.91184533825258
C            0.41859015186962        2.28052378061540       -1.90814268345337
C           -0.21822745088254       -2.41948103453495        0.91392245596603
C            0.85945079294786       -2.14031531728286        1.92377244059883
C           -0.79408964393615       -3.68148863719642        0.90643418440979
H           -2.20566650237686       -5.91557733531774        0.91958713855302
H           -3.45422807415566       -5.35348482720836       -0.20420831870203
H           -1.93103281555801       -5.98623784315212       -0.82238774485532
H           -2.97803611055458       -3.30042931235353       -1.61478848934045
H           -1.36493678582701       -0.24497565747496       -2.38737155633787
H           -2.81977691044928       -0.06118435495435       -1.42414403750748
H           -2.75302164300441       -1.29735151633376       -2.68154428866688
H            0.92348793180399        2.67321915468826        1.41763357827493
H            0.64614802234938        1.23925739784365        2.38990492983087
H            2.07418097640594        2.23728159306575        2.68219784437392
H            4.05148651362166        1.83180002306436        1.62165874737379
H            6.16427811308586        1.57696070844769        0.42812523205693
H            6.31184906849582       -0.16466394879100        0.66295402225819
H            6.28098057644242        0.49600500131017       -0.97066192569975
H            4.35279457498612       -0.94015484672723       -1.58989754669350
H            1.46900385041977       -2.41963807444516       -1.40071346000530
H            0.90251298510314       -1.07379486729272       -2.37337263153983
H            2.50904368585890       -1.75056580896967       -2.65914114154049
H           -1.40728395735464       -0.03223461472250        2.38577993700261
H           -2.77853592763796       -0.52226670140859        1.40721274593269
H           -2.99021338012004        0.70255794272876        2.65964716652929
H           -3.61536187481461        2.61551288121303        1.58581025405254
H           -4.44648492756975        4.51527905735760       -0.47028898626717
H           -3.65764996877266        5.12836123360786        0.97991183448588
H           -3.04293159761378        5.57662980790212       -0.61916274073588
H           -1.34762071211624        4.23452812740814       -1.62738101832353
H            1.36831999295262        2.48354933525347       -1.41459679420737
H            0.49673514015214        1.30350003564276       -2.37696406518445
H            0.27228113769137        3.02841936910377       -2.68523065588100
H            1.83560228003340       -2.13067509675965        1.44032734300734
H            0.86886743849569       -2.90826089687735        2.69494836297393
H            0.72083719828358       -1.17307194023311        2.39896585435445
H           -0.45591901986079       -4.41992369803096        1.62170139355835

          :  Hamiltonian                  GFN2-xTB          :
         :: gradient norm              0.000039650880 Eh/a0 ::
         :: HOMO-LUMO gap              2.743045250169 eV    ::
         :: SCC energy               -77.270302755800 Eh    ::
         :: -> dispersion             -0.074975632772 Eh    ::
         :: -> Gsolv                  -0.026894167516 Eh    ::
         :: repulsion energy           1.346863592699 Eh    ::

    * Orbital Energies and Occupations

         #    Occupation            Energy/Eh            Energy/eV
      -------------------------------------------------------------
         1        2.0000           -0.6324951             -17.2111
       ...           ...                  ...                  ...
        60        2.0000           -0.4307712             -11.7219
        61        2.0000           -0.4143492             -11.2750
        62        2.0000           -0.4109084             -11.1814
        63        2.0000           -0.4102460             -11.1634
        64        2.0000           -0.4101218             -11.1600
        65        2.0000           -0.3926456             -10.6844
        66        2.0000           -0.3924253             -10.6784
        67        2.0000           -0.3789359             -10.3114
        68        2.0000           -0.3781838             -10.2909
        69        2.0000           -0.3781076             -10.2888
        70        2.0000           -0.3760378             -10.2325
        71        2.0000           -0.3622377              -9.8570
        72        2.0000           -0.3620907              -9.8530 (HOMO)
        73                         -0.2612856              -7.1099 (LUMO)
        74                         -0.2076371              -5.6501
        75                         -0.2073351              -5.6419
        76                         -0.2036850              -5.5426
        77                         -0.2033904              -5.5345
        78                         -0.2016322              -5.4867
        79                         -0.1616165              -4.3978
        80                         -0.0828465              -2.2544
        81                         -0.0827804              -2.2526
        82                         -0.0611170              -1.6631
        83                          0.0888239               2.4170
       ...                                ...                  ...
       145                          0.6636579              18.0591
      -------------------------------------------------------------
                  HL-Gap            0.1008051 Eh            2.7430 eV

     #   Z          covCN         q      C6AA      α(0)
     1   6 C        3.757    -0.106    22.580     6.775
     2   6 C        2.962     0.010    27.802     8.649
     3   6 C        2.929    -0.058    29.453     8.900
     4   6 C        2.966     0.011    27.767     8.643
     5   6 C        3.759    -0.108    22.606     6.778
     6   6 C        2.888    -0.079    29.982     8.977
     7   5 B        2.707     0.255    17.641     7.045
     8   6 C        2.888    -0.079    29.983     8.977
     9   6 C        2.966     0.011    27.765     8.643
    10   6 C        3.759    -0.107    22.604     6.778
    11   6 C        2.929    -0.058    29.447     8.899
    12   6 C        2.962     0.010    27.802     8.649
    13   6 C        3.757    -0.106    22.580     6.775
    14   6 C        2.929    -0.058    29.450     8.900
    15   6 C        2.966     0.011    27.767     8.643
    16   6 C        3.759    -0.107    22.604     6.778
    17   6 C        2.888    -0.079    29.983     8.977
    18   6 C        2.966     0.011    27.766     8.643
    19   6 C        3.759    -0.108    22.606     6.778
    20   6 C        2.929    -0.059    29.455     8.901
    21   6 C        2.962     0.010    27.802     8.649
    22   6 C        3.757    -0.106    22.581     6.775
    23   6 C        2.929    -0.058    29.442     8.899
    24   6 C        2.966     0.011    27.766     8.643
    25   6 C        3.759    -0.107    22.604     6.778
    26   6 C        2.966     0.011    27.766     8.643
    27   6 C        3.759    -0.107    22.603     6.778
    28   6 C        2.929    -0.058    29.444     8.899
    29   1 H        0.925     0.038     2.472     2.459
    30   1 H        0.925     0.040     2.443     2.444
    31   1 H        0.924     0.044     2.399     2.422
    32   1 H        0.925     0.020     2.736     2.587
    33   1 H        0.925     0.037     2.483     2.464
    34   1 H        0.925     0.046     2.370     2.408
    35   1 H        0.925     0.036     2.503     2.474
    36   1 H        0.925     0.046     2.369     2.407
    37   1 H        0.925     0.037     2.485     2.465
    38   1 H        0.925     0.036     2.503     2.474
    39   1 H        0.925     0.019     2.741     2.589
    40   1 H        0.925     0.039     2.463     2.454
    41   1 H        0.924     0.044     2.398     2.422
    42   1 H        0.925     0.040     2.454     2.450
    43   1 H        0.925     0.020     2.739     2.588
    44   1 H        0.925     0.046     2.371     2.408
    45   1 H        0.925     0.037     2.484     2.465
    46   1 H        0.925     0.036     2.504     2.475
    47   1 H        0.925     0.037     2.484     2.465
    48   1 H        0.925     0.046     2.368     2.407
    49   1 H        0.925     0.036     2.503     2.474
    50   1 H        0.925     0.020     2.734     2.586
    51   1 H        0.924     0.044     2.403     2.424
    52   1 H        0.925     0.041     2.434     2.440
    53   1 H        0.925     0.038     2.478     2.462
    54   1 H        0.925     0.019     2.746     2.591
    55   1 H        0.925     0.046     2.370     2.407
    56   1 H        0.925     0.037     2.483     2.464
    57   1 H        0.925     0.036     2.504     2.474
    58   1 H        0.925     0.046     2.370     2.407
    59   1 H        0.925     0.036     2.504     2.475
    60   1 H        0.925     0.037     2.484     2.465
    61   1 H        0.925     0.019     2.745     2.591

molecular dipole:
                 x           y           z       tot (Debye)
 q only:       -0.008      -0.019      -0.004
   full:       -0.009      -0.034      -0.008       0.093

 projected vibrational frequencies (cm⁻¹)
eigval :       -0.00     0.00     0.00     0.00     0.00     0.00
eigval :       27.03    28.70    37.82    42.02    42.83    51.22
eigval :       56.66    65.74    70.22    78.96    86.78    91.24
eigval :       98.66   100.50   104.72   117.60   119.25   119.97
eigval :      161.49   161.95   180.40   181.29   185.48   185.82
eigval :      201.96   203.36   205.20   275.92   277.20   278.23
eigval :      310.81   313.33   313.45   331.29   337.91   339.31
eigval :      459.45   468.04   470.30   493.66   496.11   500.27
eigval :      500.89   501.59   504.38   512.14   512.63   520.94
eigval :      546.47   549.53   584.86   598.30   598.69   602.50
eigval :      605.99   677.96   678.30   685.90   835.77   837.93
eigval :      841.67   869.76   870.30   886.87   887.81   891.90
eigval :      961.13   962.46   962.95   977.67   978.09   978.64
eigval :     1012.63  1017.35  1018.03  1024.64  1025.81  1026.03
eigval :     1028.10  1029.26  1030.02  1031.07  1032.36  1033.26
eigval :     1037.91  1038.23  1040.15  1043.76  1044.77  1045.35
eigval :     1083.74  1154.81  1155.20  1204.50  1217.43  1217.70
eigval :     1237.46  1237.74  1238.06  1304.44  1304.93  1305.46
eigval :     1328.28  1328.69  1331.54  1401.32  1401.78  1402.19
eigval :     1402.49  1403.05  1404.15  1406.96  1407.42  1410.15
eigval :     1426.69  1426.90  1428.00  1448.09  1448.27  1456.62
eigval :     1474.52  1474.69  1476.50  1476.73  1480.04  1480.18
eigval :     1481.10  1482.26  1482.96  1483.31  1484.53  1485.13
eigval :     1487.37  1489.99  1490.12  1490.58  1493.48  1493.74
eigval :     1557.94  1558.02  1558.23  1598.63  1598.81  1601.52
eigval :     2985.74  2986.72  2988.64  3007.36  3007.69  3008.16
eigval :     3008.37  3008.75  3009.40  3018.04  3020.99  3023.74
eigval :     3024.16  3024.43  3024.62  3024.89  3025.51  3026.95
eigval :     3030.18  3032.73  3034.36  3041.86  3042.06  3042.16
eigval :     3042.86  3043.31  3044.31  3049.99  3050.13  3050.17
eigval :     3053.22  3053.63  3054.71

   temp. (K)  partition function   enthalpy   heat capacity  entropy
                                   cal/mol     cal/K/mol   cal/K/mol   J/K/mol
 298.15  VIB  0.141E+15            18304.605    105.504    117.840
         ROT  0.140E+08              888.752      2.981     35.675
         INT  0.196E+22            19193.357    108.485    153.515
         TR   0.684E+28             1481.254      4.968     43.585
         TOT                       20674.6113   113.4534   197.0999   824.6658

       T/K    H(0)-H(T)+PV         H(T)/Eh          T*S/Eh         G(T)/Eh
   ------------------------------------------------------------------------
    298.15    0.329471E-01    0.545875E+00    0.936485E-01    0.452226E+00
   ------------------------------------------------------------------------

         :::::::::::::::::::::::::::::::::::::::::::::::::::::
         ::                  THERMODYNAMIC                  ::
         :::::::::::::::::::::::::::::::::::::::::::::::::::::
         :: total free energy         -75.471213054199 Eh   ::
         ::.................................................::
         :: total energy              -75.923439161083 Eh   ::
         :: zero point energy           0.512927521192 Eh   ::
         :: G(RRHO) w/o ZPVE           -0.060701414308 Eh   ::
         :: G(RRHO) contrib.            0.452226106884 Eh   ::
         :::::::::::::::::::::::::::::::::::::::::::::::::::::

           -------------------------------------------------
          | TOTAL ENERGY              -75.923439161083 Eh   |
          | TOTAL ENTHALPY            -75.377564549633 Eh   |
          | TOTAL FREE ENERGY         -75.471213054199 Eh   |
          | GRADIENT NORM               0.000039659342 Eh/α |
          | HOMO-LUMO GAP               2.743045970296 eV   |
           -------------------------------------------------

 * finished run on 2025/09/10 at 04:58:09.021
