   * xtb version 6.7.1 (edcfbbe) compiled by 'albert@albert-system' on 2024-07-22

   ID    Z sym.   atoms
    1    6 C      1-6, 8-28
    2    5 B      7
    3    1 H      29-61

          program call               : xtb data2507/toluene/trimesitylboron/trimesitylboron_toluene_S0_finalOpt.xtbopt.xyz --gfn 2 --uhf 2 --gbsa toluene --ohess vtight --parallel 40 --molden --ceasefiles --namespace data2507/toluene/trimesitylboron/trimesitylboron_toluene_T1_preOpt
      * Solvation model:               GBSA
        Solvent                        toluene
        Solvent mass                       9.2140E+01 g/mol
          :  Hamiltonian                  GFN2-xTB          :
 * total energy  :   -75.8172182 Eh     change       -0.3746919E-08 Eh
 * total energy  :   -75.8191764 Eh     change       -0.1958281E-02 Eh
 * total energy  :   -75.8198726 Eh     change       -0.6961499E-03 Eh
 * total energy  :   -75.8201653 Eh     change       -0.2926729E-03 Eh
 * total energy  :   -75.8207438 Eh     change       -0.5785557E-03 Eh
 * total energy  :   -75.8210331 Eh     change       -0.2893083E-03 Eh
 * total energy  :   -75.8215749 Eh     change       -0.5417289E-03 Eh
 * total energy  :   -75.8218311 Eh     change       -0.2562867E-03 Eh
 * total energy  :   -75.8221505 Eh     change       -0.3193039E-03 Eh
 * total energy  :   -75.8222727 Eh     change       -0.1222709E-03 Eh
 * total energy  :   -75.8227185 Eh     change       -0.6218880E-06 Eh
 * total energy  :   -75.8227188 Eh     change       -0.2989610E-06 Eh
 * total energy  :   -75.8227190 Eh     change       -0.1953658E-06 Eh
 * total energy  :   -75.8227193 Eh     change       -0.3099490E-06 Eh
 * total energy  :   -75.8227197 Eh     change       -0.3567224E-06 Eh
 * total energy  :   -75.8227200 Eh     change       -0.3932115E-06 Eh
 * total energy  :   -75.8227204 Eh     change       -0.3703188E-06 Eh
 * total energy  :   -75.8227207 Eh     change       -0.2900389E-06 Eh
 * total energy  :   -75.8227207 Eh     change       -0.8267605E-08 Eh
   *** GEOMETRY OPTIMIZATION CONVERGED AFTER 44 ITERATIONS ***

 final structure:
================
61
 xtb: 6.7.1 (edcfbbe)
C           -5.60864661207494       -1.82094183319039       -0.00289090480845
C           -4.18220552979152       -1.37219199883210       -0.01845023141907
C           -3.22655980179217       -1.98701761492214        0.79455861602370
C           -1.91383182093153       -1.57452655382663        0.81719035196212
C           -0.95587570058651       -2.25711240218387        1.74413518121353
C           -1.46632892159545       -0.49263041014148       -0.01029976782684
B           -0.01007389283698       -0.00818048680676        0.00005283716901
C            0.37581152398029        1.51156444614446        0.00509590384740
C            1.35983515225551        2.06412189789456       -0.84520961126223
C            2.18332958994503        1.20944100649842       -1.76251848470176
C            1.53003155839807        3.43476836842049       -0.90330099871332
C            0.79787249453262        4.30691385242836       -0.10028816306661
C            1.01296774159261        5.78780976201351       -0.17456548862144
C           -0.13459924641032        3.75881993696401        0.77213448793240
C           -0.33292336415287        2.39325365401015        0.86414901194032
C           -1.31162816612913        1.87263190097822        1.87163646623214
C            1.20841952892771       -0.99835994228414        0.00537730895126
C            1.17941875720034       -2.12342824173984       -0.85914241488429
C            0.09469616521972       -2.29062963961484       -1.87899984333103
C            2.16012859525945       -3.09429249192301       -0.76503976624649
C            3.22786308428944       -2.97440241251565        0.11601318949790
C            4.29198009773824       -4.02692318883654        0.18963479240187
C            3.27941140943182       -1.84329466211139        0.92686017190827
C            2.31659843332434       -0.85225967556533        0.86804433449182
C            2.44893544151598        0.31812032468284        1.79716545566797
C           -2.45837864920864        0.11880671860931       -0.84618173607678
C           -2.07596962536877        1.22875035075753       -1.77556874679795
C           -3.76545485386149       -0.31321499424273       -0.82704123562974
H           -6.14695798775405       -1.33244590780701        0.81256695326395
H           -6.10809803779780       -1.56420422439113       -0.93508871451451
H           -5.67625856611916       -2.89642995378295        0.15281173859486
H           -3.53727729437871       -2.80544404024768        1.43155318678955
H           -1.48939555387793       -2.87931434804972        2.46011832105225
H           -0.35672409132208       -1.52510237179833        2.28240331327558
H           -0.26261116735827       -2.88942089007998        1.18889671882227
H            2.56927254559386        1.79910369931134       -2.59227855629409
H            3.03130542618987        0.77351445552729       -1.23475949835478
H            1.58918121552104        0.38834810244148       -2.15631537549071
H            2.25669403301908        3.84508824977658       -1.59256891911729
H            0.35771266861259        6.22282573228837       -0.93213513628737
H            0.78527944670758        6.26258131619128        0.77790156791310
H            2.04067626237559        6.01857366361945       -0.44849591617715
H           -0.69936539892240        4.41657210428985        1.42024577909859
H           -2.21325959136999        1.50980069589000        1.37672680889719
H           -0.89160741812482        1.03457835460861        2.42560840703676
H           -1.59749116138238        2.65377861959892        2.57329863004818
H           -0.85064122946779       -2.53943332038610       -1.39565689213019
H            0.34078192897691       -3.08682737628429       -2.57883251008036
H           -0.06258823588774       -1.36723598909622       -2.43421583949562
H            2.11139162395942       -3.95570610858932       -1.41871995645140
H            5.24077201811183       -3.59980281982434        0.50838493005016
H            4.00877081728568       -4.79470621274533        0.91262832095732
H            4.42792804598930       -4.51061468819222       -0.77588212953090
H            4.10059199903990       -1.73675914945311        1.62384458625019
H            3.10405058430707        0.07294276155482        2.63137222086451
H            2.86782052935668        1.18201983076416        1.28148911787179
H            1.47609417100686        0.61133353340402        2.18430796380043
H           -1.15530622504653        0.98695448542790       -2.30325278858574
H           -1.89319403962868        2.15082467792844       -1.22292882764339
H           -2.86623059270479        1.41444960437562       -2.50042531065532
H           -4.49287182413555        0.16871854171362       -1.46805859842331

          :  Hamiltonian                  GFN2-xTB          :
         :: gradient norm              0.000057101974 Eh/a0 ::
         :: HOMO-LUMO gap              1.139180723399 eV    ::
         :: SCC energy               -77.156867023242 Eh    ::
         :: -> dispersion             -0.075474533937 Eh    ::
         :: -> Gsolv                  -0.026675808574 Eh    ::
         :: repulsion energy           1.334146302524 Eh    ::

    * Orbital Energies and Occupations

         #    Occupation            Energy/Eh            Energy/eV
      -------------------------------------------------------------
         1        2.0000           -0.6310576             -17.1720
       ...           ...                  ...                  ...
        61        2.0000           -0.4130744             -11.2403
        62        2.0000           -0.4099236             -11.1546
        63        2.0000           -0.4092612             -11.1366
        64        2.0000           -0.4077977             -11.0967
        65        2.0000           -0.3868056             -10.5255
        66        2.0000           -0.3865631             -10.5189
        67        2.0000           -0.3793534             -10.3227
        68        2.0000           -0.3789138             -10.3108
        69        2.0000           -0.3737905             -10.1714
        70        2.0000           -0.3736624             -10.1679
        71        1.9983           -0.3629392              -9.8761
        72        1.0017           -0.3507806              -9.5452
        73        1.0000           -0.2532224              -6.8905 (HOMO)
        74                         -0.2113584              -5.7514 (LUMO)
        75                         -0.2081798              -5.6649
        76                         -0.2030920              -5.5264
        77                         -0.2006842              -5.4609
        78                         -0.1976781              -5.3791
        79                         -0.1484999              -4.0409
        80                         -0.0862398              -2.3467
        81                         -0.0820913              -2.2338
        82                         -0.0563577              -1.5336
        83                          0.0921182               2.5067
        84                          0.0961242               2.6157
       ...                                ...                  ...
       145                          0.6624006              18.0248
      -------------------------------------------------------------
                  HL-Gap            0.0418640 Eh            1.1392 eV

     #   Z          covCN         q      C6AA      α(0)
     1   6 C        3.757    -0.105    22.554     6.771
     2   6 C        2.961     0.007    27.872     8.659
     3   6 C        2.922    -0.058    29.433     8.897
     4   6 C        2.960     0.008    27.846     8.655
     5   6 C        3.759    -0.109    22.638     6.783
     6   6 C        2.884    -0.067    29.661     8.929
     7   5 B        2.712     0.172    18.825     7.275
     8   6 C        2.888    -0.053    29.306     8.875
     9   6 C        2.961     0.007    27.858     8.657
    10   6 C        3.759    -0.107    22.598     6.777
    11   6 C        2.928    -0.056    29.387     8.890
    12   6 C        2.961     0.002    27.982     8.677
    13   6 C        3.757    -0.104    22.542     6.769
    14   6 C        2.926    -0.058    29.431     8.897
    15   6 C        2.963     0.008    27.839     8.654
    16   6 C        3.758    -0.107    22.589     6.776
    17   6 C        2.888    -0.053    29.303     8.875
    18   6 C        2.963     0.008    27.844     8.655
    19   6 C        3.758    -0.107    22.588     6.776
    20   6 C        2.927    -0.058    29.433     8.897
    21   6 C        2.961     0.001    27.994     8.678
    22   6 C        3.757    -0.104    22.540     6.769
    23   6 C        2.928    -0.056    29.387     8.890
    24   6 C        2.961     0.007    27.866     8.659
    25   6 C        3.759    -0.107    22.595     6.777
    26   6 C        2.961     0.008    27.845     8.655
    27   6 C        3.759    -0.109    22.636     6.783
    28   6 C        2.922    -0.058    29.431     8.896
    29   1 H        0.924     0.046     2.369     2.407
    30   1 H        0.925     0.039     2.457     2.451
    31   1 H        0.925     0.041     2.442     2.444
    32   1 H        0.925     0.017     2.781     2.608
    33   1 H        0.925     0.035     2.518     2.482
    34   1 H        0.925     0.044     2.394     2.419
    35   1 H        0.924     0.049     2.333     2.389
    36   1 H        0.925     0.035     2.522     2.484
    37   1 H        0.925     0.044     2.402     2.424
    38   1 H        0.925     0.047     2.360     2.402
    39   1 H        0.925     0.020     2.736     2.587
    40   1 H        0.924     0.044     2.397     2.421
    41   1 H        0.925     0.038     2.470     2.458
    42   1 H        0.925     0.039     2.466     2.456
    43   1 H        0.925     0.020     2.733     2.585
    44   1 H        0.924     0.052     2.292     2.367
    45   1 H        0.925     0.040     2.443     2.444
    46   1 H        0.925     0.037     2.482     2.464
    47   1 H        0.924     0.052     2.293     2.368
    48   1 H        0.925     0.037     2.485     2.465
    49   1 H        0.925     0.040     2.445     2.445
    50   1 H        0.925     0.020     2.734     2.586
    51   1 H        0.925     0.038     2.473     2.459
    52   1 H        0.924     0.044     2.402     2.424
    53   1 H        0.925     0.038     2.470     2.458
    54   1 H        0.925     0.020     2.739     2.588
    55   1 H        0.925     0.035     2.523     2.484
    56   1 H        0.925     0.043     2.405     2.425
    57   1 H        0.925     0.046     2.364     2.404
    58   1 H        0.925     0.044     2.394     2.420
    59   1 H        0.924     0.049     2.328     2.386
    60   1 H        0.925     0.035     2.516     2.480
    61   1 H        0.925     0.017     2.786     2.610

molecular dipole:
                 x           y           z       tot (Debye)
 q only:       -0.064       0.007       0.011
   full:       -0.095       0.007       0.019       0.248

 projected vibrational frequencies (cm⁻¹)
eigval :       -0.00    -0.00    -0.00     0.00     0.00     0.00
eigval :      -28.87    30.34    34.22    40.62    45.16    52.00
eigval :       52.37    79.11    85.34    99.32   109.01   114.53
eigval :      128.50   134.04   137.02   147.86   153.73   162.53
eigval :      168.83   172.77   186.12   186.50   192.96   194.67
eigval :      206.33   207.68   210.46   270.61   275.30   276.47
eigval :      297.01   310.72   314.60   320.95   324.78   340.49
eigval :      430.03   453.75   464.49   476.37   478.13   483.52
eigval :      489.22   492.57   493.38   502.88   505.17   512.29
eigval :      516.56   528.76   556.25   579.57   589.76   592.78
eigval :      599.48   645.53   654.16   659.29   827.88   834.84
eigval :      838.27   846.97   849.53   864.22   868.91   881.84
eigval :      912.46   954.33   959.54   963.07   970.37   972.05
eigval :      972.41  1006.10  1011.76  1013.82  1016.08  1018.73
eigval :     1020.71  1021.68  1022.71  1025.77  1026.46  1027.17
eigval :     1027.78  1028.62  1034.35  1035.43  1038.05  1041.25
eigval :     1045.49  1066.34  1161.26  1181.10  1191.98  1203.50
eigval :     1220.70  1230.78  1232.36  1257.33  1272.43  1313.70
eigval :     1314.93  1321.27  1324.72  1382.85  1389.66  1395.18
eigval :     1398.49  1398.91  1399.43  1400.83  1403.21  1403.72
eigval :     1407.55  1407.92  1408.81  1420.33  1422.22  1422.67
eigval :     1447.40  1458.89  1460.00  1464.51  1466.46  1467.23
eigval :     1472.21  1473.89  1475.64  1476.89  1479.45  1480.00
eigval :     1480.69  1481.57  1484.10  1485.01  1486.18  1487.17
eigval :     1491.75  1493.10  1494.32  1539.56  1544.63  1569.94
eigval :     2967.53  2972.21  2973.26  2984.99  2986.00  2987.66
eigval :     2989.87  2996.27  2996.83  3011.17  3012.00  3018.35
eigval :     3018.61  3019.38  3020.00  3020.92  3022.93  3023.00
eigval :     3023.45  3023.65  3024.08  3024.18  3025.49  3025.69
eigval :     3025.86  3034.62  3035.11  3044.57  3046.08  3046.74
eigval :     3047.62  3050.09  3051.42

   temp. (K)  partition function   enthalpy   heat capacity  entropy
                                   cal/mol     cal/K/mol   cal/K/mol   J/K/mol
 298.15  VIB  0.255E+13            17596.872    106.305    109.609
         ROT  0.138E+08              888.752      2.981     35.655
         INT  0.353E+20            18485.625    109.286    145.265
         TR   0.684E+28             1481.254      4.968     43.585
         TOT                       19966.8787   114.2537   188.8496   790.1465

       T/K    H(0)-H(T)+PV         H(T)/Eh          T*S/Eh         G(T)/Eh
   ------------------------------------------------------------------------
    298.15    0.318192E-01    0.540557E+00    0.897285E-01    0.450828E+00
   ------------------------------------------------------------------------

         :::::::::::::::::::::::::::::::::::::::::::::::::::::
         ::                  THERMODYNAMIC                  ::
         :::::::::::::::::::::::::::::::::::::::::::::::::::::
         :: total free energy         -75.371892521821 Eh   ::
         ::.................................................::
         :: total energy              -75.822720719860 Eh   ::
         :: zero point energy           0.508737467527 Eh   ::
         :: G(RRHO) w/o ZPVE           -0.057909269488 Eh   ::
         :: G(RRHO) contrib.            0.450828198039 Eh   ::
         :::::::::::::::::::::::::::::::::::::::::::::::::::::

           -------------------------------------------------
          | TOTAL ENERGY              -75.822720719860 Eh   |
          | TOTAL ENTHALPY            -75.282164005748 Eh   |
          | TOTAL FREE ENERGY         -75.371892521821 Eh   |
          | GRADIENT NORM               0.000057133078 Eh/α |
          | HOMO-LUMO GAP               1.139177285535 eV   |
           -------------------------------------------------

 * finished run on 2025/09/10 at 05:01:01.314
