   * xtb version 6.7.1 (edcfbbe) compiled by 'albert@albert-system' on 2024-07-22

   ID    Z sym.   atoms
    1    6 C      1-6, 8-28
    2    5 B      7
    3    1 H      29-61

          program call               : xtb data2507/toluene/trimesitylboron/trimesitylboron_toluene_T1_crest.xyz --gfn 2 --uhf 2 --gbsa toluene --ohess vtight --parallel 40 --molden --ceasefiles --namespace data2507/toluene/trimesitylboron/trimesitylboron_toluene_T1_finalOpt
      * Solvation model:               GBSA
        Solvent                        toluene
        Solvent mass                       9.2140E+01 g/mol
          :  Hamiltonian                  GFN2-xTB          :
 * total energy  :   -75.8223297 Eh     change       -0.9128854E-08 Eh
 * total energy  :   -75.8225497 Eh     change       -0.2199584E-03 Eh
 * total energy  :   -75.8226433 Eh     change       -0.9365057E-04 Eh
 * total energy  :   -75.8226617 Eh     change       -0.1833111E-04 Eh
 * total energy  :   -75.8226738 Eh     change       -0.1208543E-04 Eh
 * total energy  :   -75.8226814 Eh     change       -0.7696055E-05 Eh
 * total energy  :   -75.8226978 Eh     change       -0.1638019E-04 Eh
 * total energy  :   -75.8227008 Eh     change       -0.2933053E-05 Eh
 * total energy  :   -75.8227020 Eh     change       -0.1240349E-05 Eh
 * total energy  :   -75.8227035 Eh     change       -0.1458034E-05 Eh
 * total energy  :   -75.8227068 Eh     change       -0.3567507E-06 Eh
 * total energy  :   -75.8227070 Eh     change       -0.2013383E-06 Eh
 * total energy  :   -75.8227072 Eh     change       -0.2137039E-06 Eh
 * total energy  :   -75.8227075 Eh     change       -0.2272237E-06 Eh
 * total energy  :   -75.8227077 Eh     change       -0.2702591E-06 Eh
 * total energy  :   -75.8227081 Eh     change       -0.3133087E-06 Eh
 * total energy  :   -75.8227084 Eh     change       -0.3503264E-06 Eh
 * total energy  :   -75.8227086 Eh     change       -0.1908203E-06 Eh
 * total energy  :   -75.8227086 Eh     change       -0.3777174E-08 Eh
   *** GEOMETRY OPTIMIZATION CONVERGED AFTER 22 ITERATIONS ***

 final structure:
================
61
 xtb: 6.7.1 (edcfbbe)
C            5.18352008272858       -2.77728788385875       -0.02178871543993
C            3.85050287974935       -2.09379493499700        0.01147834608249
C            3.59562288931032       -1.03688208150041        0.87465375201677
C            2.35667934950691       -0.42231054349724        0.92944737474734
C            2.13611950154005        0.66655826546867        1.93423881455910
C            1.32530821993212       -0.81963600673142        0.03863012187905
B           -0.00146248069342        0.01618383488803       -0.00312012958076
C           -1.31757165027029       -0.83761723144570       -0.04260870864582
C           -2.35272581462954       -0.45876776273532       -0.93645060946445
C           -2.14614096684021        0.63013636500759       -1.94441309229041
C           -3.58187502638167       -1.09222150886961       -0.88219572178710
C           -3.82257944106722       -2.14984505396599       -0.01516839035052
C           -5.14840338485671       -2.84719111571672        0.01915753083094
C           -2.78611515734693       -2.55285553108842        0.82516547461257
C           -1.54651337430933       -1.94195320895945        0.80797142358903
C           -0.50291272853042       -2.43105940480219        1.76823642897358
C           -0.01184075702323        1.55085047652671       -0.00278668943323
C            0.89722014023412        2.31342927063784       -0.80792100646570
C            1.86535028360591        1.61515532511346       -1.71167191469641
C            0.88364145467906        3.69023501724543       -0.78196880143884
C           -0.01732452577889        4.40535879859601        0.00829805561001
C           -0.03913976846064        5.90066028501599        0.00824689744185
C           -0.91894374486153        3.67818697296144        0.79073451155012
C           -0.92727831616801        2.30256233023974        0.80540449222171
C           -1.89231462346780        1.59252942041733        1.70382399422350
C            1.56913857877904       -1.92512075419384       -0.80713985702955
C            0.53099074859752       -2.43448808028729       -1.76275724854427
C            2.81759208736884       -2.51664922339475       -0.82454314545512
H            5.81039212769114       -2.45031042434881        0.80471099135137
H            5.06420381882853       -3.85894943310734        0.03436474984362
H            5.69976416839292       -2.54944596167588       -0.95595803340762
H            4.37576681810013       -0.70465149364392        1.54746782524196
H            2.07768690467069        1.63730086391603        1.44059838916498
H            2.94975000216732        0.69836428415995        2.65615682112613
H            1.19669565603862        0.52086580857584        2.46529681036996
H           -2.96236085105972        0.65229829129866       -2.66374646299660
H           -2.09521233761854        1.60237245521473       -1.45311026340012
H           -1.20718718337199        0.49204398011083       -2.47840223591559
H           -4.36592132213152       -0.77503256618261       -1.55771989163349
H           -5.01723836513335       -3.92560448197147        0.09676651628600
H           -5.72194978413655       -2.51878698484017        0.88813389550450
H           -5.72845918182133       -2.62609760330321       -0.87418692058756
H           -2.96019271483963       -3.37064235718438        1.51250933387734
H            0.20514198463258       -3.09452273685716        1.27209499497228
H            0.06374218095831       -1.59684445864253        2.17466652322223
H           -0.96332474363301       -2.98048661533906        2.58758314300451
H            1.37043472052852        0.81406272052193       -2.25748550733944
H            2.67097177053412        1.15751602139008       -1.13662038023482
H            2.30459986693512        2.31412169534694       -2.42083216112624
H            1.58335294283405        4.23892477425767       -1.39966452704159
H           -0.85940162306400        6.26516977793699       -0.61400920864066
H           -0.19476172880359        6.28508879489779        1.01557848668831
H            0.89045845005400        6.30532599714991       -0.38621354136201
H           -1.61955225444161        4.22100510660444        1.41252237864323
H           -2.34212453860542        2.28598340692630        2.41174243566521
H           -2.69016091285355        1.12693211125114        1.12467528604971
H           -1.39116541440711        0.79654268140795        2.25139534672137
H           -0.04608705457380       -1.61055428565819       -2.17544510363909
H           -0.16851636567836       -3.10260744968397       -1.26085435487298
H            0.99762244290250       -2.98469223503681       -2.57803963654690
H            3.00327051945900       -3.33463516076831       -1.50858210860258

          :  Hamiltonian                  GFN2-xTB          :
         :: gradient norm              0.000039544055 Eh/a0 ::
         :: HOMO-LUMO gap              1.140676688196 eV    ::
         :: SCC energy               -77.156888396242 Eh    ::
         :: -> dispersion             -0.075480266087 Eh    ::
         :: -> Gsolv                  -0.026647861257 Eh    ::
         :: repulsion energy           1.334179797339 Eh    ::

    * Orbital Energies and Occupations

         #    Occupation            Energy/Eh            Energy/eV
      -------------------------------------------------------------
         1        2.0000           -0.6309271             -17.1684
       ...           ...                  ...                  ...
        61        2.0000           -0.4130018             -11.2384
        62        2.0000           -0.4098075             -11.1514
        63        2.0000           -0.4093034             -11.1377
        64        2.0000           -0.4078350             -11.0978
        65        2.0000           -0.3868112             -10.5257
        66        2.0000           -0.3865267             -10.5179
        67        2.0000           -0.3793122             -10.3216
        68        2.0000           -0.3787777             -10.3071
        69        2.0000           -0.3740088             -10.1773
        70        2.0000           -0.3736624             -10.1679
        71        1.9983           -0.3628469              -9.8736
        72        1.0017           -0.3507797              -9.5452
        73        1.0000           -0.2532139              -6.8903 (HOMO)
        74                         -0.2112949              -5.7496 (LUMO)
        75                         -0.2084659              -5.6726
        76                         -0.2031299              -5.5274
        77                         -0.2004190              -5.4537
        78                         -0.1976437              -5.3782
        79                         -0.1485134              -4.0413
        80                         -0.0862963              -2.3482
        81                         -0.0820679              -2.2332
        82                         -0.0562975              -1.5319
        83                          0.0921763               2.5082
        84                          0.0961831               2.6173
       ...                                ...                  ...
       145                          0.6636715              18.0594
      -------------------------------------------------------------
                  HL-Gap            0.0419190 Eh            1.1407 eV

     #   Z          covCN         q      C6AA      α(0)
     1   6 C        3.757    -0.104    22.541     6.769
     2   6 C        2.961     0.002    27.989     8.678
     3   6 C        2.926    -0.057    29.423     8.896
     4   6 C        2.963     0.008    27.844     8.655
     5   6 C        3.758    -0.107    22.587     6.776
     6   6 C        2.888    -0.053    29.309     8.876
     7   5 B        2.712     0.172    18.826     7.275
     8   6 C        2.888    -0.053    29.307     8.876
     9   6 C        2.963     0.008    27.844     8.655
    10   6 C        3.758    -0.107    22.587     6.776
    11   6 C        2.926    -0.057    29.426     8.896
    12   6 C        2.961     0.002    27.990     8.678
    13   6 C        3.757    -0.104    22.541     6.769
    14   6 C        2.928    -0.056    29.393     8.891
    15   6 C        2.961     0.007    27.862     8.658
    16   6 C        3.759    -0.107    22.597     6.777
    17   6 C        2.884    -0.067    29.659     8.928
    18   6 C        2.961     0.008    27.842     8.655
    19   6 C        3.759    -0.109    22.637     6.783
    20   6 C        2.921    -0.057    29.427     8.896
    21   6 C        2.961     0.007    27.869     8.659
    22   6 C        3.757    -0.105    22.555     6.771
    23   6 C        2.922    -0.058    29.436     8.897
    24   6 C        2.960     0.008    27.844     8.655
    25   6 C        3.759    -0.109    22.639     6.783
    26   6 C        2.961     0.007    27.860     8.658
    27   6 C        3.759    -0.107    22.598     6.777
    28   6 C        2.929    -0.056    29.394     8.891
    29   1 H        0.925     0.037     2.491     2.468
    30   1 H        0.925     0.040     2.443     2.444
    31   1 H        0.924     0.043     2.407     2.426
    32   1 H        0.925     0.019     2.743     2.590
    33   1 H        0.924     0.053     2.288     2.366
    34   1 H        0.925     0.037     2.484     2.465
    35   1 H        0.925     0.040     2.444     2.445
    36   1 H        0.925     0.037     2.486     2.466
    37   1 H        0.924     0.052     2.291     2.367
    38   1 H        0.925     0.040     2.445     2.445
    39   1 H        0.925     0.019     2.741     2.589
    40   1 H        0.925     0.040     2.453     2.449
    41   1 H        0.924     0.043     2.403     2.424
    42   1 H        0.925     0.037     2.486     2.466
    43   1 H        0.925     0.020     2.733     2.585
    44   1 H        0.925     0.043     2.405     2.425
    45   1 H        0.925     0.047     2.364     2.404
    46   1 H        0.925     0.035     2.523     2.484
    47   1 H        0.925     0.044     2.391     2.418
    48   1 H        0.924     0.050     2.326     2.385
    49   1 H        0.925     0.035     2.514     2.480
    50   1 H        0.925     0.017     2.787     2.610
    51   1 H        0.924     0.046     2.372     2.409
    52   1 H        0.925     0.042     2.424     2.435
    53   1 H        0.925     0.039     2.468     2.457
    54   1 H        0.925     0.017     2.777     2.606
    55   1 H        0.925     0.035     2.517     2.481
    56   1 H        0.924     0.049     2.331     2.388
    57   1 H        0.925     0.044     2.394     2.419
    58   1 H        0.925     0.047     2.364     2.404
    59   1 H        0.925     0.043     2.403     2.424
    60   1 H        0.925     0.035     2.523     2.484
    61   1 H        0.925     0.020     2.730     2.584

molecular dipole:
                 x           y           z       tot (Debye)
 q only:       -0.013       0.053      -0.005
   full:       -0.023       0.071      -0.007       0.189

 projected vibrational frequencies (cm⁻¹)
eigval :       -0.00    -0.00    -0.00     0.00     0.00     0.00
eigval :      -37.53    27.77    35.06    40.77    43.54    51.75
eigval :       73.56    78.50    85.27    98.47   110.66   115.21
eigval :      122.18   123.51   141.05   147.73   154.05   163.87
eigval :      169.65   174.24   185.12   185.58   192.69   193.44
eigval :      204.30   204.73   208.36   269.57   274.32   276.73
eigval :      296.10   310.51   314.15   321.50   323.66   340.84
eigval :      429.43   455.31   463.51   476.24   477.12   483.81
eigval :      488.18   492.73   493.08   502.41   504.64   512.34
eigval :      515.70   528.38   555.55   579.52   590.04   592.95
eigval :      599.75   645.16   653.98   659.09   827.42   836.25
eigval :      838.84   846.63   847.56   868.65   872.03   877.09
eigval :      911.60   954.44   960.18   962.68   969.67   972.22
eigval :      972.47  1005.48  1011.35  1014.01  1015.84  1018.50
eigval :     1020.75  1021.29  1023.70  1025.30  1027.38  1027.59
eigval :     1028.57  1028.68  1034.59  1034.95  1037.78  1040.90
eigval :     1046.14  1066.51  1160.81  1181.55  1192.17  1203.31
eigval :     1219.88  1230.89  1232.63  1257.12  1272.12  1314.75
eigval :     1316.14  1318.73  1324.71  1383.39  1389.52  1395.08
eigval :     1398.62  1399.40  1399.93  1401.22  1403.54  1404.10
eigval :     1407.25  1407.54  1409.21  1420.53  1422.43  1422.50
eigval :     1447.33  1459.53  1460.14  1464.79  1465.79  1466.70
eigval :     1471.57  1474.68  1474.95  1476.50  1478.76  1479.61
eigval :     1480.73  1481.18  1483.54  1486.13  1487.09  1487.67
eigval :     1492.30  1494.24  1495.12  1540.52  1545.18  1569.82
eigval :     2969.63  2975.56  2979.94  2984.74  2986.32  2987.27
eigval :     2989.52  2997.12  2997.79  3007.40  3010.52  3011.31
eigval :     3011.77  3013.45  3017.98  3019.07  3020.44  3020.95
eigval :     3022.40  3023.11  3024.29  3024.66  3030.57  3030.99
eigval :     3034.07  3034.41  3034.77  3044.14  3046.03  3046.22
eigval :     3047.36  3051.07  3052.23

   temp. (K)  partition function   enthalpy   heat capacity  entropy
                                   cal/mol     cal/K/mol   cal/K/mol   J/K/mol
 298.15  VIB  0.231E+13            17599.246    106.539    109.644
         ROT  0.138E+08              888.752      2.981     35.655
         INT  0.319E+20            18487.998    109.520    145.299
         TR   0.684E+28             1481.254      4.968     43.585
         TOT                       19969.2519   114.4879   188.8837   790.2895

       T/K    H(0)-H(T)+PV         H(T)/Eh          T*S/Eh         G(T)/Eh
   ------------------------------------------------------------------------
    298.15    0.318230E-01    0.540548E+00    0.897448E-01    0.450803E+00
   ------------------------------------------------------------------------

         :::::::::::::::::::::::::::::::::::::::::::::::::::::
         ::                  THERMODYNAMIC                  ::
         :::::::::::::::::::::::::::::::::::::::::::::::::::::
         :: total free energy         -75.371905279255 Eh   ::
         ::.................................................::
         :: total energy              -75.822708600538 Eh   ::
         :: zero point energy           0.508725044756 Eh   ::
         :: G(RRHO) w/o ZPVE           -0.057921723473 Eh   ::
         :: G(RRHO) contrib.            0.450803321283 Eh   ::
         :::::::::::::::::::::::::::::::::::::::::::::::::::::

           -------------------------------------------------
          | TOTAL ENERGY              -75.822708600538 Eh   |
          | TOTAL ENTHALPY            -75.282160527293 Eh   |
          | TOTAL FREE ENERGY         -75.371905279255 Eh   |
          | GRADIENT NORM               0.000039558781 Eh/α |
          | HOMO-LUMO GAP               1.140675091633 eV   |
           -------------------------------------------------

 * finished run on 2025/09/10 at 05:04:17.563
