   * xtb version 6.7.1 (edcfbbe) compiled by 'albert@albert-system' on 2024-07-22

   ID    Z sym.   atoms
    1    6 C      1-6, 8-28
    2    5 B      7
    3    1 H      29-61

          program call               : xtb data2507/toluene/trimesitylboron/trimesitylboron_toluene_S0_crest.xyz --gfn 2 --gbsa toluene --ohess vtight --parallel 40 --molden --ceasefiles --namespace data2507/toluene/trimesitylboron/trimesitylboron_toluene_S0_finalOpt
      * Solvation model:               GBSA
        Solvent                        toluene
        Solvent mass                       9.2140E+01 g/mol
          :  Hamiltonian                  GFN2-xTB          :
 * total energy  :   -75.9228829 Eh     change       -0.1382971E-07 Eh
 * total energy  :   -75.9230648 Eh     change       -0.1818449E-03 Eh
 * total energy  :   -75.9231441 Eh     change       -0.7938541E-04 Eh
 * total energy  :   -75.9231601 Eh     change       -0.1593343E-04 Eh
 * total energy  :   -75.9231717 Eh     change       -0.1161297E-04 Eh
 * total energy  :   -75.9231814 Eh     change       -0.9733937E-05 Eh
 * total energy  :   -75.9232182 Eh     change       -0.3677952E-04 Eh
 * total energy  :   -75.9232332 Eh     change       -0.1498829E-04 Eh
 * total energy  :   -75.9232433 Eh     change       -0.1009896E-04 Eh
 * total energy  :   -75.9232572 Eh     change       -0.1390517E-04 Eh
 * total energy  :   -75.9234969 Eh     change       -0.4396422E-06 Eh
 * total energy  :   -75.9234974 Eh     change       -0.4994638E-06 Eh
 * total energy  :   -75.9234979 Eh     change       -0.4297971E-06 Eh
 * total energy  :   -75.9234981 Eh     change       -0.2621721E-06 Eh
 * total energy  :   -75.9234983 Eh     change       -0.2118515E-06 Eh
 * total energy  :   -75.9234983 Eh     change        0.2867850E-07 Eh
 * total energy  :   -75.9234984 Eh     change       -0.1356664E-06 Eh
 * total energy  :   -75.9234984 Eh     change        0.3306369E-08 Eh
 * total energy  :   -75.9234985 Eh     change       -0.7615489E-07 Eh
   *** GEOMETRY OPTIMIZATION CONVERGED AFTER 66 ITERATIONS ***

 final structure:
================
61
 xtb: 6.7.1 (edcfbbe)
C           -5.60370603045081       -1.84307828211703       -0.01540543545759
C           -4.17759178459323       -1.38064506227102       -0.02561693150220
C           -3.26126319555737       -1.88863754832676        0.88394598973536
C           -1.94004523808992       -1.47004666538221        0.89741523866873
C           -1.01312640096270       -2.08359641077774        1.90917362914897
C           -1.48964073247175       -0.49450911693934       -0.00999971735931
B            0.00428390723846       -0.00102361618714       -0.00055895251095
C            0.32121474613572        1.54005002359370       -0.00393886031810
C            1.25088939505665        2.09029123623995       -0.90389838721533
C            1.98012287820960        1.22995071370348       -1.89749590922700
C            1.51481824102625        3.45142115868280       -0.90126665081355
C            0.89121565626123        4.31248019082338       -0.01063759010332
C            1.17662394069984        5.78413612582444       -0.03277695861223
C           -0.02035418992312        3.77173604039047        0.88318002882937
C           -0.31511241421651        2.41657731556896        0.89211181692242
C           -1.32282480727779        1.91877354493551        1.89013108665673
C            1.17903670516919       -1.04741237439098        0.01317956654552
C            1.20183464713414       -2.12880996885071       -0.88507276841268
C            0.10652580150104       -2.32945053197373       -1.89464222005214
C            2.24828464512171       -3.03854566574714       -0.86813235717919
C            3.29421987293743       -2.92823722417942        0.03563670375724
C            4.40416856387344       -3.93577485885968        0.06147605085651
C            3.26985933993818       -1.86800008930522        0.92897455972112
C            2.24436040966435       -0.93460759005893        0.92369725911257
C            2.30689615664548        0.18986677994533        1.91910857916695
C           -2.42225824561954        0.02440615004694       -0.92433297460774
C           -2.03143377397472        1.06930572681673       -1.93166865317635
C           -3.73496056292214       -0.42450698722829       -0.92591185180164
H           -6.14755224569835       -1.35994664932412        0.79780280558979
H           -6.10036869209052       -1.59570758970704       -0.95096040124582
H           -5.65903074838150       -2.91924494902695        0.14028378784327
H           -3.58746889971064       -2.63552087093591        1.59600973497880
H           -1.57873820389793       -2.60747352913948        2.67739655852561
H           -0.39054853315292       -1.33261389155286        2.38783802647369
H           -0.34916640799391       -2.79974075640902        1.42654265087690
H            2.44266954140308        1.84406195141449       -2.66788285975389
H            2.76396246826990        0.66029670439757       -1.39970843485996
H            1.31270847945497        0.51796570016881       -2.37523815627262
H            2.22915568938630        3.85311816069836       -1.60815128932360
H            0.52375680924612        6.27885562843135       -0.75386155405603
H            0.99905479589496        6.22983822378055        0.94372057176512
H            2.20665331947491        5.97503795647435       -0.32746493184442
H           -0.51699419123742        4.42486360650990        1.58885228499579
H           -2.26882313958468        1.70289542513087        1.39490757168502
H           -0.99000764077730        1.00313258637561        2.37120508150404
H           -1.50355715425456        2.66893930718113        2.65772200538513
H           -0.78489165763645       -2.72618511600678       -1.41014616482864
H            0.41875627588332       -3.03469566763390       -2.66255445085630
H           -0.17126567807707       -1.39484506407986       -2.37400480157595
H            2.24817928478911       -3.85741298316166       -1.57572888114127
H            5.32825723104239       -3.48629473510013        0.41933658980908
H            4.14680038010314       -4.75677256873225        0.73278880725180
H            4.57324501013734       -4.35266854431983       -0.92924551039960
H            4.07586282923712       -1.76358933087131        1.64364462713428
H            3.03322782506729       -0.03009879673439        2.69931305969647
H            2.60646005239367        1.11374438753581        1.42562290716474
H            1.34086667933968        0.36640014460208        2.38396596195674
H           -1.07456294994528        0.84175448459438       -2.39332660973832
H           -1.93884059457628        2.04164947393379       -1.44911170582569
H           -2.78480227582009        1.14757606943960       -2.71332400775461
H           -4.43176712024448       -0.01527500871411       -1.64582312934104

          :  Hamiltonian                  GFN2-xTB          :
         :: gradient norm              0.000043037398 Eh/a0 ::
         :: HOMO-LUMO gap              2.743259026623 eV    ::
         :: SCC energy               -77.270352458193 Eh    ::
         :: -> dispersion             -0.074973215456 Eh    ::
         :: -> Gsolv                  -0.026956527863 Eh    ::
         :: repulsion energy           1.346853947253 Eh    ::

    * Orbital Energies and Occupations

         #    Occupation            Energy/Eh            Energy/eV
      -------------------------------------------------------------
         1        2.0000           -0.6324720             -17.2104
       ...           ...                  ...                  ...
        60        2.0000           -0.4307762             -11.7220
        61        2.0000           -0.4143433             -11.2749
        62        2.0000           -0.4108859             -11.1808
        63        2.0000           -0.4101993             -11.1621
        64        2.0000           -0.4101484             -11.1607
        65        2.0000           -0.3926829             -10.6854
        66        2.0000           -0.3923667             -10.6768
        67        2.0000           -0.3788424             -10.3088
        68        2.0000           -0.3781810             -10.2908
        69        2.0000           -0.3781061             -10.2888
        70        2.0000           -0.3759871             -10.2311
        71        2.0000           -0.3622735              -9.8580
        72        2.0000           -0.3620971              -9.8532 (HOMO)
        73                         -0.2612842              -7.1099 (LUMO)
        74                         -0.2075202              -5.6469
        75                         -0.2073932              -5.6435
        76                         -0.2036305              -5.5411
        77                         -0.2034161              -5.5352
        78                         -0.2016238              -5.4865
        79                         -0.1615892              -4.3971
        80                         -0.0828242              -2.2538
        81                         -0.0827510              -2.2518
        82                         -0.0611055              -1.6628
        83                          0.0888399               2.4175
       ...                                ...                  ...
       145                          0.6632633              18.0483
      -------------------------------------------------------------
                  HL-Gap            0.1008129 Eh            2.7433 eV

     #   Z          covCN         q      C6AA      α(0)
     1   6 C        3.757    -0.106    22.580     6.775
     2   6 C        2.962     0.010    27.803     8.649
     3   6 C        2.929    -0.058    29.454     8.900
     4   6 C        2.966     0.011    27.766     8.643
     5   6 C        3.759    -0.108    22.605     6.778
     6   6 C        2.888    -0.079    29.983     8.977
     7   5 B        2.707     0.255    17.642     7.045
     8   6 C        2.888    -0.079    29.984     8.977
     9   6 C        2.966     0.011    27.765     8.643
    10   6 C        3.759    -0.107    22.605     6.778
    11   6 C        2.929    -0.058    29.450     8.900
    12   6 C        2.962     0.010    27.802     8.649
    13   6 C        3.757    -0.106    22.580     6.775
    14   6 C        2.929    -0.058    29.447     8.899
    15   6 C        2.966     0.011    27.767     8.643
    16   6 C        3.759    -0.107    22.604     6.778
    17   6 C        2.888    -0.079    29.984     8.977
    18   6 C        2.966     0.011    27.765     8.643
    19   6 C        3.759    -0.108    22.605     6.778
    20   6 C        2.929    -0.058    29.449     8.900
    21   6 C        2.962     0.010    27.801     8.648
    22   6 C        3.757    -0.106    22.581     6.775
    23   6 C        2.929    -0.058    29.449     8.900
    24   6 C        2.966     0.011    27.765     8.643
    25   6 C        3.759    -0.108    22.606     6.778
    26   6 C        2.966     0.011    27.767     8.643
    27   6 C        3.759    -0.107    22.603     6.778
    28   6 C        2.929    -0.058    29.443     8.899
    29   1 H        0.924     0.044     2.400     2.423
    30   1 H        0.925     0.038     2.474     2.460
    31   1 H        0.925     0.041     2.441     2.443
    32   1 H        0.925     0.020     2.735     2.586
    33   1 H        0.925     0.036     2.503     2.474
    34   1 H        0.925     0.037     2.484     2.465
    35   1 H        0.925     0.046     2.371     2.408
    36   1 H        0.925     0.036     2.503     2.474
    37   1 H        0.925     0.046     2.370     2.407
    38   1 H        0.925     0.037     2.484     2.465
    39   1 H        0.925     0.020     2.739     2.588
    40   1 H        0.924     0.044     2.397     2.421
    41   1 H        0.925     0.039     2.463     2.454
    42   1 H        0.925     0.040     2.455     2.450
    43   1 H        0.925     0.019     2.742     2.590
    44   1 H        0.925     0.046     2.371     2.408
    45   1 H        0.925     0.037     2.484     2.465
    46   1 H        0.925     0.036     2.504     2.475
    47   1 H        0.925     0.046     2.370     2.408
    48   1 H        0.925     0.036     2.503     2.474
    49   1 H        0.925     0.038     2.482     2.464
    50   1 H        0.925     0.020     2.740     2.589
    51   1 H        0.925     0.039     2.459     2.452
    52   1 H        0.924     0.044     2.397     2.421
    53   1 H        0.925     0.039     2.457     2.451
    54   1 H        0.925     0.020     2.740     2.588
    55   1 H        0.925     0.036     2.503     2.474
    56   1 H        0.925     0.046     2.370     2.407
    57   1 H        0.925     0.038     2.482     2.464
    58   1 H        0.925     0.037     2.483     2.464
    59   1 H        0.925     0.046     2.372     2.408
    60   1 H        0.925     0.036     2.504     2.475
    61   1 H        0.925     0.019     2.746     2.591

molecular dipole:
                 x           y           z       tot (Debye)
 q only:       -0.010      -0.005       0.010
   full:       -0.025      -0.005       0.018       0.078

 projected vibrational frequencies (cm⁻¹)
eigval :       -0.00     0.00     0.00     0.00     0.00     0.00
eigval :       29.49    30.21    40.95    43.82    45.01    68.50
eigval :       69.01    73.09    75.19    82.19    92.16    94.94
eigval :      101.32   103.54   106.21   119.20   120.57   121.42
eigval :      162.06   162.92   182.46   183.43   185.55   188.59
eigval :      204.48   206.33   207.83   275.98   276.61   277.85
eigval :      310.93   313.52   314.28   331.75   338.05   339.55
eigval :      459.75   468.12   470.25   494.09   496.03   500.40
eigval :      501.16   501.57   504.67   512.36   513.12   521.55
eigval :      546.68   549.88   585.03   598.56   598.78   602.74
eigval :      606.14   677.95   678.50   685.89   836.80   839.80
eigval :      844.72   870.05   870.51   887.98   889.35   894.58
eigval :      960.97   962.29   962.78   977.87   978.08   978.41
eigval :     1013.33  1018.04  1018.62  1025.72  1026.04  1027.14
eigval :     1028.31  1028.96  1029.37  1031.43  1033.39  1033.93
eigval :     1038.01  1038.42  1040.32  1043.98  1044.51  1044.86
eigval :     1083.78  1154.86  1155.32  1205.16  1217.74  1218.50
eigval :     1237.45  1238.72  1238.93  1304.60  1305.30  1305.52
eigval :     1328.19  1328.67  1331.46  1401.60  1401.80  1401.95
eigval :     1402.29  1403.48  1404.63  1407.46  1407.98  1410.93
eigval :     1426.67  1427.00  1428.05  1448.30  1448.45  1456.92
eigval :     1474.68  1474.87  1476.96  1477.25  1480.59  1481.40
eigval :     1481.51  1481.80  1482.94  1484.27  1484.55  1485.20
eigval :     1487.34  1490.13  1490.46  1490.68  1493.69  1494.19
eigval :     1557.97  1558.12  1558.35  1598.69  1598.77  1601.52
eigval :     2985.70  2986.26  2988.14  3006.97  3007.57  3007.99
eigval :     3008.52  3008.57  3009.30  3020.63  3023.55  3023.69
eigval :     3024.29  3024.45  3024.61  3025.37  3025.92  3027.10
eigval :     3029.36  3029.41  3033.25  3041.93  3042.37  3042.74
eigval :     3043.51  3043.77  3044.76  3050.36  3050.60  3050.73
eigval :     3053.63  3053.75  3054.81

   temp. (K)  partition function   enthalpy   heat capacity  entropy
                                   cal/mol     cal/K/mol   cal/K/mol   J/K/mol
 298.15  VIB  0.468E+14            18185.444    106.188    116.608
         ROT  0.140E+08              888.752      2.981     35.675
         INT  0.653E+21            19074.196    109.169    152.283
         TR   0.684E+28             1481.254      4.968     43.585
         TOT                       20555.4501   114.1375   195.8680   819.5119

       T/K    H(0)-H(T)+PV         H(T)/Eh          T*S/Eh         G(T)/Eh
   ------------------------------------------------------------------------
    298.15    0.327572E-01    0.545988E+00    0.930632E-01    0.452924E+00
   ------------------------------------------------------------------------

         :::::::::::::::::::::::::::::::::::::::::::::::::::::
         ::                  THERMODYNAMIC                  ::
         :::::::::::::::::::::::::::::::::::::::::::::::::::::
         :: total free energy         -75.470574190073 Eh   ::
         ::.................................................::
         :: total energy              -75.923498514635 Eh   ::
         :: zero point energy           0.513230356447 Eh   ::
         :: G(RRHO) w/o ZPVE           -0.060306031885 Eh   ::
         :: G(RRHO) contrib.            0.452924324562 Eh   ::
         :::::::::::::::::::::::::::::::::::::::::::::::::::::

           -------------------------------------------------
          | TOTAL ENERGY              -75.923498514635 Eh   |
          | TOTAL ENTHALPY            -75.377510963443 Eh   |
          | TOTAL FREE ENERGY         -75.470574190073 Eh   |
          | GRADIENT NORM               0.000043017481 Eh/α |
          | HOMO-LUMO GAP               2.743257634580 eV   |
           -------------------------------------------------

 * finished run on 2025/09/10 at 05:00:57.251
