   * xtb version 6.7.1 (edcfbbe) compiled by 'albert@albert-system' on 2024-07-22

   ID    Z sym.   atoms
    1    6 C      1, 3-5, 8-19, 21-26
    2    8 O      2, 6, 7
    3    7 N      20
    4    1 H      27-41

          program call               : xtb data2507/gas/2CzMC/2CzMC_gas_S0_crest.xyz --gfn 2 --ohess vtight --parallel 40 --molden --ceasefiles --namespace data2507/gas/2CzMC/2CzMC_gas_S0_finalOpt
          :  Hamiltonian                  GFN2-xTB          :
 * total energy  :   -69.9336231 Eh     change       -0.2606058E-08 Eh
 * total energy  :   -69.9336236 Eh     change       -0.4877199E-06 Eh
 * total energy  :   -69.9336241 Eh     change       -0.4531930E-06 Eh
 * total energy  :   -69.9336246 Eh     change       -0.4864025E-06 Eh
 * total energy  :   -69.9336248 Eh     change       -0.2618621E-06 Eh
 * total energy  :   -69.9336250 Eh     change       -0.1877733E-06 Eh
 * total energy  :   -69.9336252 Eh     change       -0.1499087E-06 Eh
 * total energy  :   -69.9336252 Eh     change       -0.7961953E-07 Eh
   *** GEOMETRY OPTIMIZATION CONVERGED AFTER 8 ITERATIONS ***

 final structure:
================
41
 xtb: 6.7.1 (edcfbbe)
C           -5.61108932168193        1.84867201938447       -0.00309396638260
O           -4.21249563349553        1.66944016044126        0.00769471355321
C           -3.72720188358464        0.41395673569451       -0.01851818183113
C           -4.46862438051496       -0.72234362396811       -0.05335611345635
C           -3.86345904582033       -2.03111041441382       -0.08035096195114
O           -4.47003608498608       -3.07446770478705       -0.11204432271192
O           -2.49253404247617       -2.09009485383642       -0.06801211360508
C           -1.72329351134315       -0.97892796230145       -0.03203026704220
C           -0.34760697176892       -1.17191764469515       -0.02160710426602
C            0.46316964894548       -0.05123815470019        0.02183314418615
C           -0.08759068339268        1.26031332151063        0.02632810812423
C           -1.45459559458788        1.43764380204585        0.01469220781439
C           -2.28407107613044        0.31620723724298       -0.00747620057245
C            1.02786714841683        2.16700445436348        0.03262038123120
C            1.13292193237069        3.55096545775436        0.05477345538871
C            2.39266113313641        4.11670861722599        0.07794234569715
C            3.53531709602142        3.32087434686762        0.09315453224550
C            3.45494700834570        1.94074825962200        0.07145060527159
C            2.19307788173999        1.36810286990262        0.02581170382768
N            1.83265238114537        0.03167865820362        0.01913139496085
C            2.72254907600262       -1.05635751565442        0.00965241061743
C            3.73874096442702       -1.11601132553755       -0.93836415254481
C            4.61618660726546       -2.18482976517871       -0.94052611335238
C            4.48144056343049       -3.20072167597708       -0.00893079607087
C            3.46637704471380       -3.14394268660067        0.93161336761066
C            2.58995960514756       -2.07449800699966        0.94807776641492
H           -5.77062755748057        2.92514060408315        0.02232235876383
H           -6.05695595799520        1.43361814042500       -0.91134816960650
H           -6.07665858785339        1.38870312509166        0.87305924870242
H           -5.54525554892633       -0.72390284946636       -0.06357880259866
H            0.04537015922548       -2.17455954628158       -0.05779924513165
H           -1.89604221258744        2.42070634440050        0.01889268413552
H            0.24635499717301        4.16629144876320        0.05794901381136
H            2.49780696416289        5.19105555059146        0.09331388035305
H            4.50651114842797        3.79170950440409        0.12617164639327
H            4.34563879033099        1.33184183281539        0.10014569403477
H            3.82634078238877       -0.33219018863007       -1.67582531724305
H            5.40335323957101       -2.22802221323947       -1.67840623905905
H            5.16565273426677       -4.03547824177546       -0.01645245065516
H            3.35960946408924       -3.93276763560807        1.66098944394748
H            1.80920835108071       -2.01605910318251        1.69132166419565

          :  Hamiltonian                  GFN2-xTB          :
         :: gradient norm              0.000049465367 Eh/a0 ::
         :: HOMO-LUMO gap              2.707420813846 eV    ::
         :: SCC energy               -71.050720477004 Eh    ::
         :: -> dispersion             -0.050706372717 Eh    ::
         :: repulsion energy           1.117095246211 Eh    ::

    * Orbital Energies and Occupations

         #    Occupation            Energy/Eh            Energy/eV
      -------------------------------------------------------------
         1        2.0000           -0.7400642             -20.1382
       ...           ...                  ...                  ...
        51        2.0000           -0.4534909             -12.3401
        52        2.0000           -0.4438272             -12.0772
        53        2.0000           -0.4401335             -11.9766
        54        2.0000           -0.4345887             -11.8258
        55        2.0000           -0.4295738             -11.6893
        56        2.0000           -0.4287262             -11.6662
        57        2.0000           -0.4240908             -11.5401
        58        2.0000           -0.4210550             -11.4575
        59        2.0000           -0.4188238             -11.3968
        60        2.0000           -0.4026757             -10.9574
        61        2.0000           -0.3999607             -10.8835
        62        2.0000           -0.3855497             -10.4913
        63        2.0000           -0.3740563             -10.1786 (HOMO)
        64                         -0.2745605              -7.4712 (LUMO)
        65                         -0.2558065              -6.9608
        66                         -0.2410078              -6.5582
        67                         -0.2395808              -6.5193
        68                         -0.2225759              -6.0566
        69                         -0.2074968              -5.6463
        70                         -0.1978616              -5.3841
        71                         -0.1430393              -3.8923
        72                         -0.1097933              -2.9876
        73                         -0.0914206              -2.4877
        74                         -0.0669231              -1.8211
       ...                                ...                  ...
       119                          0.7392245              20.1153
      -------------------------------------------------------------
                  HL-Gap            0.0994958 Eh            2.7074 eV

     #   Z          covCN         q      C6AA      α(0)
     1   6 C        3.648     0.030    20.399     6.489
     2   8 O        1.705    -0.245    18.059     5.738
     3   6 C        2.861     0.160    24.533     8.119
     4   6 C        2.901    -0.131    31.355     9.181
     5   6 C        2.716     0.342    21.194     7.536
     6   8 O        0.857    -0.408    21.834     6.265
     7   8 O        1.709    -0.234    17.883     5.710
     8   6 C        2.877     0.141    24.924     8.184
     9   6 C        2.908    -0.074    29.841     8.957
    10   6 C        3.073     0.054    26.716     8.475
    11   6 C        3.065    -0.018    28.402     8.739
    12   6 C        2.914    -0.031    28.772     8.796
    13   6 C        2.982    -0.035    28.853     8.811
    14   6 C        3.064    -0.014    28.287     8.721
    15   6 C        2.913    -0.031    28.781     8.797
    16   6 C        2.920    -0.039    28.958     8.825
    17   6 C        2.924    -0.031    28.779     8.798
    18   6 C        2.910    -0.049    29.204     8.861
    19   6 C        3.078     0.048    26.843     8.494
    20   7 N        2.802    -0.034    21.903     6.951
    21   6 C        2.914     0.063    26.596     8.457
    22   6 C        2.922    -0.041    29.016     8.834
    23   6 C        2.920    -0.027    28.672     8.781
    24   6 C        2.919    -0.031    28.769     8.796
    25   6 C        2.920    -0.026    28.651     8.778
    26   6 C        2.922    -0.041    29.023     8.835
    27   1 H        0.925     0.070     2.090     2.261
    28   1 H        0.924     0.052     2.300     2.372
    29   1 H        0.924     0.052     2.300     2.372
    30   1 H        0.926     0.062     2.181     2.310
    31   1 H        0.926     0.061     2.187     2.313
    32   1 H        0.926     0.062     2.178     2.308
    33   1 H        0.926     0.036     2.497     2.471
    34   1 H        0.926     0.034     2.534     2.489
    35   1 H        0.926     0.035     2.521     2.483
    36   1 H        0.926     0.033     2.544     2.494
    37   1 H        0.926     0.042     2.416     2.431
    38   1 H        0.926     0.040     2.453     2.449
    39   1 H        0.926     0.040     2.455     2.450
    40   1 H        0.926     0.042     2.428     2.437
    41   1 H        0.926     0.044     2.399     2.422

molecular dipole:
                 x           y           z       tot (Debye)
 q only:        1.447       1.708       0.066
   full:        1.314       1.789       0.066       5.643

 projected vibrational frequencies (cm⁻¹)
eigval :       -0.00     0.00     0.00     0.00     0.00     0.00
eigval :       29.20    46.67    54.73    62.96    75.49   116.18
eigval :      118.58   122.02   158.97   176.97   191.29   221.32
eigval :      230.08   240.56   251.45   268.68   295.05   347.67
eigval :      360.05   379.86   386.15   396.36   413.49   435.81
eigval :      463.05   483.85   514.24   536.44   538.59   561.28
eigval :      577.26   587.89   602.47   606.37   650.86   654.29
eigval :      668.51   670.73   701.48   703.03   709.10   736.79
eigval :      764.11   776.97   812.21   819.74   847.34   855.49
eigval :      868.03   872.62   884.27   903.25   908.59   920.68
eigval :      923.36   932.85   933.95   935.42   995.73  1002.05
eigval :     1018.65  1071.08  1080.22  1107.21  1117.75  1118.28
eigval :     1129.84  1138.32  1155.98  1169.60  1178.48  1180.78
eigval :     1185.95  1197.30  1207.40  1233.86  1254.87  1267.66
eigval :     1276.92  1295.33  1317.74  1325.53  1354.30  1367.76
eigval :     1398.48  1399.63  1422.01  1432.16  1436.48  1463.21
eigval :     1470.62  1475.91  1481.93  1483.22  1550.84  1583.38
eigval :     1585.75  1594.50  1597.36  1603.98  1616.80  1736.03
eigval :     2951.40  2962.59  3032.80  3081.04  3082.16  3084.99
eigval :     3086.86  3092.59  3094.01  3096.71  3100.14  3102.11
eigval :     3117.83  3118.13  3132.16

   temp. (K)  partition function   enthalpy   heat capacity  entropy
                                   cal/mol     cal/K/mol   cal/K/mol   J/K/mol
 298.15  VIB  0.151E+08            11079.961     74.124     66.672
         ROT  0.131E+08              888.752      2.981     35.553
         INT  0.199E+15            11968.713     77.105    102.225
         TR   0.610E+28             1481.254      4.968     43.358
         TOT                       13449.9673    82.0731   145.5834   609.1209

       T/K    H(0)-H(T)+PV         H(T)/Eh          T*S/Eh         G(T)/Eh
   ------------------------------------------------------------------------
    298.15    0.214339E-01    0.327895E+00    0.691714E-01    0.258724E+00
   ------------------------------------------------------------------------

         :::::::::::::::::::::::::::::::::::::::::::::::::::::
         ::                  THERMODYNAMIC                  ::
         :::::::::::::::::::::::::::::::::::::::::::::::::::::
         :: total free energy         -69.674901191587 Eh   ::
         ::.................................................::
         :: total energy              -69.933625230793 Eh   ::
         :: zero point energy           0.306461519000 Eh   ::
         :: G(RRHO) w/o ZPVE           -0.047737479795 Eh   ::
         :: G(RRHO) contrib.            0.258724039205 Eh   ::
         :::::::::::::::::::::::::::::::::::::::::::::::::::::

           -------------------------------------------------
          | TOTAL ENERGY              -69.933625230793 Eh   |
          | TOTAL ENTHALPY            -69.605729824648 Eh   |
          | TOTAL FREE ENERGY         -69.674901191587 Eh   |
          | GRADIENT NORM               0.000049524043 Eh/α |
          | HOMO-LUMO GAP               2.707419356141 eV   |
           -------------------------------------------------

 * finished run on 2025/08/26 at 02:39:27.264
