   * xtb version 6.7.1 (edcfbbe) compiled by 'albert@albert-system' on 2024-07-22

   ID    Z sym.   atoms
    1    6 C      1, 3-5, 8-19, 21-26
    2    8 O      2, 6, 7
    3    7 N      20
    4    1 H      27-41

          program call               : xtb data2507/gas/2CzMC/2CzMC_gas_S0_finalOpt.xtbopt.xyz --gfn 2 --spinpol --tblite --uhf 2 --ohess vtight --parallel 40 --molden --ceasefiles --namespace data2507/gas/2CzMC/2CzMC_gas_T1_preOpt
 * total energy  :   -69.8291493 Eh     change       -0.4672941E-08 Eh
 * total energy  :   -69.8351038 Eh     change       -0.5954486E-02 Eh
 * total energy  :   -69.8368029 Eh     change       -0.1699070E-02 Eh
 * total energy  :   -69.8369191 Eh     change       -0.1162354E-03 Eh
 * total energy  :   -69.8369928 Eh     change       -0.7366442E-04 Eh
 * total energy  :   -69.8370054 Eh     change       -0.1266583E-04 Eh
 * total energy  :   -69.8370209 Eh     change       -0.1549804E-04 Eh
 * total energy  :   -69.8370257 Eh     change       -0.4758759E-05 Eh
 * total energy  :   -69.8370332 Eh     change       -0.7528472E-05 Eh
 * total energy  :   -69.8370359 Eh     change       -0.2673915E-05 Eh
 * total energy  :   -69.8370421 Eh     change       -0.1534744E-05 Eh
 * total energy  :   -69.8370426 Eh     change       -0.5061857E-06 Eh
 * total energy  :   -69.8370429 Eh     change       -0.3020035E-06 Eh
 * total energy  :   -69.8370432 Eh     change       -0.2534982E-06 Eh
 * total energy  :   -69.8370434 Eh     change       -0.2381016E-06 Eh
 * total energy  :   -69.8370437 Eh     change       -0.2412892E-06 Eh
 * total energy  :   -69.8370438 Eh     change       -0.1838664E-06 Eh
 * total energy  :   -69.8370440 Eh     change       -0.1630428E-06 Eh
 * total energy  :   -69.8370441 Eh     change       -0.8555484E-07 Eh
   *** GEOMETRY OPTIMIZATION CONVERGED AFTER 20 ITERATIONS ***

 final structure:
================
41
 xtb: 6.7.1 (edcfbbe)
C           -5.63437198693164        1.81094024225540        0.01592255558554
O           -4.23453630807212        1.67853243029908        0.02957462907006
C           -3.69630066252388        0.42466582000920       -0.00162992103507
C           -4.47097506424809       -0.77017652581257       -0.03440599547862
C           -3.86441350289746       -2.04888832977485       -0.08168556983701
O           -4.45854530017007       -3.11253019599230       -0.11543278507162
O           -2.47897122495980       -2.10412736997029       -0.08998423886961
C           -1.71829366529127       -0.98203154223097       -0.04371551282157
C           -0.35795372958155       -1.16448676231902       -0.04706343242647
C            0.46973323330457       -0.01700605458697        0.00931668602480
C           -0.07678060384272        1.28535034370655        0.01951165954492
C           -1.44084832971412        1.47666042955268        0.01743182295341
C           -2.30581510980015        0.32183612183197       -0.00192740086481
C            1.04813673185769        2.18818880260896        0.02013513928833
C            1.16543034050595        3.56729458444899        0.04967481926830
C            2.43334733608970        4.12557038889446        0.07065132002904
C            3.57361354481870        3.32462416090469        0.08160854019523
C            3.48247667472571        1.94450499708258        0.05488406350585
C            2.21529244138019        1.38131161628696        0.00198111588932
N            1.83940130571904        0.05231573364982       -0.00454528605570
C            2.71326662515791       -1.03904318948588        0.00107488126504
C            3.76641083071539       -1.09647830510129       -0.91067829119177
C            4.62669052538168       -2.17745108104098       -0.90000803701110
C            4.44619722887060       -3.20679608252853        0.01059255163410
C            3.39784021579640       -3.15169216781590        0.91574239502025
C            2.53287585292157       -2.07454782778822        0.91702336852073
H           -5.82592748683299        2.88287372666975        0.03500515549883
H           -6.07165623228185        1.38227622363105       -0.89126870760755
H           -6.09248203747562        1.34713496526948        0.89516133117129
H           -5.54657210602086       -0.75623885091104       -0.02776117598594
H            0.04676957156698       -2.16059666769496       -0.10988356507178
H           -1.89025680754507        2.45320091199023        0.02101419940036
H            0.28489518931912        4.19056478635311        0.06168311917336
H            2.54389798333230        5.19920845924681        0.09106283410441
H            4.54711602780746        3.78942125711403        0.11709884479823
H            4.36935772713796        1.33013594606970        0.08694683955785
H            3.88402022355848       -0.30783844227678       -1.63849053319059
H            5.43677752145154       -2.22141630272373       -1.61234069891095
H            5.11959581547308       -4.04999446574510        0.01362768325734
H            3.25671648714974       -3.94951378258826        1.62899437953322
H            1.73045895675296       -2.01386201178706        1.63627834301364

 projected vibrational frequencies (cm⁻¹)
eigval :       -0.00    -0.00    -0.00    -0.00     0.00     0.00
eigval :       27.81    46.69    54.53    64.07    70.75    95.38
eigval :      108.15   116.75   147.35   164.67   176.87   208.62
eigval :      219.67   241.63   247.26   257.17   292.10   343.03
eigval :      347.01   357.07   379.38   388.50   397.17   423.03
eigval :      457.42   477.96   482.85   496.27   526.89   542.54
eigval :      558.31   577.41   583.36   592.40   599.98   618.31
eigval :      641.69   654.07   664.68   689.33   692.79   701.21
eigval :      724.30   726.53   759.73   769.25   792.71   805.90
eigval :      848.51   866.20   879.60   898.94   901.98   907.79
eigval :      915.07   919.52   930.65   931.88   982.70   992.64
eigval :     1001.53  1065.41  1075.53  1078.31  1111.49  1118.13
eigval :     1118.44  1119.26  1148.80  1163.93  1168.01  1175.63
eigval :     1178.86  1187.49  1193.85  1214.06  1214.43  1243.68
eigval :     1259.83  1274.23  1292.91  1319.14  1339.31  1353.89
eigval :     1381.66  1384.76  1397.37  1402.54  1431.51  1439.71
eigval :     1459.04  1465.45  1468.97  1479.46  1483.32  1491.24
eigval :     1505.50  1563.62  1566.62  1570.02  1580.28  1625.15
eigval :     2934.55  2947.77  3025.38  3083.96  3085.02  3088.02
eigval :     3088.94  3095.21  3097.21  3099.31  3103.19  3104.71
eigval :     3120.43  3138.48  3140.45

   temp. (K)  partition function   enthalpy   heat capacity  entropy
                                   cal/mol     cal/K/mol   cal/K/mol   J/K/mol
 298.15  VIB  0.343E+08            11489.741     76.195     69.522
         ROT  0.132E+08              888.752      2.981     35.561
         INT  0.452E+15            12378.493     79.176    105.084
         TR   0.610E+28             1481.254      4.968     43.358
         TOT                       13859.7468    84.1439   148.4416   621.0797

       T/K    H(0)-H(T)+PV         H(T)/Eh          T*S/Eh         G(T)/Eh
   ------------------------------------------------------------------------
    298.15    0.220869E-01    0.324060E+00    0.705294E-01    0.253531E+00
   ------------------------------------------------------------------------

         :::::::::::::::::::::::::::::::::::::::::::::::::::::
         ::                  THERMODYNAMIC                  ::
         :::::::::::::::::::::::::::::::::::::::::::::::::::::
         :: total free energy         -69.583512979233 Eh   ::
         ::.................................................::
         :: total energy              -69.837044069450 Eh   ::
         :: zero point energy           0.301973571748 Eh   ::
         :: G(RRHO) w/o ZPVE           -0.048442481531 Eh   ::
         :: G(RRHO) contrib.            0.253531090217 Eh   ::
         :::::::::::::::::::::::::::::::::::::::::::::::::::::

           -------------------------------------------------
          | TOTAL ENERGY              -69.837044069450 Eh   |
          | TOTAL ENTHALPY            -69.512983585293 Eh   |
          | TOTAL FREE ENERGY         -69.583512979233 Eh   |
          | GRADIENT NORM               0.000078520618 Eh/α |
           -------------------------------------------------

 * finished run on 2025/08/26 at 02:39:29.570
