   * xtb version 6.7.1 (edcfbbe) compiled by 'albert@albert-system' on 2024-07-22

   ID    Z sym.   atoms
    1    6 C      1, 3-5, 8-19, 21-26
    2    8 O      2, 6, 7
    3    7 N      20
    4    1 H      27-41

          program call               : xtb data2507/gas/2CzMC/2CzMC_gas_T1_crest.xyz --gfn 2 --spinpol --tblite --uhf 2 --ohess vtight --parallel 40 --molden --ceasefiles --namespace data2507/gas/2CzMC/2CzMC_gas_T1_finalOpt
 * total energy  :   -69.8369833 Eh     change       -0.6811547E-08 Eh
 * total energy  :   -69.8370236 Eh     change       -0.4024254E-04 Eh
 * total energy  :   -69.8370393 Eh     change       -0.1568104E-04 Eh
 * total energy  :   -69.8370414 Eh     change       -0.2169257E-05 Eh
 * total energy  :   -69.8370427 Eh     change       -0.1323395E-05 Eh
 * total energy  :   -69.8370423 Eh     change        0.4501732E-06 Eh
 * total energy  :   -69.8370432 Eh     change       -0.9388959E-06 Eh
 * total energy  :   -69.8370437 Eh     change       -0.4438515E-06 Eh
 * total energy  :   -69.8370442 Eh     change       -0.5396346E-06 Eh
 * total energy  :   -69.8370447 Eh     change       -0.4454860E-06 Eh
 * total energy  :   -69.8370449 Eh     change       -0.2746096E-06 Eh
 * total energy  :   -69.8370450 Eh     change       -0.1105721E-06 Eh
 * total energy  :   -69.8370450 Eh     change        0.9490506E-08 Eh
 * total energy  :   -69.8370451 Eh     change       -0.6822363E-07 Eh
   *** GEOMETRY OPTIMIZATION CONVERGED AFTER 14 ITERATIONS ***

 final structure:
================
41
 xtb: 6.7.1 (edcfbbe)
C           -5.61586168013246        1.86787194508512       -0.04544492608113
O           -4.21739739178847        1.72115620772523       -0.04266862905913
C           -3.69232894523155        0.46210657398473        0.00137357267811
C           -4.47948733379018       -0.72426260198271        0.04254630962847
C           -3.88644013154534       -2.00877203388202        0.10213927342498
O           -4.49173812952016       -3.06574145344866        0.14573614014530
O           -2.50166247825557       -2.07848970694864        0.11127619841181
C           -1.72923095421176       -0.96484425265528        0.05709000512787
C           -0.37089974682908       -1.16163382088191        0.05897759322659
C            0.46867966631060       -0.02319756824624       -0.00523778847270
C           -0.06397341314950        1.28483730492335       -0.01849568258519
C           -1.42594116010620        1.49050386395987       -0.01607900903496
C           -2.30298413198394        0.34488877099126        0.00717830515745
C            1.07053407781498        2.17556473726123       -0.02420183094718
C            1.20233395370413        3.55328339932434       -0.05702894529932
C            2.47600480140268        4.09808635114783       -0.08274149855739
C            3.60766394737338        3.28507740615175       -0.09535729329433
C            3.50200345638955        1.90604652409327       -0.06537935978503
C            2.22912760377540        1.35635581702338       -0.00743150883897
N            1.83906009711317        0.03142963691826        0.00374039759028
C            2.70048591817440       -1.06966860170926       -0.00855058166934
C            2.50108467201865       -2.10217792091055       -0.92404745139190
C            3.35375554109887       -3.18899197030536       -0.93091563774891
C            4.40869561823498       -3.25689025092260       -0.03430953050485
C            4.60797354675158       -2.23071062677229        0.87594193759366
C            3.76007424303598       -1.14007040085207        0.89474589103727
H           -6.06707789596536        1.45504737812042        0.86227274629561
H           -5.79618295773977        2.94136956736572       -0.07979462844752
H           -6.06939855179797        1.39777035912828       -0.92370920276983
H           -5.55487112446279       -0.69897085714861        0.03535982117533
H            0.02361881471109       -2.16151985428912        0.12656798846238
H           -1.86502504405019        2.47171455567517       -0.02307756748281
H            0.32839461077769        4.18579148875607       -0.06792766679490
H            2.59783721583025        5.17045379813851       -0.10569729693044
H            4.58593157550947        3.73944641535028       -0.13463614665314
H            4.38230492965079        1.28237318484311       -0.09866369038945
H            1.69363390135422       -2.03158801910383       -1.63673652187861
H            3.19776626030172       -3.98440468141488       -1.64375529537032
H            5.07256163155941       -4.10756444856187       -0.04373032669513
H            5.42332680246319       -2.28458656063589        1.58154860201458
H            3.89247594250403       -0.35377419489540        1.62253414281274

 projected vibrational frequencies (cm⁻¹)
eigval :       -0.00    -0.00    -0.00     0.00     0.00     0.00
eigval :       27.83    46.83    54.56    64.25    70.83    95.40
eigval :      108.09   116.79   147.36   164.88   176.74   208.76
eigval :      219.78   241.80   247.25   257.31   292.09   343.07
eigval :      347.19   357.16   379.49   388.59   397.21   423.05
eigval :      457.44   477.96   483.03   496.40   526.91   542.62
eigval :      558.39   577.56   583.39   592.43   599.97   618.35
eigval :      641.70   654.12   664.71   689.25   692.83   701.37
eigval :      724.35   726.83   759.88   769.52   792.64   806.36
eigval :      848.48   866.45   879.82   899.11   902.14   908.00
eigval :      915.39   919.56   930.88   932.06   982.43   992.60
eigval :     1001.58  1065.53  1075.65  1078.47  1111.57  1118.34
eigval :     1118.57  1119.37  1148.82  1164.01  1168.22  1175.85
eigval :     1179.29  1187.67  1194.11  1214.16  1214.65  1243.62
eigval :     1260.05  1274.44  1292.91  1319.18  1339.31  1353.94
eigval :     1381.62  1384.86  1397.50  1402.83  1431.51  1439.72
eigval :     1459.11  1465.43  1469.60  1480.19  1483.42  1491.25
eigval :     1505.48  1563.62  1566.66  1570.00  1580.18  1625.16
eigval :     2934.68  2948.21  3026.06  3084.08  3085.26  3088.24
eigval :     3089.04  3095.49  3097.39  3099.61  3103.30  3104.93
eigval :     3120.37  3138.54  3140.41

   temp. (K)  partition function   enthalpy   heat capacity  entropy
                                   cal/mol     cal/K/mol   cal/K/mol   J/K/mol
 298.15  VIB  0.340E+08            11487.228     76.190     69.505
         ROT  0.132E+08              888.752      2.981     35.561
         INT  0.448E+15            12375.980     79.171    105.067
         TR   0.610E+28             1481.254      4.968     43.358
         TOT                       13857.2343    84.1393   148.4246   621.0085

       T/K    H(0)-H(T)+PV         H(T)/Eh          T*S/Eh         G(T)/Eh
   ------------------------------------------------------------------------
    298.15    0.220829E-01    0.324087E+00    0.705213E-01    0.253565E+00
   ------------------------------------------------------------------------

         :::::::::::::::::::::::::::::::::::::::::::::::::::::
         ::                  THERMODYNAMIC                  ::
         :::::::::::::::::::::::::::::::::::::::::::::::::::::
         :: total free energy         -69.583479884384 Eh   ::
         ::.................................................::
         :: total energy              -69.837045119733 Eh   ::
         :: zero point energy           0.302003640400 Eh   ::
         :: G(RRHO) w/o ZPVE           -0.048438405052 Eh   ::
         :: G(RRHO) contrib.            0.253565235348 Eh   ::
         :::::::::::::::::::::::::::::::::::::::::::::::::::::

           -------------------------------------------------
          | TOTAL ENERGY              -69.837045119733 Eh   |
          | TOTAL ENTHALPY            -69.512958570764 Eh   |
          | TOTAL FREE ENERGY         -69.583479884384 Eh   |
          | GRADIENT NORM               0.000069993458 Eh/α |
           -------------------------------------------------

 * finished run on 2025/08/26 at 02:40:47.520
