   * xtb version 6.7.1 (edcfbbe) compiled by 'albert@albert-system' on 2024-07-22

   ID    Z sym.   atoms
    1    6 C      1, 3-5, 8-19, 21-26
    2    8 O      2, 6, 7
    3    7 N      20
    4    1 H      27-41

          program call               : xtb data2507/gas/2CzMC/2CzMC.xyz --gfn 2 --ohess vtight --parallel 40 --molden --ceasefiles --namespace data2507/gas/2CzMC/2CzMC_gas_S0_preOpt
          :  Hamiltonian                  GFN2-xTB          :
 * total energy  :   -69.9191624 Eh     change       -0.2713648E-08 Eh
 * total energy  :   -69.9296983 Eh     change       -0.1053593E-01 Eh
 * total energy  :   -69.9326867 Eh     change       -0.2988356E-02 Eh
 * total energy  :   -69.9330747 Eh     change       -0.3880041E-03 Eh
 * total energy  :   -69.9332771 Eh     change       -0.2024198E-03 Eh
 * total energy  :   -69.9333718 Eh     change       -0.9470411E-04 Eh
 * total energy  :   -69.9334451 Eh     change       -0.7330377E-04 Eh
 * total energy  :   -69.9335019 Eh     change       -0.5679707E-04 Eh
 * total energy  :   -69.9335444 Eh     change       -0.4253796E-04 Eh
 * total energy  :   -69.9335762 Eh     change       -0.3173885E-04 Eh
 * total energy  :   -69.9336135 Eh     change       -0.7523524E-05 Eh
 * total energy  :   -69.9336170 Eh     change       -0.3480767E-05 Eh
 * total energy  :   -69.9336203 Eh     change       -0.3311198E-05 Eh
 * total energy  :   -69.9336218 Eh     change       -0.1539251E-05 Eh
 * total energy  :   -69.9336227 Eh     change       -0.8940955E-06 Eh
 * total energy  :   -69.9336236 Eh     change       -0.8746867E-06 Eh
 * total energy  :   -69.9336242 Eh     change       -0.5698830E-06 Eh
 * total energy  :   -69.9336243 Eh     change       -0.1540855E-06 Eh
 * total energy  :   -69.9336244 Eh     change       -0.8369786E-07 Eh
   *** GEOMETRY OPTIMIZATION CONVERGED AFTER 22 ITERATIONS ***

 final structure:
================
41
 xtb: 6.7.1 (edcfbbe)
C           -6.02014818158064        0.66256510981395       -0.04680865226308
O           -4.61139300368553        0.71942214016900       -0.02475730739267
C           -3.92248384846186       -0.43569916045016       -0.08455226044761
C           -4.46282795342622       -1.67806841828980       -0.16609915025394
C           -3.64678423388297       -2.86561192993738       -0.22653972359919
O           -4.06973214321353       -3.99396107142170       -0.30061327885592
O           -2.28553557810594       -2.69509179467635       -0.19596948046275
C           -1.71356426181433       -1.47292162140319       -0.11290422262564
C           -0.32518457441023       -1.43365192923150       -0.08687746269089
C            0.28593333745196       -0.19536702035561        0.00486992017548
C           -0.47664968726142        1.00488569528424        0.04116707551307
C           -1.85386121141849        0.95166619916340        0.01383431311450
C           -2.48352867544907       -0.29122152682009       -0.05603088001412
C            0.47115244898147        2.08436193492207        0.09383635547582
C            0.34271078359487        3.46489826027230        0.16077604399944
C            1.48958648516630        4.23199208478818        0.22236138125996
C            2.74912280312623        3.63809602552158        0.23159717542571
C            2.90125041735650        2.26543403745564        0.16567099296303
C            1.75368899363601        1.49191915633636        0.08154147638657
N            1.62213998042294        0.11504485169340        0.02729638406149
C            2.68156697300035       -0.80851880937645        0.00491756772130
C            3.70730719544830       -0.66918771563056       -0.92421583003907
C            4.75137940023651       -1.57589594706412       -0.93789492937659
C            4.77503220691507       -2.62729074225487       -0.03677181059375
C            3.75080824876482       -2.76919660867258        0.88467929946247
C            2.70743148495964       -1.86223240782278        0.91262980975787
H           -6.38428590365025        0.20942966816564       -0.97311839236353
H           -6.40777649299551        0.10218657582224        0.80859419401698
H           -6.35788260898257        1.69575475153120        0.01098606817711
H           -5.52387482687323       -1.85909769092867       -0.19143093620274
H            0.23065527542844       -2.35468950829030       -0.14831641646941
H           -2.45376057460909        1.84644158946533        0.04208205009566
H           -0.63436078867962        3.92305864617055        0.16846516072867
H            1.41315775725497        5.30768767432834        0.27289283120352
H            3.62734401513246        4.26314755962717        0.29514985962242
H            3.88096937386603        1.81325482559568        0.19011165701976
H            3.67336250957061        0.13992528687877       -1.63840745856534
H            5.54564465166633       -1.46480584134400       -1.66092672207106
H            5.58957028310676       -3.33530392969585       -0.05320794865080
H            3.76692626926362       -3.58613896371187        1.59035284116448
H            1.91689665415012       -1.95721643562699        1.64162940559294

          :  Hamiltonian                  GFN2-xTB          :
         :: gradient norm              0.000049773502 Eh/a0 ::
         :: HOMO-LUMO gap              2.707372234107 eV    ::
         :: SCC energy               -71.050716310612 Eh    ::
         :: -> dispersion             -0.050706727969 Eh    ::
         :: repulsion energy           1.117091884409 Eh    ::

    * Orbital Energies and Occupations

         #    Occupation            Energy/Eh            Energy/eV
      -------------------------------------------------------------
         1        2.0000           -0.7400641             -20.1382
       ...           ...                  ...                  ...
        51        2.0000           -0.4534911             -12.3401
        52        2.0000           -0.4438317             -12.0773
        53        2.0000           -0.4401381             -11.9768
        54        2.0000           -0.4345952             -11.8259
        55        2.0000           -0.4295727             -11.6893
        56        2.0000           -0.4287282             -11.6663
        57        2.0000           -0.4240985             -11.5403
        58        2.0000           -0.4210595             -11.4576
        59        2.0000           -0.4188070             -11.3963
        60        2.0000           -0.4026774             -10.9574
        61        2.0000           -0.3999590             -10.8834
        62        2.0000           -0.3855509             -10.4914
        63        2.0000           -0.3740579             -10.1786 (HOMO)
        64                         -0.2745638              -7.4713 (LUMO)
        65                         -0.2558094              -6.9609
        66                         -0.2410000              -6.5579
        67                         -0.2395868              -6.5195
        68                         -0.2225815              -6.0567
        69                         -0.2074958              -5.6462
        70                         -0.1978641              -5.3842
        71                         -0.1430384              -3.8923
        72                         -0.1097956              -2.9877
        73                         -0.0914243              -2.4878
        74                         -0.0669191              -1.8210
       ...                                ...                  ...
       119                          0.7392258              20.1154
      -------------------------------------------------------------
                  HL-Gap            0.0994940 Eh            2.7074 eV

     #   Z          covCN         q      C6AA      α(0)
     1   6 C        3.648     0.030    20.399     6.489
     2   8 O        1.705    -0.245    18.059     5.738
     3   6 C        2.861     0.160    24.533     8.119
     4   6 C        2.901    -0.131    31.355     9.181
     5   6 C        2.716     0.342    21.194     7.536
     6   8 O        0.857    -0.408    21.834     6.265
     7   8 O        1.709    -0.234    17.883     5.710
     8   6 C        2.877     0.141    24.924     8.184
     9   6 C        2.908    -0.074    29.840     8.957
    10   6 C        3.073     0.054    26.716     8.475
    11   6 C        3.065    -0.018    28.402     8.739
    12   6 C        2.914    -0.031    28.772     8.796
    13   6 C        2.982    -0.035    28.853     8.811
    14   6 C        3.064    -0.014    28.287     8.721
    15   6 C        2.913    -0.031    28.781     8.797
    16   6 C        2.920    -0.039    28.958     8.825
    17   6 C        2.924    -0.031    28.779     8.798
    18   6 C        2.910    -0.049    29.204     8.861
    19   6 C        3.078     0.048    26.843     8.494
    20   7 N        2.802    -0.034    21.903     6.951
    21   6 C        2.914     0.063    26.595     8.457
    22   6 C        2.922    -0.041    29.016     8.834
    23   6 C        2.920    -0.027    28.672     8.781
    24   6 C        2.919    -0.031    28.769     8.796
    25   6 C        2.920    -0.026    28.651     8.778
    26   6 C        2.922    -0.041    29.022     8.835
    27   1 H        0.924     0.052     2.300     2.372
    28   1 H        0.924     0.052     2.300     2.372
    29   1 H        0.925     0.070     2.090     2.261
    30   1 H        0.926     0.062     2.181     2.310
    31   1 H        0.926     0.061     2.187     2.313
    32   1 H        0.926     0.062     2.178     2.308
    33   1 H        0.926     0.036     2.497     2.471
    34   1 H        0.926     0.034     2.534     2.489
    35   1 H        0.926     0.035     2.521     2.483
    36   1 H        0.926     0.033     2.544     2.494
    37   1 H        0.926     0.043     2.415     2.430
    38   1 H        0.926     0.040     2.453     2.449
    39   1 H        0.926     0.040     2.455     2.450
    40   1 H        0.926     0.042     2.428     2.437
    41   1 H        0.926     0.044     2.399     2.422

molecular dipole:
                 x           y           z       tot (Debye)
 q only:        1.140       1.922       0.148
   full:        0.995       1.979       0.149       5.644

 projected vibrational frequencies (cm⁻¹)
eigval :       -0.00    -0.00    -0.00    -0.00     0.00     0.00
eigval :       29.23    46.73    54.68    62.95    75.54   116.21
eigval :      118.51   122.05   159.02   176.95   191.31   221.32
eigval :      230.03   240.61   251.46   268.72   294.96   347.88
eigval :      360.00   379.86   386.11   396.40   413.55   435.80
eigval :      463.04   483.85   514.24   536.46   538.64   561.29
eigval :      577.29   587.88   602.47   606.37   650.87   654.33
eigval :      668.50   670.74   701.37   703.06   709.09   736.73
eigval :      764.13   777.00   812.21   819.72   847.41   855.45
eigval :      868.04   872.61   884.27   903.25   908.59   920.67
eigval :      923.37   932.85   933.95   935.40   995.72  1001.98
eigval :     1018.65  1071.09  1080.22  1107.22  1117.75  1118.27
eigval :     1129.85  1138.28  1155.95  1169.54  1178.48  1180.79
eigval :     1185.93  1197.28  1207.41  1234.08  1254.92  1267.69
eigval :     1276.94  1295.31  1317.73  1325.55  1354.30  1367.74
eigval :     1398.50  1399.63  1422.03  1432.15  1436.48  1463.19
eigval :     1470.67  1475.89  1481.92  1483.20  1550.85  1583.39
eigval :     1585.76  1594.51  1597.34  1603.96  1616.80  1736.04
eigval :     2951.41  2962.56  3032.84  3081.02  3082.14  3084.99
eigval :     3086.88  3092.61  3094.04  3096.69  3100.13  3102.10
eigval :     3117.81  3118.03  3132.17

   temp. (K)  partition function   enthalpy   heat capacity  entropy
                                   cal/mol     cal/K/mol   cal/K/mol   J/K/mol
 298.15  VIB  0.151E+08            11079.670     74.124     66.670
         ROT  0.131E+08              888.752      2.981     35.553
         INT  0.198E+15            11968.423     77.105    102.223
         TR   0.610E+28             1481.254      4.968     43.358
         TOT                       13449.6766    82.0734   145.5810   609.1110

       T/K    H(0)-H(T)+PV         H(T)/Eh          T*S/Eh         G(T)/Eh
   ------------------------------------------------------------------------
    298.15    0.214334E-01    0.327896E+00    0.691702E-01    0.258726E+00
   ------------------------------------------------------------------------

         :::::::::::::::::::::::::::::::::::::::::::::::::::::
         ::                  THERMODYNAMIC                  ::
         :::::::::::::::::::::::::::::::::::::::::::::::::::::
         :: total free energy         -69.674898915269 Eh   ::
         ::.................................................::
         :: total energy              -69.933624426204 Eh   ::
         :: zero point energy           0.306462331317 Eh   ::
         :: G(RRHO) w/o ZPVE           -0.047736820383 Eh   ::
         :: G(RRHO) contrib.            0.258725510935 Eh   ::
         :::::::::::::::::::::::::::::::::::::::::::::::::::::

           -------------------------------------------------
          | TOTAL ENERGY              -69.933624426204 Eh   |
          | TOTAL ENTHALPY            -69.605728670958 Eh   |
          | TOTAL FREE ENERGY         -69.674898915269 Eh   |
          | GRADIENT NORM               0.000049820175 Eh/α |
          | HOMO-LUMO GAP               2.707370660410 eV   |
           -------------------------------------------------

 * finished run on 2025/08/26 at 02:38:22.065
