   * xtb version 6.7.1 (edcfbbe) compiled by 'albert@albert-system' on 2024-07-22

   ID    Z sym.   atoms
    1    6 C      1-6, 8-13, 15-18, 22, 23
    2    8 O      7
    3    7 N      14, 19, 21
    4   16 S      20
    5    1 H      24-34

          program call               : xtb data2507/gas/BTD-PXZ/BTD-PXZ_gas_T1_crest.xyz --gfn 2 --spinpol --tblite --uhf 2 --ohess vtight --parallel 40 --molden --ceasefiles --namespace data2507/gas/BTD-PXZ/BTD-PXZ_gas_T1_finalOpt
 * total energy  :   -60.1889764 Eh     change       -0.9795464E-08 Eh
 * total energy  :   -60.1889950 Eh     change       -0.1855630E-04 Eh
 * total energy  :   -60.1890020 Eh     change       -0.7068663E-05 Eh
 * total energy  :   -60.1890034 Eh     change       -0.1343231E-05 Eh
 * total energy  :   -60.1890047 Eh     change       -0.1368379E-05 Eh
 * total energy  :   -60.1890060 Eh     change       -0.1217053E-05 Eh
 * total energy  :   -60.1890073 Eh     change       -0.1397228E-05 Eh
 * total energy  :   -60.1890088 Eh     change       -0.1425840E-05 Eh
 * total energy  :   -60.1890096 Eh     change       -0.8627544E-06 Eh
 * total energy  :   -60.1890100 Eh     change       -0.3869879E-06 Eh
 * total energy  :   -60.1890102 Eh     change       -0.2010936E-06 Eh
 * total energy  :   -60.1890104 Eh     change       -0.2168019E-06 Eh
 * total energy  :   -60.1890106 Eh     change       -0.1791963E-06 Eh
 * total energy  :   -60.1890108 Eh     change       -0.1903761E-06 Eh
 * total energy  :   -60.1890110 Eh     change       -0.1527882E-06 Eh
 * total energy  :   -60.1890111 Eh     change       -0.1141535E-06 Eh
 * total energy  :   -60.1890111 Eh     change       -0.6575480E-07 Eh
   *** GEOMETRY OPTIMIZATION CONVERGED AFTER 17 ITERATIONS ***

 final structure:
================
34
 xtb: 6.7.1 (edcfbbe)
C           -3.52132589019018       -3.25907522473660       -0.41435562961963
C           -2.16237740929190       -3.50140248389524       -0.28761555833667
C           -1.27758065199292       -2.45760345683079       -0.09981663514540
C           -1.73304256173959       -1.14086542631995       -0.02275925636226
C           -3.10689423336416       -0.90375706418749       -0.20650435334530
C           -3.98913897907762       -1.95807058919505       -0.38769405690882
O           -3.63121348990212        0.35413980826338       -0.24648721368556
C           -2.77921108102218        1.40413703467423       -0.07111032719284
C           -3.32859055616410        2.67634990768210       -0.09919948308853
C           -2.52626693823651        3.78328427231447        0.11416738576353
C           -1.17897129253268        3.61271797338772        0.39013635265912
C           -0.62365384280404        2.34798564137141        0.42332694062691
C           -1.40354177328917        1.22177192691984        0.15380995168251
N           -0.87322828709723       -0.06311379470376        0.16136837267604
C            0.50676079315452       -0.24747892296060        0.32930686441354
C            0.99666362681290       -1.06396660023811        1.33816859489300
C            2.36107550745816       -1.25413783918886        1.50923133948877
C            3.25631707168599       -0.64390390874630        0.61405145732708
N            4.56900772597464       -0.76786396385408        0.59743142290714
S            5.16200421751896        0.18559930836049       -0.65242413817157
N            3.72012090322886        0.73086790352056       -1.20306007962199
C            2.74513330042111        0.21141920480570       -0.43943273241506
C            1.38702887420381        0.41120502392242       -0.58065614465199
H           -4.21215211679333       -4.07544802034905       -0.55136150906682
H           -1.78423122046968       -4.51011806230717       -0.34040420272760
H           -0.22085170727732       -2.65612262499468       -0.02569545494536
H           -5.03517887454517       -1.73028782769991       -0.51451653250205
H           -4.38646247809231        2.77149591279596       -0.28343561288492
H           -2.95788870856010        4.77100505491182        0.08750548571540
H           -0.55420903889891        4.46820405354574        0.59235533282930
H            0.41994476683712        2.22504064860809        0.66328541176471
H            0.30405055832707       -1.51991145640013        2.03070760099791
H            2.74290184316815       -1.83266085408522        2.33385039096408
H            0.99256960154994        0.97414882420896       -1.41112594873673

 projected vibrational frequencies (cm⁻¹)
eigval :       -0.00    -0.00     0.00     0.00     0.00     0.00
eigval :       33.09    35.73    60.82    68.57   115.18   145.79
eigval :      170.72   186.19   208.69   246.86   264.19   287.14
eigval :      295.59   337.79   372.01   392.60   402.33   409.52
eigval :      427.82   438.02   472.07   495.83   500.84   512.72
eigval :      535.92   560.53   571.46   604.52   624.62   628.86
eigval :      668.12   674.70   678.28   687.82   705.84   751.70
eigval :      771.26   781.08   785.22   789.47   811.27   847.96
eigval :      858.45   860.27   862.14   868.98   883.88   903.36
eigval :      909.00   914.17   919.71   923.18   978.70  1085.35
eigval :     1086.09  1108.88  1116.32  1117.58  1162.49  1172.79
eigval :     1182.24  1203.49  1211.67  1220.46  1238.61  1244.86
eigval :     1252.67  1292.43  1296.91  1315.59  1320.97  1341.74
eigval :     1349.68  1382.89  1409.65  1416.12  1438.50  1439.63
eigval :     1459.53  1486.27  1512.13  1553.73  1561.42  1573.32
eigval :     1584.36  3077.67  3099.49  3099.92  3101.17  3107.09
eigval :     3107.48  3112.63  3114.61  3116.26  3117.85  3118.48

   temp. (K)  partition function   enthalpy   heat capacity  entropy
                                   cal/mol     cal/K/mol   cal/K/mol   J/K/mol
 298.15  VIB  0.532E+06             9124.383     63.240     53.550
         ROT  0.931E+07              888.752      2.981     34.870
         INT  0.495E+13            10013.136     66.221     88.420
         TR   0.547E+28             1481.254      4.968     43.141
         TOT                       11494.3896    71.1890   131.5612   550.4520

       T/K    H(0)-H(T)+PV         H(T)/Eh          T*S/Eh         G(T)/Eh
   ------------------------------------------------------------------------
    298.15    0.183175E-01    0.258782E+00    0.625090E-01    0.196273E+00
   ------------------------------------------------------------------------

         :::::::::::::::::::::::::::::::::::::::::::::::::::::
         ::                  THERMODYNAMIC                  ::
         :::::::::::::::::::::::::::::::::::::::::::::::::::::
         :: total free energy         -59.992738439844 Eh   ::
         ::.................................................::
         :: total energy              -60.189011149118 Eh   ::
         :: zero point energy           0.240464199312 Eh   ::
         :: G(RRHO) w/o ZPVE           -0.044191490038 Eh   ::
         :: G(RRHO) contrib.            0.196272709274 Eh   ::
         :::::::::::::::::::::::::::::::::::::::::::::::::::::

           -------------------------------------------------
          | TOTAL ENERGY              -60.189011149118 Eh   |
          | TOTAL ENTHALPY            -59.930229473968 Eh   |
          | TOTAL FREE ENERGY         -59.992738439844 Eh   |
          | GRADIENT NORM               0.000030777002 Eh/α |
           -------------------------------------------------

 * finished run on 2025/08/23 at 06:43:17.314
