   * xtb version 6.7.1 (edcfbbe) compiled by 'albert@albert-system' on 2024-07-22

   ID    Z sym.   atoms
    1    6 C      1-6, 8-13, 15-18, 22, 23
    2    8 O      7
    3    7 N      14, 19, 21
    4   16 S      20
    5    1 H      24-34

          program call               : xtb data2507/gas/BTD-PXZ/BTD-PXZ_gas_S0_finalOpt.xtbopt.xyz --gfn 2 --spinpol --tblite --uhf 2 --ohess vtight --parallel 40 --molden --ceasefiles --namespace data2507/gas/BTD-PXZ/BTD-PXZ_gas_T1_preOpt
 * total energy  :   -60.1821299 Eh     change       -0.8590192E-08 Eh
 * total energy  :   -60.1864842 Eh     change       -0.4354273E-02 Eh
 * total energy  :   -60.1882866 Eh     change       -0.1802361E-02 Eh
 * total energy  :   -60.1885256 Eh     change       -0.2390433E-03 Eh
 * total energy  :   -60.1886662 Eh     change       -0.1406129E-03 Eh
 * total energy  :   -60.1887207 Eh     change       -0.5451379E-04 Eh
 * total energy  :   -60.1887749 Eh     change       -0.5420832E-04 Eh
 * total energy  :   -60.1888157 Eh     change       -0.4079417E-04 Eh
 * total energy  :   -60.1888497 Eh     change       -0.3397820E-04 Eh
 * total energy  :   -60.1888801 Eh     change       -0.3036409E-04 Eh
 * total energy  :   -60.1890088 Eh     change       -0.4067071E-06 Eh
 * total energy  :   -60.1890093 Eh     change       -0.5124998E-06 Eh
 * total energy  :   -60.1890098 Eh     change       -0.5047149E-06 Eh
 * total energy  :   -60.1890102 Eh     change       -0.4170417E-06 Eh
 * total energy  :   -60.1890105 Eh     change       -0.2811870E-06 Eh
 * total energy  :   -60.1890106 Eh     change       -0.1389518E-06 Eh
 * total energy  :   -60.1890108 Eh     change       -0.1215806E-06 Eh
 * total energy  :   -60.1890109 Eh     change       -0.1094606E-06 Eh
 * total energy  :   -60.1890110 Eh     change       -0.8416251E-07 Eh
   *** GEOMETRY OPTIMIZATION CONVERGED AFTER 35 ITERATIONS ***

 final structure:
================
34
 xtb: 6.7.1 (edcfbbe)
C           -2.65730118923791       -3.71959001468612       -0.02426132221703
C           -1.30450499460273       -3.60082850648433       -0.30048805857068
C           -0.70659119983230       -2.35664933678139       -0.35998053593542
C           -1.44837221043345       -1.19904339606053       -0.11724594565541
C           -2.82980565531632       -1.32975320937585        0.10831558442718
C           -3.42202034796597       -2.58172622317118        0.16288227516294
O           -3.64603728762447       -0.24793008334322        0.25864954597793
C           -3.07924343937989        0.99031664767823        0.19297481785084
C           -3.92537613264513        2.07762860270648        0.34972375696306
C           -3.41361878805763        3.36226443320037        0.34952048479807
C           -2.04705821797112        3.55555340138561        0.22033195305818
C           -1.19801024567314        2.47852520450622        0.05671872945187
C           -1.69788487697668        1.17666602356929        0.00708792974521
N           -0.87488761764328        0.06668651806171       -0.15189923622444
C            0.51071506155768        0.20070321542106       -0.32154744922254
C            1.02867262400896        0.97721153596291       -1.34778846999876
C            2.39887506197997        1.11743138454468       -1.52087917579287
C            3.27223206118626        0.49805366418349       -0.61051380417546
N            4.58835868486986        0.57821287117545       -0.59450686818973
S            5.14784449598518       -0.36562679740637        0.67782469896491
N            3.68789191141260       -0.84950625801060        1.23836714011734
C            2.73164256271300       -0.31528942827273        0.46135861719059
C            1.36745149392693       -0.46628355206812        0.60464239987599
H           -3.12219890861560       -4.69131249197774        0.02290424158156
H           -0.70873785321934       -4.48120777061437       -0.48235118962731
H            0.34100609394723       -2.27437207764947       -0.59991641363768
H           -4.48282067511623       -2.63696410161913        0.34655811466062
H           -4.97873118980144        1.88829966000606        0.47920350657325
H           -4.07646756243410        4.20437363272965        0.46768364113789
H           -1.63491985444683        4.55175109044998        0.25229050550938
H           -0.13504560409193        2.63936303220965       -0.01961224169353
H            0.35237457950402        1.44042998177618       -2.05153556224767
H            2.80071254798658        1.66380932099864       -2.35782063393515
H            0.95347084555133       -0.99669065212126        1.44694319251208

 projected vibrational frequencies (cm⁻¹)
eigval :       -0.00    -0.00    -0.00     0.00     0.00     0.00
eigval :       33.11    35.68    60.88    68.53   115.12   145.81
eigval :      170.68   186.18   208.42   246.79   264.19   287.05
eigval :      295.55   337.80   371.96   392.60   402.25   409.61
eigval :      427.87   437.98   472.01   495.87   500.88   512.72
eigval :      535.95   560.62   571.52   604.57   624.62   628.82
eigval :      668.13   674.69   678.26   687.87   705.93   751.68
eigval :      771.22   781.04   785.17   789.54   811.11   847.73
eigval :      858.43   859.81   862.01   868.93   883.76   903.31
eigval :      908.93   914.20   919.67   923.09   978.63  1085.30
eigval :     1086.04  1108.82  1116.30  1117.42  1162.61  1172.78
eigval :     1182.21  1203.61  1211.72  1220.45  1238.59  1244.97
eigval :     1252.59  1292.42  1297.04  1315.72  1320.98  1341.76
eigval :     1349.81  1382.87  1409.59  1416.09  1438.51  1439.64
eigval :     1459.45  1486.21  1512.27  1553.70  1561.41  1573.30
eigval :     1584.34  3077.74  3099.64  3100.02  3101.39  3107.21
eigval :     3107.59  3113.02  3114.73  3116.46  3118.17  3118.63

   temp. (K)  partition function   enthalpy   heat capacity  entropy
                                   cal/mol     cal/K/mol   cal/K/mol   J/K/mol
 298.15  VIB  0.533E+06             9125.041     63.242     53.556
         ROT  0.931E+07              888.752      2.981     34.870
         INT  0.496E+13            10013.794     66.223     88.426
         TR   0.547E+28             1481.254      4.968     43.141
         TOT                       11495.0476    71.1914   131.5664   550.4740

       T/K    H(0)-H(T)+PV         H(T)/Eh          T*S/Eh         G(T)/Eh
   ------------------------------------------------------------------------
    298.15    0.183185E-01    0.258783E+00    0.625115E-01    0.196272E+00
   ------------------------------------------------------------------------

         :::::::::::::::::::::::::::::::::::::::::::::::::::::
         ::                  THERMODYNAMIC                  ::
         :::::::::::::::::::::::::::::::::::::::::::::::::::::
         :: total free energy         -59.992738951870 Eh   ::
         ::.................................................::
         :: total energy              -60.189010965650 Eh   ::
         :: zero point energy           0.240464954113 Eh   ::
         :: G(RRHO) w/o ZPVE           -0.044192940333 Eh   ::
         :: G(RRHO) contrib.            0.196272013780 Eh   ::
         :::::::::::::::::::::::::::::::::::::::::::::::::::::

           -------------------------------------------------
          | TOTAL ENERGY              -60.189010965650 Eh   |
          | TOTAL ENTHALPY            -59.930227487194 Eh   |
          | TOTAL FREE ENERGY         -59.992738951870 Eh   |
          | GRADIENT NORM               0.000044096624 Eh/α |
           -------------------------------------------------

 * finished run on 2025/08/23 at 06:42:07.365
