   * xtb version 6.7.1 (edcfbbe) compiled by 'albert@albert-system' on 2024-07-22

   ID    Z sym.   atoms
    1    6 C      1-6, 8-13, 15-18, 22, 23
    2    8 O      7
    3    7 N      14, 19, 21
    4   16 S      20
    5    1 H      24-34

          program call               : xtb data2507/gas/BTD-PXZ/BTD-PXZ_gas_S0_crest.xyz --gfn 2 --ohess vtight --parallel 40 --molden --ceasefiles --namespace data2507/gas/BTD-PXZ/BTD-PXZ_gas_S0_finalOpt
          :  Hamiltonian                  GFN2-xTB          :
 * total energy  :   -60.2552267 Eh     change       -0.1317986E-08 Eh
 * total energy  :   -60.2552283 Eh     change       -0.1636482E-05 Eh
 * total energy  :   -60.2552296 Eh     change       -0.1232014E-05 Eh
 * total energy  :   -60.2552305 Eh     change       -0.9867336E-06 Eh
 * total energy  :   -60.2552315 Eh     change       -0.9955409E-06 Eh
 * total energy  :   -60.2552325 Eh     change       -0.9591336E-06 Eh
 * total energy  :   -60.2552330 Eh     change       -0.5200196E-06 Eh
 * total energy  :   -60.2552332 Eh     change       -0.1419443E-06 Eh
 * total energy  :   -60.2552332 Eh     change       -0.6513200E-07 Eh
   *** GEOMETRY OPTIMIZATION CONVERGED AFTER 9 ITERATIONS ***

 final structure:
================
34
 xtb: 6.7.1 (edcfbbe)
C           -2.72412296300620       -3.73616565710301       -0.10904438146731
C           -1.35265321237939       -3.64826640035707       -0.23564106825351
C           -0.72427682983833       -2.41249995398763       -0.22142087934056
C           -1.45655365726894       -1.24145751500788       -0.07270308618591
C           -2.85166544538250       -1.34036789519679        0.02029006281539
C           -3.47311180638328       -2.57564628265605        0.01097802002250
O           -3.66769406065028       -0.23999829728089        0.10252692466183
C           -3.06694880654836        0.99215980022905        0.14029654160211
C           -3.89549722833719        2.09158730871115        0.26842811673387
C           -3.35818013704377        3.36787178645341        0.34514238166419
C           -1.98810864788902        3.53214032115149        0.31655193329723
C           -1.15293419775817        2.43282736270309        0.18845131609348
C           -1.67670662872123        1.15120341598217        0.07004269418125
N           -0.86095003939402        0.02449838529675       -0.06504935771601
C            0.52979517799345        0.17964931414126       -0.22266604981599
C            1.00020804450546        0.89826378412212       -1.35403069097941
C            2.33063024978554        1.08107685955244       -1.59071741243643
C            3.24920630110881        0.53675683683157       -0.67525234616031
N            4.57920559356600        0.60243721232373       -0.71370948824726
S            5.16859159222107       -0.17730656405808        0.56323059109408
N            3.78019127427953       -0.64137717409926        1.22909126392330
C            2.77579122930065       -0.19672768212804        0.47075968789875
C            1.40151072262215       -0.36370870496458        0.69061558637332
H           -3.21720520112179       -4.69527208516342       -0.11315900064212
H           -0.75601930744993       -4.54016391224600       -0.34904122680097
H            0.34666477948045       -2.36158750663977       -0.33741102188412
H           -4.54796502964936       -2.60524086452278        0.09127359439638
H           -4.96011276269520        1.92607059643736        0.31024642574023
H           -4.01230834739784        4.22001227993185        0.44038069338709
H           -1.55389356913955        4.51651070725325        0.39914514913254
H           -0.08332822707462        2.57380262715477        0.18747543757448
H            0.26710660550674        1.28932835520846       -2.04411426497249
H            2.68984632159134        1.61706288319181       -2.45417514150112
H            1.05310631276771       -0.90307779416437        1.55676806621158

          :  Hamiltonian                  GFN2-xTB          :
         :: gradient norm              0.000050604549 Eh/a0 ::
         :: HOMO-LUMO gap              1.007132351772 eV    ::
         :: SCC energy               -61.204991625273 Eh    ::
         :: -> dispersion             -0.045512600470 Eh    ::
         :: repulsion energy           0.949758403414 Eh    ::

    * Orbital Energies and Occupations

         #    Occupation            Energy/Eh            Energy/eV
      -------------------------------------------------------------
         1        2.0000           -0.7636411             -20.7797
       ...           ...                  ...                  ...
        43        2.0000           -0.4539627             -12.3530
        44        2.0000           -0.4508108             -12.2672
        45        2.0000           -0.4386441             -11.9361
        46        2.0000           -0.4372038             -11.8969
        47        2.0000           -0.4282882             -11.6543
        48        2.0000           -0.4177497             -11.3675
        49        2.0000           -0.4166149             -11.3367
        50        2.0000           -0.4158558             -11.3160
        51        2.0000           -0.4140831             -11.2678
        52        2.0000           -0.4126030             -11.2275
        53        2.0000           -0.4063877             -11.0584
        54        2.0000           -0.3920213             -10.6674
        55        2.0000           -0.3460842              -9.4174 (HOMO)
        56                         -0.3090727              -8.4103 (LUMO)
        57                         -0.2404296              -6.5424
        58                         -0.2337379              -6.3603
        59                         -0.2316471              -6.3034
        60                         -0.2238676              -6.0917
        61                         -0.2165786              -5.8934
        62                         -0.2145533              -5.8383
        63                         -0.1970007              -5.3607
        64                         -0.1399468              -3.8081
        65                         -0.1120936              -3.0502
        66                         -0.1046320              -2.8472
       ...                                ...                  ...
       108                          0.7238155              19.6960
      -------------------------------------------------------------
                  HL-Gap            0.0370115 Eh            1.0071 eV

     #   Z          covCN         q      C6AA      α(0)
     1   6 C        2.919    -0.039    28.974     8.827
     2   6 C        2.919    -0.038    28.938     8.821
     3   6 C        2.924    -0.059    29.469     8.902
     4   6 C        2.920     0.042    27.057     8.530
     5   6 C        2.885     0.125    25.250     8.238
     6   6 C        2.920    -0.055    29.379     8.888
     7   8 O        1.709    -0.253    18.185     5.758
     8   6 C        2.884     0.126    25.245     8.237
     9   6 C        2.920    -0.056    29.389     8.890
    10   6 C        2.919    -0.039    28.973     8.827
    11   6 C        2.919    -0.038    28.955     8.824
    12   6 C        2.924    -0.059    29.459     8.901
    13   6 C        2.923     0.042    27.052     8.529
    14   7 N        2.752    -0.067    22.538     7.051
    15   6 C        2.921     0.066    26.530     8.447
    16   6 C        2.923    -0.039    28.974     8.827
    17   6 C        2.906    -0.040    28.997     8.830
    18   6 C        3.353     0.073    23.705     7.665
    19   7 N        1.852    -0.266    27.768     7.810
    20  16 S        2.686     0.338   128.026    19.044
    21   7 N        1.852    -0.270    27.874     7.825
    22   6 C        3.350     0.075    23.731     7.677
    23   6 C        2.910    -0.057    29.416     8.893
    24   1 H        0.926     0.040     2.452     2.449
    25   1 H        0.926     0.038     2.474     2.460
    26   1 H        0.926     0.036     2.500     2.473
    27   1 H        0.926     0.052     2.297     2.370
    28   1 H        0.926     0.052     2.298     2.371
    29   1 H        0.926     0.040     2.454     2.450
    30   1 H        0.926     0.037     2.483     2.464
    31   1 H        0.926     0.035     2.518     2.481
    32   1 H        0.926     0.050     2.324     2.384
    33   1 H        0.926     0.055     2.263     2.352
    34   1 H        0.926     0.056     2.244     2.342

molecular dipole:
                 x           y           z       tot (Debye)
 q only:        0.247       0.062      -0.093
   full:        0.034       0.125      -0.210       0.627

 projected vibrational frequencies (cm⁻¹)
eigval :       -0.00    -0.00    -0.00     0.00     0.00     0.00
eigval :       29.23    37.04    49.30    56.97   115.00   152.58
eigval :      167.71   187.12   218.67   250.47   263.24   288.82
eigval :      323.50   345.89   392.72   394.09   411.28   427.56
eigval :      430.86   447.81   503.33   508.49   511.06   518.54
eigval :      526.36   577.01   584.12   630.80   638.72   653.47
eigval :      661.02   662.58   690.17   723.88   778.54   779.24
eigval :      792.86   818.01   837.76   846.76   855.69   861.46
eigval :      865.39   872.83   880.75   897.08   899.83   901.96
eigval :      913.76   916.24   916.97   922.36   982.76  1090.23
eigval :     1091.06  1108.60  1110.83  1144.64  1163.54  1175.48
eigval :     1183.71  1200.50  1202.50  1218.62  1243.58  1261.44
eigval :     1268.72  1298.39  1310.79  1324.79  1333.38  1341.43
eigval :     1354.28  1422.60  1434.82  1444.28  1485.71  1489.17
eigval :     1504.04  1520.68  1567.82  1579.78  1588.45  1592.22
eigval :     1602.13  3089.10  3090.13  3090.85  3098.70  3100.49
eigval :     3105.53  3108.24  3109.92  3110.50  3113.61  3114.13

   temp. (K)  partition function   enthalpy   heat capacity  entropy
                                   cal/mol     cal/K/mol   cal/K/mol   J/K/mol
 298.15  VIB  0.631E+06             8930.940     61.436     52.567
         ROT  0.932E+07              888.752      2.981     34.872
         INT  0.588E+13             9819.693     64.417     87.440
         TR   0.547E+28             1481.254      4.968     43.141
         TOT                       11300.9466    69.3855   130.5807   546.3498

       T/K    H(0)-H(T)+PV         H(T)/Eh          T*S/Eh         G(T)/Eh
   ------------------------------------------------------------------------
    298.15    0.180092E-01    0.261110E+00    0.620431E-01    0.199067E+00
   ------------------------------------------------------------------------

         :::::::::::::::::::::::::::::::::::::::::::::::::::::
         ::                  THERMODYNAMIC                  ::
         :::::::::::::::::::::::::::::::::::::::::::::::::::::
         :: total free energy         -60.056166015923 Eh   ::
         ::.................................................::
         :: total energy              -60.255233221858 Eh   ::
         :: zero point energy           0.243101117513 Eh   ::
         :: G(RRHO) w/o ZPVE           -0.044033911578 Eh   ::
         :: G(RRHO) contrib.            0.199067205935 Eh   ::
         :::::::::::::::::::::::::::::::::::::::::::::::::::::

           -------------------------------------------------
          | TOTAL ENERGY              -60.255233221858 Eh   |
          | TOTAL ENTHALPY            -59.994122899557 Eh   |
          | TOTAL FREE ENERGY         -60.056166015923 Eh   |
          | GRADIENT NORM               0.000050714412 Eh/α |
          | HOMO-LUMO GAP               1.007132933128 eV   |
           -------------------------------------------------

 * finished run on 2025/08/23 at 06:42:05.195
