   * xtb version 6.7.1 (edcfbbe) compiled by 'albert@albert-system' on 2024-07-22

   ID    Z sym.   atoms
    1    6 C      1-6, 8-13, 15-18, 22, 23
    2    8 O      7
    3    7 N      14, 19, 21
    4   16 S      20
    5    1 H      24-34

          program call               : xtb data2507/gas/BTD-PXZ/BTD-PXZ.xyz --gfn 2 --ohess vtight --parallel 40 --molden --ceasefiles --namespace data2507/gas/BTD-PXZ/BTD-PXZ_gas_S0_preOpt
          :  Hamiltonian                  GFN2-xTB          :
 * total energy  :   -60.2362704 Eh     change       -0.4328271E-09 Eh
 * total energy  :   -60.2494244 Eh     change       -0.1315403E-01 Eh
 * total energy  :   -60.2528626 Eh     change       -0.3438171E-02 Eh
 * total energy  :   -60.2534618 Eh     change       -0.5992019E-03 Eh
 * total energy  :   -60.2536548 Eh     change       -0.1930268E-03 Eh
 * total energy  :   -60.2536770 Eh     change       -0.2215689E-04 Eh
 * total energy  :   -60.2536830 Eh     change       -0.6069636E-05 Eh
 * total energy  :   -60.2536843 Eh     change       -0.1281531E-05 Eh
 * total energy  :   -60.2536848 Eh     change       -0.5095158E-06 Eh
 * total energy  :   -60.2536854 Eh     change       -0.5701637E-06 Eh
 * total energy  :   -60.2536872 Eh     change       -0.2637843E-06 Eh
 * total energy  :   -60.2536874 Eh     change       -0.1920293E-06 Eh
 * total energy  :   -60.2536876 Eh     change       -0.1495738E-06 Eh
 * total energy  :   -60.2536877 Eh     change       -0.1313198E-06 Eh
 * total energy  :   -60.2536878 Eh     change       -0.1360490E-06 Eh
 * total energy  :   -60.2536880 Eh     change       -0.1324675E-06 Eh
 * total energy  :   -60.2536881 Eh     change       -0.1275513E-06 Eh
 * total energy  :   -60.2536882 Eh     change       -0.1105027E-06 Eh
 * total energy  :   -60.2536882 Eh     change       -0.9623093E-09 Eh
   *** GEOMETRY OPTIMIZATION CONVERGED AFTER 22 ITERATIONS ***

 final structure:
================
34
 xtb: 6.7.1 (edcfbbe)
C           -2.39104283810497       -3.57664302164792        0.04334851411991
C           -1.01295953917644       -3.61072557829639       -0.00732897980423
C           -0.28379614477610       -2.43036654816082       -0.02402063565549
C           -0.92868769524077       -1.20215711466129        0.01099573561724
C           -2.32892958209603       -1.17537849608773        0.06093397822291
C           -3.04877669816542       -2.35409171440929        0.07675585779611
O           -3.04080833492217       -0.00013800652217        0.09613071200493
C           -2.32902623375624        1.17516457041665        0.06103548868160
C           -3.04897558949171        2.35381480413162        0.07690705442180
C           -2.39134789198976        3.57642455993353        0.04356025557684
C           -1.01326764463414        3.61062833144749       -0.00712337596886
C           -0.28400227058403        2.43033315262325       -0.02386605688975
C           -0.92878566803681        1.20206629628330        0.01112191520798
N           -0.22600891942621       -0.00001642820707       -0.00110901442366
C            1.19116464256453        0.00002999711344       -0.06177706795696
C            1.81044506097840       -0.00034744394552       -1.33648892555124
C            3.16870018657018       -0.00029359463513       -1.47428685226245
C            3.95144142962665        0.00012080559917       -0.30683048087997
N            5.28241598992101        0.00019514296687       -0.21424044825054
S            5.68877746098744        0.00070390054796        1.33878209150555
N            4.21682257969405        0.00083699443808        1.97890086524820
C            3.32190250104573        0.00048454130348        0.98884383929757
C            1.92275552049131        0.00044551830135        1.09753494932818
H           -2.96270296676952       -4.49113836347637        0.05718808899790
H           -0.49010058641574       -4.55437210387404       -0.03407528256277
H            0.79452939476368       -2.46137321627444       -0.06310820332568
H           -4.12480971189406       -2.29698325142168        0.11613329679726
H           -4.12500455430538        2.29660952215295        0.11626045660430
H           -2.96308714806168        4.49087006893598        0.05742600934999
H           -0.49049176241602        4.55432151893676       -0.03385327506911
H            0.79431903012528        2.46143363074112       -0.06299144526087
H            1.17180373333935       -0.00064901438652       -2.20725790604717
H            3.64798383094576       -0.00055221370892       -2.43973218660105
H            1.44955041920991        0.00074475384231        2.06623302773156

          :  Hamiltonian                  GFN2-xTB          :
         :: gradient norm              0.000019980635 Eh/a0 ::
         :: HOMO-LUMO gap              0.690189073772 eV    ::
         :: SCC energy               -61.204684274065 Eh    ::
         :: -> dispersion             -0.045394008574 Eh    ::
         :: repulsion energy           0.950996058989 Eh    ::

    * Orbital Energies and Occupations

         #    Occupation            Energy/Eh            Energy/eV
      -------------------------------------------------------------
         1        2.0000           -0.7710472             -20.9813
       ...           ...                  ...                  ...
        43        2.0000           -0.4502028             -12.2506
        44        2.0000           -0.4468103             -12.1583
        45        2.0000           -0.4358853             -11.8610
        46        2.0000           -0.4335337             -11.7971
        47        2.0000           -0.4250392             -11.5659
        48        2.0000           -0.4211043             -11.4588
        49        2.0000           -0.4207556             -11.4493
        50        2.0000           -0.4189343             -11.3998
        51        2.0000           -0.4136280             -11.2554
        52        2.0000           -0.4123140             -11.2196
        53        2.0000           -0.4104173             -11.1680
        54        2.0000           -0.3888697             -10.5817
        55        2.0000           -0.3411125              -9.2821 (HOMO)
        56        0.0000           -0.3157484              -8.5920 (LUMO)
        57                         -0.2363458              -6.4313
        58                         -0.2356808              -6.4132
        59                         -0.2298800              -6.2554
        60                         -0.2273942              -6.1877
        61                         -0.2219990              -6.0409
        62                         -0.2127764              -5.7899
        63                         -0.1939596              -5.2779
        64                         -0.1458575              -3.9690
        65                         -0.1175409              -3.1985
        66                         -0.1003070              -2.7295
       ...                                ...                  ...
       108                          0.7223444              19.6560
      -------------------------------------------------------------
                  HL-Gap            0.0253640 Eh            0.6902 eV

     #   Z          covCN         q      C6AA      α(0)
     1   6 C        2.919    -0.041    29.024     8.835
     2   6 C        2.919    -0.039    28.958     8.824
     3   6 C        2.923    -0.061    29.510     8.908
     4   6 C        2.924     0.043    27.027     8.525
     5   6 C        2.882     0.124    25.275     8.242
     6   6 C        2.920    -0.056    29.402     8.892
     7   8 O        1.708    -0.257    18.253     5.768
     8   6 C        2.882     0.124    25.275     8.242
     9   6 C        2.920    -0.056    29.402     8.892
    10   6 C        2.919    -0.041    29.024     8.835
    11   6 C        2.919    -0.039    28.958     8.824
    12   6 C        2.923    -0.061    29.510     8.908
    13   6 C        2.924     0.043    27.027     8.525
    14   7 N        2.754    -0.078    22.757     7.085
    15   6 C        2.923     0.071    26.408     8.427
    16   6 C        2.922    -0.037    28.930     8.820
    17   6 C        2.906    -0.038    28.945     8.822
    18   6 C        3.354     0.073    23.676     7.657
    19   7 N        1.852    -0.266    27.752     7.808
    20  16 S        2.690     0.359   127.268    18.987
    21   7 N        1.852    -0.266    27.766     7.810
    22   6 C        3.355     0.075    23.619     7.645
    23   6 C        2.910    -0.049    29.218     8.863
    24   1 H        0.926     0.038     2.482     2.463
    25   1 H        0.926     0.035     2.514     2.479
    26   1 H        0.926     0.028     2.622     2.532
    27   1 H        0.926     0.050     2.319     2.381
    28   1 H        0.926     0.050     2.319     2.381
    29   1 H        0.926     0.038     2.482     2.463
    30   1 H        0.926     0.035     2.514     2.479
    31   1 H        0.926     0.028     2.622     2.532
    32   1 H        0.926     0.053     2.287     2.365
    33   1 H        0.926     0.058     2.228     2.334
    34   1 H        0.926     0.060     2.196     2.317

molecular dipole:
                 x           y           z       tot (Debye)
 q only:        0.726       0.000      -0.054
   full:        0.560      -0.000      -0.202       1.514

 projected vibrational frequencies (cm⁻¹)
eigval :       -0.00    -0.00    -0.00     0.00     0.00     0.00
eigval :      -38.15    24.30    38.50    39.93   109.57   141.99
eigval :      164.83   175.68   199.42   248.30   264.85   287.72
eigval :      320.06   341.13   386.03   393.00   411.30   421.74
eigval :      427.63   439.58   504.50   510.35   511.32   512.24
eigval :      521.46   578.33   581.15   635.27   637.90   654.10
eigval :      658.26   659.22   690.51   726.41   776.67   777.10
eigval :      791.22   811.85   841.15   848.26   852.92   859.30
eigval :      859.30   868.80   876.39   893.61   895.11   909.71
eigval :      912.33   912.90   913.32   920.13   982.42  1087.65
eigval :     1088.53  1106.76  1106.98  1140.31  1163.18  1176.03
eigval :     1180.15  1197.21  1197.30  1215.41  1242.45  1260.53
eigval :     1269.76  1298.73  1311.46  1321.56  1332.94  1346.78
eigval :     1359.47  1424.91  1429.07  1443.92  1489.46  1494.29
eigval :     1508.90  1520.53  1567.23  1581.64  1590.80  1594.20
eigval :     1605.25  3086.58  3086.74  3092.47  3094.42  3094.60
eigval :     3102.45  3102.96  3111.20  3111.82  3112.57  3113.14

   temp. (K)  partition function   enthalpy   heat capacity  entropy
                                   cal/mol     cal/K/mol   cal/K/mol   J/K/mol
 298.15  VIB  0.264E+06             8517.092     59.824     49.274
         ROT  0.931E+07              888.752      2.981     34.870
         INT  0.246E+13             9405.844     62.805     84.144
         TR   0.547E+28             1481.254      4.968     43.141
         TOT                       10887.0984    67.7732   127.2852   532.5613

       T/K    H(0)-H(T)+PV         H(T)/Eh          T*S/Eh         G(T)/Eh
   ------------------------------------------------------------------------
    298.15    0.173497E-01    0.259932E+00    0.604773E-01    0.199455E+00
   ------------------------------------------------------------------------

         :::::::::::::::::::::::::::::::::::::::::::::::::::::
         ::                  THERMODYNAMIC                  ::
         :::::::::::::::::::::::::::::::::::::::::::::::::::::
         :: total free energy         -60.054233313486 Eh   ::
         ::.................................................::
         :: total energy              -60.253688215076 Eh   ::
         :: zero point energy           0.242582516748 Eh   ::
         :: G(RRHO) w/o ZPVE           -0.043127615158 Eh   ::
         :: G(RRHO) contrib.            0.199454901590 Eh   ::
         :::::::::::::::::::::::::::::::::::::::::::::::::::::

           -------------------------------------------------
          | TOTAL ENERGY              -60.253688215076 Eh   |
          | TOTAL ENTHALPY            -59.993756002689 Eh   |
          | TOTAL FREE ENERGY         -60.054233313486 Eh   |
          | GRADIENT NORM               0.000019988930 Eh/α |
          | HOMO-LUMO GAP               0.690189773944 eV   |
           -------------------------------------------------

 * finished run on 2025/08/23 at 06:41:07.043
