   * xtb version 6.7.1 (edcfbbe) compiled by 'albert@albert-system' on 2024-07-22

   ID    Z sym.   atoms
    1    6 C      1-9, 11-28, 30-36, 38, 39, 41-62
    2    7 N      10, 29, 37, 40
    3    1 H      63-108

          program call               : xtb data2507/toluene/DMAC-BPP/DMAC-BPP_toluene_S0_crest.xyz --gfn 2 --gbsa toluene --ohess vtight --parallel 40 --molden --ceasefiles --namespace data2507/toluene/DMAC-BPP/DMAC-BPP_toluene_S0_finalOpt
      * Solvation model:               GBSA
        Solvent                        toluene
        Solvent mass                       9.2140E+01 g/mol
          :  Hamiltonian                  GFN2-xTB          :
 * total energy  :  -159.4867717 Eh     change       -0.3924242E-08 Eh
 * total energy  :  -159.4868288 Eh     change       -0.5706030E-04 Eh
 * total energy  :  -159.4868487 Eh     change       -0.1991849E-04 Eh
 * total energy  :  -159.4868579 Eh     change       -0.9171630E-05 Eh
 * total energy  :  -159.4868666 Eh     change       -0.8740166E-05 Eh
 * total energy  :  -159.4868750 Eh     change       -0.8323422E-05 Eh
 * total energy  :  -159.4868866 Eh     change       -0.1163265E-04 Eh
 * total energy  :  -159.4869016 Eh     change       -0.1500835E-04 Eh
 * total energy  :  -159.4869152 Eh     change       -0.1355548E-04 Eh
 * total energy  :  -159.4869250 Eh     change       -0.9865003E-05 Eh
 * total energy  :  -159.4869948 Eh     change       -0.3329984E-06 Eh
 * total energy  :  -159.4869951 Eh     change       -0.3018007E-06 Eh
 * total energy  :  -159.4869955 Eh     change       -0.4114907E-06 Eh
 * total energy  :  -159.4869960 Eh     change       -0.5028107E-06 Eh
 * total energy  :  -159.4869966 Eh     change       -0.5164415E-06 Eh
 * total energy  :  -159.4869971 Eh     change       -0.4961480E-06 Eh
 * total energy  :  -159.4869975 Eh     change       -0.4217853E-06 Eh
 * total energy  :  -159.4869979 Eh     change       -0.3963370E-06 Eh
 * total energy  :  -159.4869979 Eh     change       -0.3370900E-08 Eh
   *** GEOMETRY OPTIMIZATION CONVERGED AFTER 44 ITERATIONS ***

 final structure:
================
108
 xtb: 6.7.1 (edcfbbe)
C           -2.73456833380002        6.85699673627270        0.66458608137420
C           -1.60805790228659        5.90953116332520        1.11852840174646
C           -0.52956131392585        6.69470458201885        1.88879204826602
C           -0.97597088532497        5.28822325985444       -0.11293331739243
C           -0.38795612789458        6.11037373216218       -1.06509670282396
C            0.18098322950650        5.60882667485770       -2.22130908167877
C            0.14982677315113        4.24526692747206       -2.45100848808721
C           -0.42770463801009        3.40583470823790       -1.52130087386622
C           -0.97910680727541        3.90730360129654       -0.33799979297413
N           -1.54111163507832        3.03591300898450        0.58544270816700
C           -1.50630072521420        1.64179852428888        0.32280890740328
C           -0.30624014249067        0.94975656883028        0.42695443801639
C           -0.26088781323880       -0.41353409509459        0.15411977318722
C            0.98979148872661       -1.18098204298725        0.25297349032210
C            2.24020498544863       -0.61275976345395        0.02669704771379
C            3.35080813722873       -1.45308597001692        0.13754634977977
C            4.72259123557672       -0.98719068351168       -0.08865960098162
C            5.00505587250785        0.10946982187022       -0.90213688029247
C            6.30911120766525        0.51308860393379       -1.10489571375388
C            7.36982923667115       -0.15535870787085       -0.49495658165450
C            8.75709006387702        0.28139969987492       -0.71075273981354
C            9.19338910840407        0.65839544824543       -1.97956225307539
C           10.50008952945086        1.06235204426878       -2.18306240329588
C           11.38978564638382        1.10451526119712       -1.12206104563779
C           10.96547961273786        0.73622876362697        0.14426982901312
C            9.66145524807585        0.32404550542724        0.34873291449887
C            7.08422426127534       -1.25199067906534        0.31845014798208
C            5.78340262508311       -1.66573247438745        0.51204116506439
N            3.20258263689495       -2.73469725956854        0.46992487574669
C            1.97179581832448       -3.19613205752062        0.66198676906780
C            1.82001174814205       -4.61158978419523        1.01177851314909
C            0.56907366294655       -5.11748727842645        1.36253267207417
C            0.42694422789468       -6.45265107966739        1.68901265160262
C            1.52808149517083       -7.29487097763794        1.66934993218278
C            2.77477354537153       -6.79783998317566        1.32139248330540
C            2.92312181339342       -5.46348498920269        0.99397736194038
N            0.86292704211838       -2.47087174024110        0.55570760118559
C           -1.42820569423148       -1.07816166612416       -0.21006171552888
C           -2.63107311147067       -0.39160530184604       -0.29982459787682
N           -3.81655265026665       -1.08154298669974       -0.65677028352390
C           -4.38689995867870       -0.85265947278679       -1.90265876776625
C           -3.77527024208360        0.03182863265797       -2.79639541929543
C           -4.32561139812599        0.29036530822266       -4.03437620120668
C           -5.49753345731317       -0.34002020927002       -4.41153583381800
C           -6.08873895070351       -1.23795391511947       -3.54220981862696
C           -5.55504396715839       -1.51755761358274       -2.29092272601531
C           -6.23709990485472       -2.54278856656014       -1.40485690027723
C           -7.67458383271276       -2.07241593391803       -1.11358500899313
C           -6.25823495881650       -3.89306551771818       -2.14610933096506
C           -5.50987612584564       -2.72191938449557       -0.08556558652714
C           -6.00413017046819       -3.62657533197256        0.84519850713840
C           -5.40296252991017       -3.82058102903869        2.07489238018409
C           -4.28191847400857       -3.07889900277698        2.40096387251623
C           -3.77128364433796       -2.17254798997471        1.49539107056501
C           -4.35958624552246       -1.99514525559813        0.23931939760749
C           -2.67009625170191        0.97360955922679       -0.03755188634195
C           -2.12837889869230        3.49155639084569        1.75861900909840
C           -2.63811730130505        2.57311219653717        2.68109566349795
C           -3.23934244910066        2.99547671291954        3.84837319435963
C           -3.33387869243067        4.34786029830878        4.12310757323329
C           -2.80558163140196        5.25722511204652        3.22548224590442
C           -2.19437830146584        4.85946604713275        2.04367856500216
H           -3.48907875964983        6.29836804365532        0.11303806451521
H           -2.34621869237989        7.63897332411161        0.01802355211715
H           -3.21268287208768        7.32792855131523        1.51892053446109
H           -0.09370103355853        7.46940648356435        1.26421087685920
H           -0.95037424716103        7.16699655123393        2.77194485488587
H            0.26511097933826        6.02113073666630        2.20581736060196
H           -0.37193196971201        7.17780061507516       -0.90574872001672
H            0.63310827768728        6.27707487663466       -2.93867163885278
H            0.57163274860520        3.83052637761664       -3.35506093383051
H           -0.45601596870416        2.34469636899664       -1.71676444773327
H            0.58006313755876        1.48303994471556        0.73580113711654
H            2.34527080875937        0.42841176891054       -0.22653904513981
H            4.20570810559643        0.63778019911891       -1.40065701838546
H            6.50987618750193        1.36984064317888       -1.73143070486896
H            8.50857493003892        0.61163093172555       -2.81398519474761
H           10.82661836515109        1.34461529640510       -3.17374484889990
H           12.40973539441045        1.42262868493967       -1.28148181535959
H           11.65428194317834        0.77114828469655        0.97615356952594
H            9.33206137235146        0.05282948476928        1.34137723876709
H            7.89336001087706       -1.79529251220904        0.78390979106923
H            5.56215997793144       -2.51840039841386        1.13559078150670
H           -0.27810872198877       -4.44928866044306        1.37683988506941
H           -0.54482562898509       -6.83869103746552        1.96045135440680
H            1.41449117582603       -8.33829776290872        1.92476304010191
H            3.63262444444819       -7.45419329810108        1.30495385944595
H            3.88519346811584       -5.06188161752173        0.71578230579129
H           -1.38769180458207       -2.13629773957445       -0.41647470179221
H           -2.85364096723308        0.51977903854234       -2.51997622915977
H           -3.83372537687102        0.98245204896787       -4.70222323254235
H           -5.94192634750638       -0.14401297541493       -5.37573294550765
H           -6.99348344712599       -1.73651572019608       -3.85523326007261
H           -8.23238983169567       -1.93678978621163       -2.03590533379621
H           -7.65338725420627       -1.12264236330720       -0.58162838775460
H           -8.20271934586862       -2.79715642826528       -0.50042891310466
H           -6.78487776192644       -3.80812461896735       -3.09249132567104
H           -5.23972614871887       -4.22089101666769       -2.34799903725010
H           -6.75175453648397       -4.65502755707129       -1.54941046891908
H           -6.88726035685132       -4.20032034555917        0.60863234703713
H           -5.81147903369756       -4.53611345466784        2.77252056275179
H           -3.80225739660618       -3.20037509073270        3.36124632105843
H           -2.90100822889704       -1.59526527347444        1.76641060316118
H           -3.60264349225187        1.51350858639138       -0.10973801548721
H           -2.55855656117976        1.51556795419878        2.48222717111584
H           -3.62975748342859        2.26490100891719        4.54162951680179
H           -3.80551314967700        4.69266263292338        5.03098308336949
H           -2.87236731761804        6.30882409407554        3.45970233463790

          :  Hamiltonian                  GFN2-xTB          :
         :: gradient norm              0.000043707557 Eh/a0 ::
         :: HOMO-LUMO gap              1.615637572634 eV    ::
         :: SCC energy              -162.406108884905 Eh    ::
         :: -> dispersion             -0.150220978025 Eh    ::
         :: -> Gsolv                  -0.065332282866 Eh    ::
         :: repulsion energy           2.919111012685 Eh    ::

    * Orbital Energies and Occupations

         #    Occupation            Energy/Eh            Energy/eV
      -------------------------------------------------------------
         1        2.0000           -0.6802992             -18.5119
       ...           ...                  ...                  ...
       137        2.0000           -0.4062538             -11.0547
       138        2.0000           -0.4051013             -11.0234
       139        2.0000           -0.4035284             -10.9806
       140        2.0000           -0.4033552             -10.9759
       141        2.0000           -0.4007008             -10.9036
       142        2.0000           -0.3995197             -10.8715
       143        2.0000           -0.3977361             -10.8230
       144        2.0000           -0.3940904             -10.7237
       145        2.0000           -0.3923696             -10.6769
       146        2.0000           -0.3890819             -10.5875
       147        2.0000           -0.3678628             -10.0101
       148        2.0000           -0.3496103              -9.5134
       149        2.0000           -0.3471201              -9.4456 (HOMO)
       150                         -0.2877466              -7.8300 (LUMO)
       151                         -0.2776706              -7.5558
       152                         -0.2520847              -6.8596
       153                         -0.2479548              -6.7472
       154                         -0.2300191              -6.2591
       155                         -0.2287781              -6.2254
       156                         -0.2260942              -6.1523
       157                         -0.2259974              -6.1497
       158                         -0.2245306              -6.1098
       159                         -0.2244235              -6.1069
       160                         -0.2211207              -6.0170
       ...                                ...                  ...
       294                          0.6899845              18.7754
      -------------------------------------------------------------
                  HL-Gap            0.0593736 Eh            1.6156 eV

     #   Z          covCN         q      C6AA      α(0)
     1   6 C        3.761    -0.104    22.527     6.766
     2   6 C        3.909     0.021    20.164     6.383
     3   6 C        3.761    -0.104    22.528     6.766
     4   6 C        2.979    -0.013    28.340     8.732
     5   6 C        2.928    -0.037    28.925     8.820
     6   6 C        2.917    -0.046    29.143     8.853
     7   6 C        2.919    -0.035    28.870     8.811
     8   6 C        2.924    -0.060    29.493     8.906
     9   6 C        2.927     0.058    26.699     8.474
    10   7 N        2.754    -0.074    22.671     7.072
    11   6 C        2.925     0.073    26.373     8.422
    12   6 C        2.925    -0.046    29.147     8.854
    13   6 C        2.979     0.004    27.928     8.669
    14   6 C        2.970     0.113    25.509     8.285
    15   6 C        2.912    -0.071    29.775     8.948
    16   6 C        2.966     0.114    25.489     8.281
    17   6 C        2.979    -0.003    28.096     8.695
    18   6 C        2.921    -0.033    28.811     8.802
    19   6 C        2.923    -0.034    28.841     8.807
    20   6 C        2.976     0.016    27.655     8.626
    21   6 C        2.976     0.010    27.792     8.647
    22   6 C        2.925    -0.034    28.835     8.806
    23   6 C        2.918    -0.030    28.742     8.792
    24   6 C        2.920    -0.031    28.763     8.795
    25   6 C        2.918    -0.030    28.740     8.791
    26   6 C        2.924    -0.033    28.834     8.806
    27   6 C        2.922    -0.033    28.815     8.803
    28   6 C        2.924    -0.025    28.634     8.775
    29   7 N        1.849    -0.289    28.345     7.891
    30   6 C        2.943     0.190    23.951     8.027
    31   6 C        2.984    -0.004    28.120     8.698
    32   6 C        2.924    -0.028    28.703     8.786
    33   6 C        2.918    -0.028    28.711     8.787
    34   6 C        2.920    -0.025    28.632     8.775
    35   6 C        2.918    -0.029    28.713     8.787
    36   6 C        2.923    -0.028    28.708     8.787
    37   7 N        1.850    -0.291    28.395     7.898
    38   6 C        2.928    -0.038    28.956     8.825
    39   6 C        2.924     0.074    26.353     8.419
    40   7 N        2.753    -0.072    22.646     7.068
    41   6 C        2.926     0.058    26.700     8.474
    42   6 C        2.924    -0.060    29.488     8.905
    43   6 C        2.919    -0.035    28.865     8.810
    44   6 C        2.917    -0.046    29.141     8.852
    45   6 C        2.928    -0.037    28.930     8.821
    46   6 C        2.979    -0.013    28.338     8.732
    47   6 C        3.909     0.021    20.165     6.383
    48   6 C        3.761    -0.104    22.531     6.767
    49   6 C        3.761    -0.104    22.532     6.767
    50   6 C        2.979    -0.013    28.337     8.732
    51   6 C        2.928    -0.037    28.929     8.821
    52   6 C        2.917    -0.046    29.130     8.851
    53   6 C        2.919    -0.034    28.852     8.808
    54   6 C        2.924    -0.058    29.454     8.900
    55   6 C        2.926     0.058    26.695     8.473
    56   6 C        2.924    -0.048    29.197     8.861
    57   6 C        2.926     0.058    26.703     8.474
    58   6 C        2.924    -0.059    29.479     8.904
    59   6 C        2.919    -0.034    28.858     8.809
    60   6 C        2.917    -0.046    29.135     8.851
    61   6 C        2.928    -0.037    28.930     8.821
    62   6 C        2.979    -0.014    28.346     8.733
    63   1 H        0.925     0.030     2.584     2.514
    64   1 H        0.925     0.042     2.419     2.432
    65   1 H        0.925     0.042     2.417     2.431
    66   1 H        0.925     0.042     2.417     2.431
    67   1 H        0.925     0.042     2.418     2.432
    68   1 H        0.925     0.030     2.593     2.518
    69   1 H        0.926     0.034     2.528     2.486
    70   1 H        0.926     0.027     2.629     2.535
    71   1 H        0.926     0.026     2.638     2.540
    72   1 H        0.926     0.019     2.742     2.589
    73   1 H        0.926     0.049     2.334     2.389
    74   1 H        0.926     0.039     2.458     2.452
    75   1 H        0.926     0.035     2.510     2.478
    76   1 H        0.926     0.042     2.428     2.437
    77   1 H        0.926     0.034     2.526     2.486
    78   1 H        0.926     0.033     2.539     2.492
    79   1 H        0.926     0.033     2.542     2.493
    80   1 H        0.926     0.034     2.535     2.490
    81   1 H        0.926     0.035     2.517     2.481
    82   1 H        0.926     0.043     2.407     2.426
    83   1 H        0.926     0.050     2.325     2.385
    84   1 H        0.926     0.050     2.324     2.384
    85   1 H        0.926     0.042     2.428     2.437
    86   1 H        0.926     0.043     2.410     2.428
    87   1 H        0.926     0.042     2.423     2.434
    88   1 H        0.926     0.051     2.310     2.377
    89   1 H        0.926     0.062     2.179     2.308
    90   1 H        0.926     0.021     2.717     2.578
    91   1 H        0.926     0.027     2.632     2.537
    92   1 H        0.926     0.027     2.632     2.537
    93   1 H        0.926     0.034     2.528     2.486
    94   1 H        0.925     0.042     2.419     2.432
    95   1 H        0.925     0.030     2.583     2.514
    96   1 H        0.925     0.042     2.416     2.431
    97   1 H        0.925     0.042     2.421     2.433
    98   1 H        0.925     0.030     2.586     2.515
    99   1 H        0.925     0.043     2.413     2.429
   100   1 H        0.926     0.034     2.526     2.485
   101   1 H        0.926     0.028     2.622     2.532
   102   1 H        0.926     0.027     2.622     2.532
   103   1 H        0.926     0.022     2.700     2.570
   104   1 H        0.926     0.055     2.257     2.349
   105   1 H        0.926     0.022     2.708     2.574
   106   1 H        0.926     0.028     2.622     2.532
   107   1 H        0.926     0.027     2.627     2.535
   108   1 H        0.926     0.034     2.529     2.487

molecular dipole:
                 x           y           z       tot (Debye)
 q only:        0.538       0.082      -0.037
   full:        0.617       0.452      -0.135       1.976

 projected vibrational frequencies (cm⁻¹)
eigval :       -0.00    -0.00    -0.00    -0.00     0.00     0.00
eigval :        6.64    11.19    12.45    14.77    15.68    16.60
eigval :       23.28    31.78    34.34    35.56    36.88    41.04
eigval :       56.00    63.99    67.81    77.17    81.93    88.86
eigval :       95.44    96.92    98.88   105.06   118.17   125.03
eigval :      128.23   136.84   142.10   147.83   168.41   187.81
eigval :      191.69   201.09   204.70   214.40   217.10   220.31
eigval :      226.38   235.61   242.31   245.34   249.68   261.39
eigval :      272.27   275.42   299.25   306.66   309.74   330.59
eigval :      331.77   332.75   338.26   346.98   354.63   364.44
eigval :      365.95   366.92   369.55   372.90   374.79   383.21
eigval :      385.79   397.72   410.25   411.26   417.18   427.42
eigval :      451.96   452.93   455.83   479.50   486.59   501.15
eigval :      507.16   515.46   515.50   526.67   530.24   543.19
eigval :      547.39   547.56   548.98   554.40   583.59   585.90
eigval :      586.78   588.39   594.45   599.29   603.20   615.55
eigval :      621.71   622.93   639.90   654.14   657.02   669.67
eigval :      670.95   673.23   677.47   682.63   682.97   683.69
eigval :      693.44   694.42   702.29   714.81   738.69   745.12
eigval :      760.45   767.89   775.96   776.62   777.49   777.56
eigval :      777.87   815.40   823.00   824.23   830.25   840.17
eigval :      844.83   850.59   863.16   866.94   867.28   867.44
eigval :      867.65   876.63   878.61   894.18   902.86   905.13
eigval :      907.86   911.90   912.62   913.30   914.12   916.14
eigval :      916.55   917.37   921.38   921.51   921.63   922.96
eigval :      926.16   928.13   930.80   931.57   937.42   937.52
eigval :      938.10   949.91   956.56   957.37   967.84   989.56
eigval :      997.38  1006.51  1013.34  1013.86  1025.48  1027.34
eigval :     1073.93  1074.68  1076.04  1076.15  1085.79  1086.32
eigval :     1093.30  1101.92  1107.90  1110.65  1112.78  1114.07
eigval :     1118.34  1119.41  1119.87  1139.48  1139.89  1140.25
eigval :     1151.32  1158.22  1158.42  1161.70  1175.70  1178.23
eigval :     1180.91  1181.88  1184.97  1186.16  1186.26  1188.19
eigval :     1188.83  1194.15  1200.37  1207.48  1221.51  1229.61
eigval :     1237.30  1246.85  1247.82  1249.72  1251.97  1264.74
eigval :     1267.16  1268.66  1270.32  1279.24  1287.14  1291.82
eigval :     1293.00  1293.54  1306.37  1315.86  1318.29  1322.15
eigval :     1324.42  1324.67  1327.14  1332.07  1332.35  1334.56
eigval :     1335.52  1362.08  1378.66  1392.19  1399.09  1399.99
eigval :     1401.89  1418.18  1418.57  1429.76  1430.99  1431.59
eigval :     1435.76  1436.10  1438.73  1440.69  1450.75  1463.30
eigval :     1469.60  1475.82  1476.87  1486.75  1487.08  1487.57
eigval :     1487.58  1491.89  1494.96  1497.01  1497.40  1497.94
eigval :     1502.37  1502.95  1514.78  1529.04  1559.40  1565.47
eigval :     1568.91  1574.08  1574.47  1580.75  1582.97  1589.31
eigval :     1589.39  1590.25  1590.59  1590.88  1593.59  1599.99
eigval :     1600.10  1600.88  3020.76  3020.86  3023.28  3023.35
eigval :     3039.35  3039.84  3041.31  3041.57  3048.10  3048.37
eigval :     3052.33  3052.46  3068.52  3069.68  3071.40  3072.79
eigval :     3072.81  3073.46  3073.80  3075.34  3077.69  3078.19
eigval :     3079.56  3080.06  3080.29  3080.41  3080.88  3082.56
eigval :     3087.17  3087.79  3089.62  3089.90  3090.81  3091.05
eigval :     3091.64  3095.34  3095.57  3096.64  3099.02  3099.14
eigval :     3099.85  3101.31  3101.81  3103.28  3108.68  3111.14

   temp. (K)  partition function   enthalpy   heat capacity  entropy
                                   cal/mol     cal/K/mol   cal/K/mol   J/K/mol
 298.15  VIB  0.369E+26            31242.344    193.043    196.218
         ROT  0.204E+09              888.752      2.981     41.009
         INT  0.755E+34            32131.096    196.024    237.227
         TR   0.219E+29             1481.254      4.968     45.892
         TOT                       33612.3502   200.9918   283.1186  1184.5683

       T/K    H(0)-H(T)+PV         H(T)/Eh          T*S/Eh         G(T)/Eh
   ------------------------------------------------------------------------
    298.15    0.535647E-01    0.908945E+00    0.134519E+00    0.774426E+00
   ------------------------------------------------------------------------

         :::::::::::::::::::::::::::::::::::::::::::::::::::::
         ::                  THERMODYNAMIC                  ::
         :::::::::::::::::::::::::::::::::::::::::::::::::::::
         :: total free energy        -158.712571725174 Eh   ::
         ::.................................................::
         :: total energy             -159.486997870873 Eh   ::
         :: zero point energy           0.855380248538 Eh   ::
         :: G(RRHO) w/o ZPVE           -0.080954102839 Eh   ::
         :: G(RRHO) contrib.            0.774426145699 Eh   ::
         :::::::::::::::::::::::::::::::::::::::::::::::::::::

           -------------------------------------------------
          | TOTAL ENERGY             -159.486997870873 Eh   |
          | TOTAL ENTHALPY           -158.578052932792 Eh   |
          | TOTAL FREE ENERGY        -158.712571725174 Eh   |
          | GRADIENT NORM               0.000043705938 Eh/α |
          | HOMO-LUMO GAP               1.615637296489 eV   |
           -------------------------------------------------

 * finished run on 2025/07/18 at 00:01:27.986
