   * xtb version 6.7.1 (edcfbbe) compiled by 'albert@albert-system' on 2024-07-22

   ID    Z sym.   atoms
    1    6 C      1-9, 11-28, 30-36, 38, 39, 41-62
    2    7 N      10, 29, 37, 40
    3    1 H      63-108

          program call               : xtb data2507/toluene/DMAC-BPP/DMAC-BPP_toluene_S0_finalOpt.xtbopt.xyz --gfn 2 --uhf 2 --gbsa toluene --ohess vtight --parallel 40 --molden --ceasefiles --namespace data2507/toluene/DMAC-BPP/DMAC-BPP_toluene_T1_preOpt
      * Solvation model:               GBSA
        Solvent                        toluene
        Solvent mass                       9.2140E+01 g/mol
          :  Hamiltonian                  GFN2-xTB          :
 * total energy  :  -159.4090991 Eh     change       -0.8830938E-08 Eh
 * total energy  :  -159.4123434 Eh     change       -0.3244291E-02 Eh
 * total energy  :  -159.4135482 Eh     change       -0.1204766E-02 Eh
 * total energy  :  -159.4136542 Eh     change       -0.1059842E-03 Eh
 * total energy  :  -159.4137894 Eh     change       -0.1352712E-03 Eh
 * total energy  :  -159.4138374 Eh     change       -0.4792252E-04 Eh
 * total energy  :  -159.4139102 Eh     change       -0.7283609E-04 Eh
 * total energy  :  -159.4139626 Eh     change       -0.5235682E-04 Eh
 * total energy  :  -159.4140044 Eh     change       -0.4188569E-04 Eh
 * total energy  :  -159.4140572 Eh     change       -0.5273435E-04 Eh
 * total energy  :  -159.4163804 Eh     change       -0.2914435E-06 Eh
 * total energy  :  -159.4163806 Eh     change       -0.2561529E-06 Eh
 * total energy  :  -159.4163809 Eh     change       -0.2557466E-06 Eh
 * total energy  :  -159.4163811 Eh     change       -0.2796234E-06 Eh
 * total energy  :  -159.4163816 Eh     change       -0.4598483E-06 Eh
 * total energy  :  -159.4163820 Eh     change       -0.4232382E-06 Eh
 * total energy  :  -159.4163824 Eh     change       -0.3947374E-06 Eh
 * total energy  :  -159.4163828 Eh     change       -0.3486457E-06 Eh
 * total energy  :  -159.4163828 Eh     change       -0.1350656E-08 Eh
   *** GEOMETRY OPTIMIZATION CONVERGED AFTER 152 ITERATIONS ***

 final structure:
================
108
 xtb: 6.7.1 (edcfbbe)
C           -2.79903447380736        6.84810757726841        0.77597309434122
C           -1.57010952133585        5.93689142470190        0.96149190345159
C           -0.36560314230487        6.76325036640747        1.45291919650321
C           -1.22307920084415        5.31608758799403       -0.37645043269481
C           -0.90430286679403        6.13450592251918       -1.45174033655682
C           -0.59186979435549        5.62115452479159       -2.69738321624361
C           -0.60070849531827        4.24887070256128       -2.89025274263311
C           -0.91105292665604        3.41225798532778       -1.84105459103541
C           -1.21734324842550        3.92767537391291       -0.57469630378429
N           -1.51534947891957        3.06232780835809        0.45919931422417
C           -1.48841951395199        1.65698218916963        0.21429200148989
C           -0.28646241299859        0.98390593886977        0.23909691067888
C           -0.23002065276748       -0.40474561675764       -0.00536341257788
C            0.98773278093749       -1.15736123226181       -0.00744533965096
C            2.26813614243022       -0.59081407450930        0.07311719339165
C            3.37378220702534       -1.42556603077086        0.04245753910326
C            4.74370766704216       -0.95943053778112        0.09694580040010
C            5.10107493165014        0.39536225833805        0.03565790305953
C            6.42052512981743        0.78336161064366        0.07524520553575
C            7.45278044250633       -0.15273620540230        0.18687409940489
C            8.85594927462927        0.26782423307500        0.22561935258956
C            9.30792193523249        1.32804322637092       -0.56196828361407
C           10.63248225828678        1.72054495007727       -0.52855242513934
C           11.53475068928437        1.06601261128569        0.29455777788219
C           11.09958357109538        0.01318503275372        1.08344463405215
C            9.77626264142851       -0.38336066030707        1.04869686003169
C            7.09973103472541       -1.50405420246816        0.25474014311432
C            5.78391839738465       -1.89688897077527        0.20555187635706
N            3.18715437993596       -2.77585429418577       -0.04218437300302
C            1.96055918600352       -3.26168510050912       -0.11845096101702
C            1.79735628440929       -4.71732822785133       -0.21457427130315
C            0.52968146570514       -5.29014259703157       -0.14546567101010
C            0.37785481417144       -6.66076758082730       -0.23396486977672
C            1.48882010936572       -7.47459950371252       -0.39275192001137
C            2.75371579601778       -6.91194142176872       -0.46194543107228
C            2.90868704680653       -5.54135886524773       -0.37363906681026
N            0.87889336493940       -2.51614606165250       -0.11283704415785
C           -1.45271054368787       -1.06688096475969       -0.25923641969490
C           -2.64377954544002       -0.38071266869897       -0.27717402465969
N           -3.86121846166474       -1.07878646391247       -0.53649074857995
C           -4.35983286794280       -1.09622230515128       -1.82291898991853
C           -3.66040017750165       -0.43718780940670       -2.84284394590309
C           -4.13411780131823       -0.43098381342381       -4.13582748184091
C           -5.31627815348368       -1.08800511861365       -4.43919045581775
C           -6.00533768041072       -1.74684619832453       -3.43719426001440
C           -5.55378385958165       -1.76806708394751       -2.12444623860340
C           -6.34399424944795       -2.51556873239782       -1.06994818786239
C           -7.76218260937245       -1.91745367154619       -0.99360405132649
C           -6.41566153044015       -4.00155092573810       -1.47278660007325
C           -5.69949113847020       -2.41490881619213        0.29745125949279
C           -6.29782505921120       -3.03330129871246        1.38706275317625
C           -5.75222404704867       -2.97133287591049        2.65639319353330
C           -4.57220096148374       -2.27267910070936        2.85815432873217
C           -3.95555653795526       -1.65013345452704        1.79587936068422
C           -4.50295104982791       -1.71338747074789        0.50741057055708
C           -2.68977787775620        0.99609866002833       -0.04545081320855
C           -1.84430823433221        3.51468253938108        1.72166315558644
C           -2.12406935288654        2.58896704793183        2.73548206560506
C           -2.46281038606390        3.00799497018624        4.00293536560533
C           -2.52410013340593        4.36304477384370        4.28672871755014
C           -2.23567028866973        5.27992923873736        3.29227167119126
C           -1.89244288655824        4.88717619345187        2.00558856148315
H           -3.64422206441956        6.26309417791756        0.41785026831841
H           -2.59272358289536        7.63196282276866        0.05311921296034
H           -3.07796778106035        7.31614494537401        1.71543304767207
H           -0.10593531043948        7.53357859066000        0.73262236956708
H           -0.58873867368509        7.24406204274944        2.40089903219350
H            0.49872027356836        6.11570602479525        1.59103540557180
H           -0.89798759520015        7.20538834342667       -1.31984616938622
H           -0.34715247591173        6.28638303094598       -3.51139330025119
H           -0.36522377811641        3.82977374107092       -3.85715201325022
H           -0.91599685154844        2.34432552410461       -1.99230928208665
H            0.61120750948582        1.54103361023704        0.45684096921227
H            2.38877789309215        0.47660996753804        0.14905826225150
H            4.34051270228882        1.15699901004022       -0.05290858758557
H            6.66236094378412        1.83649907823500        0.04120084097916
H            8.61678260569590        1.83161646542464       -1.22264756734210
H           10.96497636204754        2.53943731390199       -1.15104560233654
H           12.56993093791092        1.37399020749406        0.32078991765818
H           11.79623100335275       -0.49973411565465        1.73163823193079
H            9.44271057219566       -1.19310055892195        1.68178049233765
H            7.87568168710732       -2.25369150145802        0.32008936758717
H            5.52232657344046       -2.94335974238573        0.25026785394269
H           -0.32501799340742       -4.64341328060107       -0.01677529040055
H           -0.60852529282269       -7.09813395902288       -0.17802871305312
H            1.36923312366307       -8.54603125224472       -0.46143792405533
H            3.62086016251732       -7.54449834801822       -0.58584873959957
H            3.88660669326047       -5.08751712304963       -0.42852457972212
H           -1.43134455304471       -2.12863764367530       -0.44568935274501
H           -2.73606336453211        0.06622856631612       -2.60849283870665
H           -3.58001130382048        0.08349984593632       -4.90656414891485
H           -5.69648813702110       -1.09054478017154       -5.44935793815691
H           -6.92017038921984       -2.25880421932359       -3.69238423764918
H           -8.25946562696407       -1.97889835690702       -1.95705143811547
H           -7.70841834674583       -0.87081776117271       -0.69947298559476
H           -8.36637380683458       -2.44904944611447       -0.26446448819517
H           -6.89331603127854       -4.11549871481312       -2.44152208926489
H           -5.41205014589306       -4.41908368457686       -1.53255097314379
H           -6.98243139054512       -4.57196411903413       -0.74274486058587
H           -7.21666098643932       -3.58142262995724        1.24777553319532
H           -6.24369243318129       -3.46421823094737        3.48133739992133
H           -4.13207746150187       -2.21301211834819        3.84227372437590
H           -3.03478868426374       -1.11092562183375        1.95235143491818
H           -3.62490906312258        1.53239959332622       -0.06317147572210
H           -2.06814442066638        1.53431172485157        2.51768753186205
H           -2.67620305574771        2.27745754374941        4.76879526891592
H           -2.78934859426547        4.70334323132963        5.27607011138092
H           -2.27903282047488        6.33092242832243        3.53261278272822

          :  Hamiltonian                  GFN2-xTB          :
         :: gradient norm              0.000038574425 Eh/a0 ::
         :: HOMO-LUMO gap              0.424803838976 eV    ::
         :: SCC energy              -162.327478020221 Eh    ::
         :: -> dispersion             -0.149938027351 Eh    ::
         :: -> Gsolv                  -0.069655453331 Eh    ::
         :: repulsion energy           2.911095242138 Eh    ::

    * Orbital Energies and Occupations

         #    Occupation            Energy/Eh            Energy/eV
      -------------------------------------------------------------
         1        2.0000           -0.6785169             -18.4634
       ...           ...                  ...                  ...
       138        2.0000           -0.4040004             -10.9934
       139        2.0000           -0.4022943             -10.9470
       140        2.0000           -0.4019940             -10.9388
       141        2.0000           -0.3998124             -10.8795
       142        2.0000           -0.3997040             -10.8765
       143        2.0000           -0.3982016             -10.8356
       144        2.0000           -0.3901537             -10.6166
       145        2.0000           -0.3891178             -10.5884
       146        2.0000           -0.3743939             -10.1878
       147        1.9615           -0.3590009              -9.7689
       148        1.5359           -0.3560811              -9.6895
       149        1.5026           -0.3559542              -9.6860
       150        0.9997           -0.2787396              -7.5849 (HOMO)
       151        0.0003           -0.2631284              -7.1601 (LUMO)
       152                         -0.2436762              -6.6308
       153                         -0.2356270              -6.4117
       154                         -0.2354937              -6.4081
       155                         -0.2325147              -6.3270
       156                         -0.2286102              -6.2208
       157                         -0.2283124              -6.2127
       158                         -0.2277420              -6.1972
       159                         -0.2272924              -6.1849
       160                         -0.2230136              -6.0685
       161                         -0.2176642              -5.9229
       ...                                ...                  ...
       294                          0.7069550              19.2372
      -------------------------------------------------------------
                  HL-Gap            0.0156112 Eh            0.4248 eV

     #   Z          covCN         q      C6AA      α(0)
     1   6 C        3.761    -0.106    22.571     6.773
     2   6 C        3.909     0.023    20.132     6.378
     3   6 C        3.761    -0.105    22.558     6.771
     4   6 C        2.978    -0.007    28.190     8.709
     5   6 C        2.926    -0.035    28.869     8.811
     6   6 C        2.917    -0.038    28.939     8.821
     7   6 C        2.918    -0.031    28.767     8.795
     8   6 C        2.923    -0.052    29.286     8.875
     9   6 C        2.929     0.061    26.635     8.464
    10   7 N        2.756    -0.043    22.065     6.977
    11   6 C        2.925     0.059    26.669     8.469
    12   6 C        2.921    -0.058    29.436     8.897
    13   6 C        2.974    -0.010    28.257     8.719
    14   6 C        2.941     0.073    26.360     8.420
    15   6 C        2.911    -0.062    29.537     8.912
    16   6 C        2.939     0.084    26.127     8.383
    17   6 C        2.975    -0.009    28.235     8.716
    18   6 C        2.919    -0.043    29.063     8.841
    19   6 C        2.922    -0.039    28.961     8.825
    20   6 C        2.975    -0.001    28.058     8.689
    21   6 C        2.975     0.008    27.846     8.656
    22   6 C        2.925    -0.037    28.918     8.819
    23   6 C        2.918    -0.032    28.803     8.801
    24   6 C        2.919    -0.035    28.882     8.813
    25   6 C        2.918    -0.032    28.799     8.800
    26   6 C        2.925    -0.037    28.914     8.818
    27   6 C        2.921    -0.038    28.947     8.823
    28   6 C        2.924    -0.035    28.875     8.812
    29   7 N        1.850    -0.296    28.512     7.914
    30   6 C        2.896     0.193    23.884     8.013
    31   6 C        2.984    -0.003    28.094     8.695
    32   6 C        2.924    -0.029    28.731     8.790
    33   6 C        2.918    -0.030    28.755     8.794
    34   6 C        2.920    -0.028    28.711     8.787
    35   6 C        2.918    -0.030    28.746     8.792
    36   6 C        2.924    -0.029    28.721     8.789
    37   7 N        1.851    -0.289    28.351     7.892
    38   6 C        2.926    -0.050    29.245     8.869
    39   6 C        2.924     0.059    26.684     8.471
    40   7 N        2.756    -0.038    21.978     6.963
    41   6 C        2.929     0.061    26.624     8.462
    42   6 C        2.923    -0.051    29.260     8.871
    43   6 C        2.918    -0.030    28.754     8.793
    44   6 C        2.917    -0.037    28.915     8.818
    45   6 C        2.926    -0.035    28.860     8.810
    46   6 C        2.978    -0.006    28.165     8.705
    47   6 C        3.909     0.023    20.129     6.377
    48   6 C        3.761    -0.106    22.580     6.774
    49   6 C        3.761    -0.106    22.569     6.772
    50   6 C        2.978    -0.006    28.165     8.705
    51   6 C        2.926    -0.034    28.859     8.810
    52   6 C        2.917    -0.037    28.913     8.817
    53   6 C        2.918    -0.030    28.749     8.793
    54   6 C        2.923    -0.050    29.248     8.869
    55   6 C        2.929     0.061    26.623     8.462
    56   6 C        2.920    -0.073    29.809     8.953
    57   6 C        2.929     0.061    26.635     8.464
    58   6 C        2.923    -0.052    29.284     8.874
    59   6 C        2.918    -0.031    28.764     8.795
    60   6 C        2.917    -0.038    28.935     8.821
    61   6 C        2.926    -0.035    28.869     8.811
    62   6 C        2.978    -0.007    28.190     8.709
    63   1 H        0.925     0.035     2.523     2.484
    64   1 H        0.925     0.048     2.349     2.397
    65   1 H        0.925     0.048     2.347     2.396
    66   1 H        0.925     0.047     2.353     2.399
    67   1 H        0.925     0.048     2.350     2.397
    68   1 H        0.925     0.032     2.555     2.500
    69   1 H        0.926     0.043     2.410     2.427
    70   1 H        0.926     0.036     2.496     2.471
    71   1 H        0.926     0.035     2.516     2.480
    72   1 H        0.926     0.032     2.564     2.504
    73   1 H        0.926     0.030     2.593     2.518
    74   1 H        0.926     0.021     2.716     2.577
    75   1 H        0.926     0.020     2.734     2.586
    76   1 H        0.926     0.027     2.634     2.538
    77   1 H        0.926     0.028     2.617     2.530
    78   1 H        0.926     0.028     2.616     2.529
    79   1 H        0.926     0.028     2.616     2.529
    80   1 H        0.926     0.028     2.615     2.529
    81   1 H        0.926     0.028     2.611     2.527
    82   1 H        0.926     0.028     2.620     2.531
    83   1 H        0.926     0.035     2.514     2.479
    84   1 H        0.926     0.043     2.408     2.426
    85   1 H        0.926     0.039     2.460     2.453
    86   1 H        0.926     0.040     2.449     2.447
    87   1 H        0.926     0.038     2.476     2.461
    88   1 H        0.926     0.042     2.417     2.431
    89   1 H        0.926     0.046     2.366     2.405
    90   1 H        0.926     0.033     2.544     2.494
    91   1 H        0.926     0.036     2.500     2.472
    92   1 H        0.926     0.038     2.480     2.463
    93   1 H        0.926     0.044     2.392     2.419
    94   1 H        0.925     0.048     2.340     2.392
    95   1 H        0.925     0.035     2.520     2.482
    96   1 H        0.925     0.049     2.339     2.391
    97   1 H        0.925     0.048     2.342     2.393
    98   1 H        0.925     0.034     2.532     2.488
    99   1 H        0.925     0.048     2.340     2.392
   100   1 H        0.926     0.044     2.391     2.418
   101   1 H        0.926     0.038     2.478     2.462
   102   1 H        0.926     0.036     2.501     2.473
   103   1 H        0.926     0.032     2.551     2.498
   104   1 H        0.926     0.037     2.489     2.467
   105   1 H        0.926     0.033     2.547     2.495
   106   1 H        0.926     0.036     2.502     2.473
   107   1 H        0.926     0.037     2.492     2.469
   108   1 H        0.926     0.043     2.410     2.428

molecular dipole:
                 x           y           z       tot (Debye)
 q only:       -4.418       1.464      -0.076
   full:       -4.194       1.749      -0.053      11.552

 projected vibrational frequencies (cm⁻¹)
eigval :       -0.00    -0.00    -0.00     0.00     0.00     0.00
eigval :        7.35     7.91    10.55    14.29    16.04    18.37
eigval :       23.32    26.24    29.49    33.54    36.07    42.67
eigval :       58.38    62.83    63.86    74.57    86.35    90.56
eigval :       95.03    98.49    98.71   101.71   117.64   120.58
eigval :      131.14   132.79   137.86   148.72   172.90   188.50
eigval :      189.98   194.37   197.95   210.33   213.29   217.29
eigval :      218.42   227.52   234.96   243.89   248.02   257.43
eigval :      263.55   275.47   299.57   305.64   307.47   327.63
eigval :      327.69   330.88   337.24   345.64   357.47   366.71
eigval :      368.96   371.43   372.29   373.73   377.49   383.32
eigval :      385.07   396.78   409.55   409.64   414.12   421.07
eigval :      449.80   450.74   451.59   470.63   487.34   499.15
eigval :      507.87   509.48   515.95   521.25   525.13   539.74
eigval :      543.59   543.96   545.99   554.34   568.87   580.91
eigval :      584.32   585.35   587.42   589.59   590.73   598.32
eigval :      607.52   614.22   621.99   637.69   646.81   656.49
eigval :      659.15   663.83   664.12   674.78   676.47   686.16
eigval :      687.73   688.73   698.72   701.29   709.58   741.58
eigval :      754.49   765.87   766.39   769.62   771.58   773.29
eigval :      773.43   775.90   801.73   808.65   821.49   824.39
eigval :      825.51   837.46   838.72   852.71   859.27   861.79
eigval :      864.16   867.26   867.91   874.65   876.34   894.35
eigval :      904.24   909.68   912.61   912.90   913.89   914.26
eigval :      914.73   916.16   919.37   919.96   921.57   922.10
eigval :      924.30   928.10   928.34   930.06   931.10   932.36
eigval :      935.90   936.74   955.44   957.39   961.00   970.06
eigval :      982.48   992.43  1000.11  1011.93  1014.02  1019.94
eigval :     1069.21  1072.98  1074.55  1075.14  1075.39  1078.45
eigval :     1086.64  1089.01  1094.02  1105.83  1107.72  1108.18
eigval :     1113.02  1113.78  1121.39  1133.95  1137.44  1138.64
eigval :     1144.84  1150.43  1150.84  1159.41  1162.09  1174.89
eigval :     1177.93  1178.93  1180.67  1181.57  1182.46  1184.85
eigval :     1186.81  1191.38  1198.69  1209.07  1214.22  1225.69
eigval :     1233.68  1239.91  1242.14  1244.77  1256.02  1260.80
eigval :     1266.64  1268.36  1280.21  1283.02  1287.93  1292.59
eigval :     1292.92  1296.85  1304.29  1318.26  1319.52  1319.92
eigval :     1323.43  1326.79  1328.11  1328.92  1329.16  1332.84
eigval :     1333.19  1333.83  1359.94  1377.12  1381.08  1397.17
eigval :     1397.57  1405.80  1414.57  1415.85  1416.24  1424.64
eigval :     1426.16  1429.68  1430.55  1431.34  1432.39  1435.22
eigval :     1457.90  1459.29  1459.73  1465.41  1474.60  1478.00
eigval :     1482.57  1482.96  1483.54  1483.77  1485.09  1492.63
eigval :     1493.24  1493.51  1495.26  1498.04  1499.25  1526.22
eigval :     1555.77  1557.27  1558.82  1569.69  1572.92  1573.18
eigval :     1580.02  1580.79  1583.48  1584.61  1590.23  1592.90
eigval :     1594.94  1599.97  3022.52  3024.96  3025.86  3027.37
eigval :     3044.41  3045.42  3046.60  3047.85  3051.96  3052.89
eigval :     3055.89  3057.15  3063.03  3063.52  3065.23  3068.41
eigval :     3070.63  3074.42  3074.60  3077.51  3078.65  3080.54
eigval :     3080.65  3080.92  3080.97  3084.62  3086.02  3087.31
eigval :     3087.45  3087.83  3087.93  3091.19  3093.14  3095.91
eigval :     3095.94  3097.43  3097.59  3098.08  3098.40  3103.79
eigval :     3105.92  3106.71  3107.71  3108.21  3108.77  3111.69

   temp. (K)  partition function   enthalpy   heat capacity  entropy
                                   cal/mol     cal/K/mol   cal/K/mol   J/K/mol
 298.15  VIB  0.102E+27            31517.499    194.581    198.193
         ROT  0.205E+09              888.752      2.981     41.017
         INT  0.208E+35            32406.251    197.561    239.210
         TR   0.219E+29             1481.254      4.968     45.892
         TOT                       33887.5048   202.5296   285.1021  1192.8673

       T/K    H(0)-H(T)+PV         H(T)/Eh          T*S/Eh         G(T)/Eh
   ------------------------------------------------------------------------
    298.15    0.540032E-01    0.905733E+00    0.135461E+00    0.770271E+00
   ------------------------------------------------------------------------

         :::::::::::::::::::::::::::::::::::::::::::::::::::::
         ::                  THERMODYNAMIC                  ::
         :::::::::::::::::::::::::::::::::::::::::::::::::::::
         :: total free energy        -158.646111336621 Eh   ::
         ::.................................................::
         :: total energy             -159.416382775820 Eh   ::
         :: zero point energy           0.851729486234 Eh   ::
         :: G(RRHO) w/o ZPVE           -0.081458047035 Eh   ::
         :: G(RRHO) contrib.            0.770271439199 Eh   ::
         :::::::::::::::::::::::::::::::::::::::::::::::::::::

           -------------------------------------------------
          | TOTAL ENERGY             -159.416382775820 Eh   |
          | TOTAL ENTHALPY           -158.510650113168 Eh   |
          | TOTAL FREE ENERGY        -158.646111336621 Eh   |
          | GRADIENT NORM               0.000039698645 Eh/α |
          | HOMO-LUMO GAP               0.424803646884 eV   |
           -------------------------------------------------

 * finished run on 2025/07/18 at 00:01:55.474
