   * xtb version 6.7.1 (edcfbbe) compiled by 'albert@albert-system' on 2024-07-22

   ID    Z sym.   atoms
    1    6 C      1-9, 11-28, 30-36, 38, 39, 41-62
    2    7 N      10, 29, 37, 40
    3    1 H      63-108

          program call               : xtb data2507/toluene/DMAC-BPP/DMAC-BPP.xyz --gfn 2 --gbsa toluene --ohess vtight --parallel 40 --molden --ceasefiles --namespace data2507/toluene/DMAC-BPP/DMAC-BPP_toluene_S0_preOpt
      * Solvation model:               GBSA
        Solvent                        toluene
        Solvent mass                       9.2140E+01 g/mol
          :  Hamiltonian                  GFN2-xTB          :
 * total energy  :  -159.4542034 Eh     change       -0.4042988E-08 Eh
 * total energy  :  -159.4740118 Eh     change       -0.1980835E-01 Eh
 * total energy  :  -159.4812747 Eh     change       -0.7262856E-02 Eh
 * total energy  :  -159.4833636 Eh     change       -0.2088927E-02 Eh
 * total energy  :  -159.4847582 Eh     change       -0.1394584E-02 Eh
 * total energy  :  -159.4853253 Eh     change       -0.5671521E-03 Eh
 * total energy  :  -159.4854837 Eh     change       -0.1583617E-03 Eh
 * total energy  :  -159.4855576 Eh     change       -0.7389472E-04 Eh
 * total energy  :  -159.4856337 Eh     change       -0.7614953E-04 Eh
 * total energy  :  -159.4856787 Eh     change       -0.4500406E-04 Eh
 * total energy  :  -159.4868858 Eh     change       -0.2301774E-06 Eh
 * total energy  :  -159.4868860 Eh     change       -0.2005527E-06 Eh
 * total energy  :  -159.4868862 Eh     change       -0.1476092E-06 Eh
 * total energy  :  -159.4868863 Eh     change       -0.1291076E-06 Eh
 * total energy  :  -159.4868865 Eh     change       -0.1643010E-06 Eh
 * total energy  :  -159.4868867 Eh     change       -0.2072632E-06 Eh
 * total energy  :  -159.4868868 Eh     change       -0.1629464E-06 Eh
 * total energy  :  -159.4868869 Eh     change       -0.1120576E-06 Eh
 * total energy  :  -159.4868870 Eh     change       -0.7630413E-07 Eh
   *** GEOMETRY OPTIMIZATION CONVERGED AFTER 209 ITERATIONS ***

 final structure:
================
108
 xtb: 6.7.1 (edcfbbe)
C           -1.99162489543558        6.94936821435861        0.29144519784253
C           -0.80650646410163        5.97086064903317        0.39234707559428
C            0.50907606649565        6.74648103192941        0.59375653860948
C           -0.71246218527857        5.18336955847689       -0.90182743756676
C           -0.51136202670424        5.85508031052439       -2.10012545314981
C           -0.41247356724772        5.19024095312553       -3.30908632807824
C           -0.50998040066530        3.81061191142899       -3.33252528430780
C           -0.70911595560896        3.11810491883198       -2.15646572020887
C           -0.81749506095990        3.78868853401634       -0.93470534909471
N           -1.02308758173512        3.06323475639715        0.22832596184668
C           -1.13833878718256        1.64803074099741        0.14295133301698
C           -0.00852603518317        0.85393291429269        0.28503093733609
C           -0.11689861108125       -0.53099944245395        0.20419560304531
C            1.05232973380905       -1.40513650610332        0.38482931665792
C            2.34277849023536       -1.01459761118721        0.03911753454916
C            3.36969715606587       -1.93225579563723        0.27450497574526
C            4.77280388931781       -1.64809229261831       -0.04203558360361
C            5.64751057812822       -2.70648106697246       -0.28889494557233
C            6.97241668072173       -2.47036400581825       -0.58846566099169
C            7.46886356423971       -1.16812632483747       -0.64693760033643
C            8.88139977752819       -0.91351217667321       -0.96575548966590
C            9.88750268149250       -1.70363040138225       -0.41293569551227
C           11.21591737836988       -1.46035012655408       -0.70997105977756
C           11.56055009426307       -0.43034331262468       -1.56996661405597
C           10.56817118401810        0.35869803116260       -2.12828599686789
C            9.23955551727009        0.12240534695220       -1.82646851106719
C            6.59514398444718       -0.11221160281161       -0.39043703874392
C            5.26821645417402       -0.34572558458996       -0.09173300918444
N            3.10469984927369       -3.12914781438147        0.79539927291853
C            1.84254556437225       -3.42369425768869        1.08719866333640
C            1.56660765028536       -4.74277662223032        1.66398919877475
C            0.26291243257687       -5.10459121437733        2.00060983701035
C            0.00639594470566       -6.34814246207747        2.54584153612646
C            1.04441753626189       -7.24163084962995        2.76116271528795
C            2.34363767879751       -6.88653663493518        2.43201192619272
C            2.60617925197454       -5.64445064910600        1.88646733886997
N            0.80956348032549       -2.60766370561460        0.90109942071190
C           -1.36170339895590       -1.10798483541862       -0.02843558447192
C           -2.49239866911277       -0.31492225911432       -0.16732496466748
N           -3.75831152402777       -0.90963904212074       -0.39383497022496
C           -4.36674705870160       -0.74908153252636       -1.63262285746888
C           -3.69115125271104       -0.07836525852988       -2.65664598787649
C           -4.27531060199281        0.11514759315158       -3.89080387889811
C           -5.54792114600314       -0.36995654009543       -4.13228717443349
C           -6.20496842991903       -1.06422715771200       -3.13334434786521
C           -5.63851002273052       -1.27501652673969       -1.88300634019462
C           -6.40046841513406       -2.07965423193166       -0.84723986761036
C           -7.73181182323960       -1.36661684133584       -0.54431991716441
C           -6.66672039006566       -3.48536698947108       -1.41852785096744
C           -5.62005703766829       -2.21751494922836        0.44659096689732
C           -6.17429581926269       -2.93283262117603        1.50032501580267
C           -5.52934861540174       -3.07367411232169        2.71492255349282
C           -4.29877061687720       -2.46931841324099        2.89800082900399
C           -3.72623667032486       -1.75225333072817        1.86826577465867
C           -4.36278787580167       -1.63172396695027        0.62922320382991
C           -2.38080821796642        1.06891704525473       -0.07684991696387
C           -1.12613623772435        3.67583919567622        1.46767492082527
C           -1.33415495114724        2.89501565350030        2.60818998841859
C           -1.43526773524721        3.47407881363656        3.85609864230821
C           -1.33316530330066        4.84738805087799        3.98706492846586
C           -1.13105373640426        5.62162510529803        2.85887395336269
C           -1.02511869340300        5.06572813552760        1.59102260572761
H           -2.91916905680003        6.39558545668299        0.15510326822507
H           -1.86728114693807        7.62348381992568       -0.55142563168174
H           -2.07868137728762        7.54650691756579        1.19488265966165
H            1.34157056564919        6.04924484874012        0.67332855674755
H            0.69834880808610        7.41314382546971       -0.24291580056665
H            0.47274204437081        7.34166540937631        1.50188416689995
H           -0.42939301197690        6.93147462049935       -2.09730167066472
H           -0.25789621974348        5.74518491061598       -4.22220151815506
H           -0.43146759534608        3.26981659163621       -4.26441692375170
H           -0.77877884437086        2.04115515040946       -2.17988388711900
H            0.94195072262077        1.32537211147739        0.48329123978914
H            2.53362307302751       -0.06286658385499       -0.42693574468452
H            5.26177067462000       -3.71362841587543       -0.25044127033363
H            7.62985134496568       -3.30102933151391       -0.79876713727305
H            9.62545246444297       -2.49777895769673        0.27111977706243
H           11.98628265459154       -2.07593542473130       -0.26807609611777
H           12.59837249055437       -0.24300058878453       -1.80385951097205
H           10.83102848681360        1.16093505688348       -2.80291173859685
H            8.46895967871815        0.73077273347661       -2.27757622895725
H            6.96767341844645        0.90168079807300       -0.40314021567583
H            4.62202567279649        0.49057678686659        0.13086987044248
H           -0.53448580861324       -4.39757810613164        1.83204185717074
H           -1.00602569881826       -6.62230801025913        2.80445021580272
H            0.84162859215517       -8.21338463490130        3.18708981972560
H            3.15313445149647       -7.58125187526389        2.60218458452816
H            3.61195918114329       -5.35084962692322        1.62921037831907
H           -1.43882513242054       -2.18212039332737       -0.09367348924009
H           -2.69218742772184        0.29066033985267       -2.48511144237525
H           -3.73212538301018        0.64282527847585       -4.66107271784620
H           -6.02082466709666       -0.22057643808975       -5.09123770656553
H           -7.19030213382480       -1.45314203672727       -3.34047340137982
H           -8.31255670552073       -1.92385806024518        0.18537834562243
H           -8.32860886114164       -1.26155238240713       -1.44607953263878
H           -7.53782157883287       -0.37333227503317       -0.14270849360081
H           -7.22597618302784       -4.09172381146288       -0.71165909766761
H           -7.23627451605342       -3.42789039165907       -2.34182635568667
H           -5.72239135377867       -3.98520990114527       -1.62824873325144
H           -7.14152544630457       -3.39533780319901        1.37540746422986
H           -5.98791260885288       -3.64049757489095        3.51113710194583
H           -3.78065942105436       -2.55110880449154        3.84232723246852
H           -2.76991955557980       -1.27949636339289        2.02844417675742
H           -3.25621168773248        1.69276486292741       -0.18046649100614
H           -1.41583622272778        1.82303184969197        2.51211399141523
H           -1.59533402720370        2.84977883389827        4.72300298161643
H           -1.41030362407369        5.31360081804620        4.95780175105682
H           -1.05539583367197        6.69195637579804        2.97667106683438

          :  Hamiltonian                  GFN2-xTB          :
         :: gradient norm              0.000025065018 Eh/a0 ::
         :: HOMO-LUMO gap              1.603696594398 eV    ::
         :: SCC energy              -162.406591175240 Eh    ::
         :: -> dispersion             -0.150418539351 Eh    ::
         :: -> Gsolv                  -0.065307801792 Eh    ::
         :: repulsion energy           2.919704155343 Eh    ::

    * Orbital Energies and Occupations

         #    Occupation            Energy/Eh            Energy/eV
      -------------------------------------------------------------
         1        2.0000           -0.6810245             -18.5316
       ...           ...                  ...                  ...
       137        2.0000           -0.4064469             -11.0600
       138        2.0000           -0.4047207             -11.0130
       139        2.0000           -0.4037654             -10.9870
       140        2.0000           -0.4036187             -10.9830
       141        2.0000           -0.4008875             -10.9087
       142        2.0000           -0.3992644             -10.8645
       143        2.0000           -0.3978928             -10.8272
       144        2.0000           -0.3939031             -10.7186
       145        2.0000           -0.3925159             -10.6809
       146        2.0000           -0.3893691             -10.5953
       147        2.0000           -0.3682066             -10.0194
       148        2.0000           -0.3493771              -9.5070
       149        2.0000           -0.3469855              -9.4420 (HOMO)
       150                         -0.2880507              -7.8383 (LUMO)
       151                         -0.2783018              -7.5730
       152                         -0.2530688              -6.8864
       153                         -0.2487883              -6.7699
       154                         -0.2302019              -6.2641
       155                         -0.2291822              -6.2364
       156                         -0.2261415              -6.1536
       157                         -0.2255369              -6.1372
       158                         -0.2246120              -6.1120
       159                         -0.2245860              -6.1113
       160                         -0.2205817              -6.0023
       ...                                ...                  ...
       294                          0.6897429              18.7689
      -------------------------------------------------------------
                  HL-Gap            0.0589348 Eh            1.6037 eV

     #   Z          covCN         q      C6AA      α(0)
     1   6 C        3.761    -0.104    22.526     6.766
     2   6 C        3.908     0.021    20.165     6.383
     3   6 C        3.761    -0.104    22.525     6.766
     4   6 C        2.979    -0.014    28.356     8.735
     5   6 C        2.928    -0.037    28.928     8.820
     6   6 C        2.917    -0.046    29.151     8.854
     7   6 C        2.919    -0.035    28.859     8.809
     8   6 C        2.924    -0.059    29.475     8.903
     9   6 C        2.928     0.058    26.692     8.473
    10   7 N        2.755    -0.076    22.715     7.078
    11   6 C        2.925     0.074    26.347     8.418
    12   6 C        2.925    -0.045    29.127     8.851
    13   6 C        2.980     0.005    27.910     8.666
    14   6 C        2.970     0.113    25.509     8.285
    15   6 C        2.912    -0.071    29.773     8.947
    16   6 C        2.965     0.114    25.486     8.281
    17   6 C        2.979    -0.003    28.095     8.695
    18   6 C        2.924    -0.025    28.627     8.774
    19   6 C        2.922    -0.033    28.814     8.803
    20   6 C        2.976     0.016    27.653     8.626
    21   6 C        2.976     0.010    27.794     8.648
    22   6 C        2.925    -0.033    28.832     8.806
    23   6 C        2.918    -0.030    28.739     8.791
    24   6 C        2.920    -0.031    28.762     8.795
    25   6 C        2.918    -0.030    28.743     8.792
    26   6 C        2.925    -0.034    28.837     8.806
    27   6 C        2.923    -0.034    28.840     8.807
    28   6 C        2.921    -0.032    28.807     8.802
    29   7 N        1.849    -0.289    28.330     7.889
    30   6 C        2.943     0.190    23.954     8.027
    31   6 C        2.984    -0.004    28.121     8.699
    32   6 C        2.923    -0.028    28.702     8.786
    33   6 C        2.918    -0.028    28.710     8.787
    34   6 C        2.920    -0.025    28.629     8.774
    35   6 C        2.918    -0.028    28.712     8.787
    36   6 C        2.924    -0.028    28.708     8.787
    37   7 N        1.850    -0.291    28.383     7.896
    38   6 C        2.928    -0.038    28.934     8.821
    39   6 C        2.924     0.074    26.339     8.416
    40   7 N        2.753    -0.072    22.641     7.067
    41   6 C        2.927     0.058    26.704     8.475
    42   6 C        2.925    -0.059    29.471     8.903
    43   6 C        2.919    -0.034    28.858     8.809
    44   6 C        2.917    -0.046    29.136     8.852
    45   6 C        2.928    -0.037    28.929     8.821
    46   6 C        2.979    -0.013    28.335     8.732
    47   6 C        3.909     0.021    20.165     6.383
    48   6 C        3.761    -0.104    22.529     6.766
    49   6 C        3.761    -0.104    22.535     6.767
    50   6 C        2.979    -0.013    28.336     8.732
    51   6 C        2.928    -0.037    28.929     8.821
    52   6 C        2.917    -0.045    29.128     8.850
    53   6 C        2.919    -0.034    28.849     8.808
    54   6 C        2.924    -0.059    29.461     8.901
    55   6 C        2.926     0.058    26.699     8.474
    56   6 C        2.924    -0.047    29.171     8.857
    57   6 C        2.927     0.058    26.695     8.473
    58   6 C        2.924    -0.060    29.488     8.905
    59   6 C        2.919    -0.035    28.862     8.810
    60   6 C        2.917    -0.046    29.149     8.853
    61   6 C        2.928    -0.037    28.931     8.821
    62   6 C        2.979    -0.014    28.360     8.735
    63   1 H        0.925     0.030     2.586     2.515
    64   1 H        0.925     0.042     2.420     2.433
    65   1 H        0.925     0.042     2.422     2.433
    66   1 H        0.925     0.029     2.595     2.519
    67   1 H        0.925     0.042     2.419     2.432
    68   1 H        0.925     0.042     2.421     2.433
    69   1 H        0.926     0.034     2.536     2.490
    70   1 H        0.926     0.027     2.635     2.539
    71   1 H        0.926     0.026     2.638     2.540
    72   1 H        0.926     0.018     2.768     2.601
    73   1 H        0.926     0.049     2.334     2.389
    74   1 H        0.926     0.039     2.456     2.451
    75   1 H        0.926     0.049     2.332     2.388
    76   1 H        0.926     0.043     2.405     2.425
    77   1 H        0.926     0.035     2.510     2.478
    78   1 H        0.926     0.034     2.532     2.489
    79   1 H        0.926     0.033     2.541     2.493
    80   1 H        0.926     0.033     2.540     2.492
    81   1 H        0.926     0.034     2.528     2.486
    82   1 H        0.926     0.041     2.429     2.437
    83   1 H        0.926     0.035     2.520     2.482
    84   1 H        0.926     0.050     2.321     2.383
    85   1 H        0.926     0.042     2.427     2.436
    86   1 H        0.926     0.043     2.409     2.427
    87   1 H        0.926     0.042     2.421     2.433
    88   1 H        0.926     0.051     2.305     2.374
    89   1 H        0.926     0.062     2.174     2.306
    90   1 H        0.926     0.020     2.727     2.583
    91   1 H        0.926     0.027     2.628     2.535
    92   1 H        0.926     0.027     2.629     2.535
    93   1 H        0.926     0.034     2.525     2.485
    94   1 H        0.925     0.043     2.415     2.430
    95   1 H        0.925     0.042     2.418     2.432
    96   1 H        0.925     0.030     2.585     2.514
    97   1 H        0.925     0.043     2.411     2.428
    98   1 H        0.925     0.042     2.420     2.433
    99   1 H        0.925     0.030     2.583     2.513
   100   1 H        0.926     0.034     2.524     2.484
   101   1 H        0.926     0.028     2.620     2.531
   102   1 H        0.926     0.028     2.619     2.531
   103   1 H        0.926     0.023     2.687     2.563
   104   1 H        0.926     0.055     2.259     2.350
   105   1 H        0.926     0.019     2.743     2.590
   106   1 H        0.926     0.027     2.635     2.539
   107   1 H        0.926     0.027     2.634     2.538
   108   1 H        0.926     0.034     2.534     2.490

molecular dipole:
                 x           y           z       tot (Debye)
 q only:        0.534      -0.101      -0.135
   full:        0.644       0.250      -0.269       1.885

 projected vibrational frequencies (cm⁻¹)
eigval :       -0.00    -0.00    -0.00     0.00     0.00     0.00
eigval :        8.06     9.63    13.05    13.68    16.96    19.11
eigval :       27.95    31.78    34.34    35.79    40.31    43.88
eigval :       55.49    63.80    65.83    75.57    86.32    94.14
eigval :       97.14   102.55   105.34   106.01   112.15   121.14
eigval :      130.47   130.73   135.34   151.66   177.52   190.85
eigval :      191.75   193.22   200.70   211.35   217.87   221.28
eigval :      223.05   230.77   237.99   241.78   249.82   261.05
eigval :      271.21   276.84   306.78   307.45   309.79   328.36
eigval :      331.30   331.71   338.76   346.58   350.60   356.79
eigval :      365.07   369.75   369.96   372.60   378.14   384.05
eigval :      386.28   406.29   409.92   412.70   421.89   425.39
eigval :      452.01   453.55   457.20   474.70   487.22   496.53
eigval :      505.55   514.40   519.34   529.00   532.84   542.34
eigval :      546.50   548.32   550.13   555.59   583.15   585.73
eigval :      586.67   587.38   593.17   597.83   604.71   615.13
eigval :      621.85   625.36   640.26   654.50   656.64   669.70
eigval :      670.99   673.12   677.55   680.62   683.89   686.47
eigval :      694.74   697.10   703.85   715.03   738.14   745.39
eigval :      759.88   768.03   773.76   774.81   776.44   777.37
eigval :      778.89   818.80   822.60   823.96   832.54   840.35
eigval :      843.82   850.56   861.97   862.40   866.50   866.71
eigval :      870.36   876.19   880.16   890.33   900.30   904.15
eigval :      910.74   911.36   911.72   912.50   914.02   915.77
eigval :      917.85   919.67   920.17   920.51   920.67   920.96
eigval :      928.12   929.19   932.48   933.56   934.87   937.38
eigval :      937.72   949.66   956.80   957.00   967.81   989.41
eigval :      997.39  1006.40  1013.46  1013.64  1025.25  1027.27
eigval :     1073.85  1075.86  1076.09  1076.42  1086.22  1086.84
eigval :     1092.92  1101.36  1107.54  1111.32  1111.78  1113.66
eigval :     1117.52  1118.95  1120.60  1138.99  1139.33  1140.34
eigval :     1151.13  1158.15  1158.73  1161.45  1176.12  1178.13
eigval :     1180.64  1181.86  1183.87  1185.98  1186.52  1187.87
eigval :     1188.78  1194.19  1200.02  1206.57  1221.56  1227.52
eigval :     1237.36  1246.42  1247.09  1249.92  1251.93  1264.44
eigval :     1268.41  1268.67  1270.04  1280.49  1288.88  1291.91
eigval :     1292.79  1293.54  1303.92  1315.99  1319.00  1322.82
eigval :     1324.51  1324.89  1327.62  1332.29  1333.07  1334.47
eigval :     1339.38  1361.81  1378.89  1392.11  1399.40  1399.78
eigval :     1401.68  1418.15  1418.25  1430.45  1431.43  1432.21
eigval :     1436.07  1436.25  1440.40  1440.90  1449.13  1463.99
eigval :     1470.37  1475.78  1478.03  1486.66  1486.70  1486.79
eigval :     1486.88  1492.26  1495.77  1496.61  1496.73  1497.99
eigval :     1502.13  1502.49  1514.52  1528.81  1559.63  1566.88
eigval :     1569.58  1574.40  1574.48  1580.81  1583.20  1589.39
eigval :     1590.06  1590.54  1590.66  1591.01  1594.08  1600.10
eigval :     1600.41  1601.15  3020.76  3021.09  3023.53  3023.55
eigval :     3039.00  3039.44  3041.02  3041.39  3047.49  3048.05
eigval :     3051.75  3052.34  3068.03  3069.43  3071.66  3072.68
eigval :     3072.88  3072.91  3073.26  3075.06  3077.77  3078.37
eigval :     3078.64  3079.49  3080.03  3080.69  3080.78  3082.67
eigval :     3087.11  3087.87  3088.29  3089.32  3089.90  3091.36
eigval :     3092.42  3094.37  3095.45  3096.12  3097.42  3099.97
eigval :     3101.63  3102.85  3103.52  3105.48  3108.81  3109.53

   temp. (K)  partition function   enthalpy   heat capacity  entropy
                                   cal/mol     cal/K/mol   cal/K/mol   J/K/mol
 298.15  VIB  0.208E+26            31224.964    193.242    195.835
         ROT  0.205E+09              888.752      2.981     41.017
         INT  0.427E+34            32113.717    196.223    236.852
         TR   0.219E+29             1481.254      4.968     45.892
         TOT                       33594.9704   201.1910   282.7440  1183.0009

       T/K    H(0)-H(T)+PV         H(T)/Eh          T*S/Eh         G(T)/Eh
   ------------------------------------------------------------------------
    298.15    0.535370E-01    0.908951E+00    0.134341E+00    0.774610E+00
   ------------------------------------------------------------------------

         :::::::::::::::::::::::::::::::::::::::::::::::::::::
         ::                  THERMODYNAMIC                  ::
         :::::::::::::::::::::::::::::::::::::::::::::::::::::
         :: total free energy        -158.712276694750 Eh   ::
         ::.................................................::
         :: total energy             -159.486887021230 Eh   ::
         :: zero point energy           0.855414129191 Eh   ::
         :: G(RRHO) w/o ZPVE           -0.080803802711 Eh   ::
         :: G(RRHO) contrib.            0.774610326480 Eh   ::
         :::::::::::::::::::::::::::::::::::::::::::::::::::::

           -------------------------------------------------
          | TOTAL ENERGY             -159.486887021230 Eh   |
          | TOTAL ENTHALPY           -158.577935898871 Eh   |
          | TOTAL FREE ENERGY        -158.712276694750 Eh   |
          | GRADIENT NORM               0.000025068841 Eh/α |
          | HOMO-LUMO GAP               1.603697504955 eV   |
           -------------------------------------------------

 * finished run on 2025/07/17 at 23:52:13.205
