   * xtb version 6.7.1 (edcfbbe) compiled by 'albert@albert-system' on 2024-07-22

   ID    Z sym.   atoms
    1    6 C      1-9, 11-28, 30-36, 38, 39, 41-62
    2    7 N      10, 29, 37, 40
    3    1 H      63-108

          program call               : xtb data2507/toluene/DMAC-BPP/DMAC-BPP_toluene_T1_crest.xyz --gfn 2 --uhf 2 --gbsa toluene --ohess vtight --parallel 40 --molden --ceasefiles --namespace data2507/toluene/DMAC-BPP/DMAC-BPP_toluene_T1_finalOpt
      * Solvation model:               GBSA
        Solvent                        toluene
        Solvent mass                       9.2140E+01 g/mol
          :  Hamiltonian                  GFN2-xTB          :
 * total energy  :  -159.4161307 Eh     change       -0.6242288E-08 Eh
 * total energy  :  -159.4162594 Eh     change       -0.1287545E-03 Eh
 * total energy  :  -159.4163147 Eh     change       -0.5528233E-04 Eh
 * total energy  :  -159.4163207 Eh     change       -0.6000682E-05 Eh
 * total energy  :  -159.4163253 Eh     change       -0.4593753E-05 Eh
 * total energy  :  -159.4163279 Eh     change       -0.2526303E-05 Eh
 * total energy  :  -159.4163345 Eh     change       -0.6660651E-05 Eh
 * total energy  :  -159.4163397 Eh     change       -0.5186068E-05 Eh
 * total energy  :  -159.4163462 Eh     change       -0.6471940E-05 Eh
 * total energy  :  -159.4163533 Eh     change       -0.7098108E-05 Eh
 * total energy  :  -159.4164110 Eh     change       -0.3273510E-06 Eh
 * total energy  :  -159.4164113 Eh     change       -0.2708599E-06 Eh
 * total energy  :  -159.4164114 Eh     change       -0.1747483E-06 Eh
 * total energy  :  -159.4164116 Eh     change       -0.1794909E-06 Eh
 * total energy  :  -159.4164118 Eh     change       -0.1787635E-06 Eh
 * total energy  :  -159.4164120 Eh     change       -0.1839706E-06 Eh
 * total energy  :  -159.4164121 Eh     change       -0.1736847E-06 Eh
 * total energy  :  -159.4164123 Eh     change       -0.1625044E-06 Eh
 * total energy  :  -159.4164123 Eh     change       -0.3219640E-08 Eh
   *** GEOMETRY OPTIMIZATION CONVERGED AFTER 44 ITERATIONS ***

 final structure:
================
108
 xtb: 6.7.1 (edcfbbe)
C           -2.92219532268959        6.83128210904903       -0.24651591011461
C           -1.63213688453599        5.99291591986523       -0.15951201312278
C           -0.39981670212219        6.91802994232508       -0.12283662000754
C           -1.54037471207316        5.11182073018858       -1.38908251933692
C           -1.50792060729656        5.69144347709444       -2.65024268035735
C           -1.42531670834202        4.93334352301912       -3.80412563628224
C           -1.37084147498494        3.55178566841819       -3.70978682355097
C           -1.39983450524129        2.94877713318490       -2.47190294045748
C           -1.48320189439172        3.71332328761771       -1.30076436399781
N           -1.50928893377449        3.07857043425999       -0.07530357392929
C           -1.47619186924066        1.65219371562216       -0.03519289316282
C           -0.26518884834394        0.99596766816132       -0.02374271830480
C           -0.20716560959985       -0.41441187248917        0.00719494231370
C            1.01667972687298       -1.15546286930158        0.01148141746058
C            2.29481375252157       -0.57837935872790        0.07036841459115
C            3.40419216620199       -1.40715524062367        0.06629986209326
C            4.77093795416973       -0.92781877889611        0.10663147028546
C            5.11274211310893        0.39503119425581        0.42055014239331
C            6.42683834484356        0.80314272937767        0.43394502733201
C            7.46792998556255       -0.08375189494161        0.14458468198425
C            8.86502547088527        0.35858429942337        0.15811363427006
C            9.21981659295098        1.62433852004314       -0.31162681879605
C           10.53778929889557        2.03963874408148       -0.30161451138213
C           11.53064072704104        1.20210059310624        0.18084971278142
C           11.19279560086319       -0.05664379176684        0.65160406224257
C            9.87585260808332       -0.47511478360904        0.63943577913331
C            7.13031869725865       -1.40688854090573       -0.15648732976011
C            5.81904736310293       -1.81796319268466       -0.17592274271475
N            3.23003024665940       -2.75920639549487       -0.00261043190605
C            2.00563161926496       -3.25483932774131       -0.05818082647235
C            1.85565341416630       -4.71310108122911       -0.13475415203818
C            0.61997648244049       -5.28054794503215       -0.43556300170552
C            0.48261994379892       -6.65372296496449       -0.50826870730059
C            1.57594000959864       -7.47476632427470       -0.27987534859127
C            2.80885602152386       -6.91712683500420        0.02066802360899
C            2.94989769548140       -5.54403082482085        0.09221677112282
N            0.91848670340525       -2.51834069407162       -0.04801203401577
C           -1.43740652639686       -1.11158623748573        0.03141962737315
C           -2.63653059503074       -0.44010306198343        0.02392012418096
N           -3.86413477639384       -1.16773598635785        0.05562162305385
C           -4.43728274945926       -1.56467026999610       -1.13481207495473
C           -3.78564595276829       -1.28039105504567       -2.34240840370772
C           -4.33317690780859       -1.65941783509769       -3.54772196925865
C           -5.54543827352840       -2.33116359215440       -3.57239350853251
C           -6.19104100666726       -2.61506606680470       -2.38260983611729
C           -5.66349736316645       -2.24589500970677       -1.15254339713671
C           -6.41420739446323       -2.58387557231225        0.11940062885690
C           -7.79743084841243       -1.90555016618497        0.07293980260233
C           -6.57562001792749       -4.11432721800923        0.20474814733367
C           -5.68005810620913       -2.10317769783537        1.35451188222571
C           -6.22435652029670       -2.33083010978437        2.61127076528667
C           -5.59453268865450       -1.91354632965636        3.76974012729183
C           -4.38080736867879       -1.24944964109346        3.68515122255849
C           -3.81679594357141       -1.00944699002295        2.45211072528258
C           -4.45370598765837       -1.42678417710011        1.27573210628864
C           -2.68503644288931        0.95555932725218       -0.01241439320120
C           -1.59803890563477        3.77840156484167        1.11106536577406
C           -1.61658071594577        3.07832073243532        2.32447398479505
C           -1.70582122064738        3.74635594422601        3.52554069416462
C           -1.77729568365286        5.13033364200845        3.53972199351057
C           -1.75296097458111        5.82531974428510        2.34417742676157
C           -1.66406567517100        5.17923224494572        1.11848491215523
H           -3.79065075521659        6.17557645059773       -0.27335368213652
H           -2.92541140319612        7.44262107732425       -1.14411508740530
H           -3.01404182279329        7.48852383131153        0.61315874030447
H           -0.34912164639225        7.52874611669978       -1.01957072458250
H           -0.43839090062209        7.57856779389338        0.73849428517824
H            0.51015006350431        6.32352789555537       -0.05986612564359
H           -1.54773220819012        6.76581313933545       -2.74183552364289
H           -1.40253524684894        5.41704194548728       -4.76876578599816
H           -1.30566491376266        2.94394086190688       -4.59980233089061
H           -1.35366739912853        1.87370525837444       -2.39824728646281
H            0.63892801736642        1.58372107646936       -0.04844896148141
H            2.41226544280628        0.49161406431169        0.10595176224230
H            4.34399311355931        1.10924638049067        0.67688917325505
H            6.65978718851298        1.82415403571635        0.70215841844186
H            8.45579388922945        2.27693849736895       -0.70921430552695
H           10.79378255107893        3.02097954407929       -0.67589289587247
H           12.56068914531867        1.52775454694161        0.18952385576967
H           11.96087888152869       -0.71398582267078        1.03428305923868
H            9.62025114908650       -1.45064806616989        1.02755465654148
H            7.91145446286696       -2.11196842044321       -0.40325375015830
H            5.56743682455614       -2.83834937479279       -0.42396043833199
H           -0.22075772787486       -4.62757829439866       -0.61499471533169
H           -0.47854357864275       -7.08707220634314       -0.74459960114370
H            1.46747970863699       -8.54812006243632       -0.33630552481689
H            3.66179820896469       -7.55570662387069        0.19994898851962
H            3.90240345438225       -5.09368355734040        0.32813667522332
H           -1.41431097592632       -2.18909261113390        0.06217075690206
H           -2.83978189198706       -0.76267904265178       -2.32184587445373
H           -3.81424697756461       -1.43157771076571       -4.46673002165803
H           -5.98403506742074       -2.63285514191931       -4.51132548052051
H           -7.13291410724136       -3.14001236206993       -2.42039770228875
H           -8.35947151701457       -2.23392147870619       -0.79640678704012
H           -7.67976579220874       -0.82470390596626        0.01898790406169
H           -8.37380394131234       -2.14425909208611        0.96191949402415
H           -5.59685237778426       -4.59024285728410        0.22931707920108
H           -7.11698257253210       -4.39599245528305        1.10312444799673
H           -7.12070104902007       -4.49342833355595       -0.65470031633531
H           -7.16741339857179       -2.84816153537146        2.69557729341979
H           -6.04606904557265       -2.10663535384309        4.73087392531782
H           -3.87305492305618       -0.92047983539198        4.57943069950104
H           -2.86892075766018       -0.49943248540287        2.38614128097912
H           -3.62724024835951        1.47941047236378       -0.02060411208319
H           -1.55478576912730        2.00161627872706        2.31296683661150
H           -1.71865587186472        3.18746525349522        4.44927918135605
H           -1.84785452421139        5.66470283585573        4.47487357428339
H           -1.80429852164120        6.90271147632265        2.37370578935939

          :  Hamiltonian                  GFN2-xTB          :
         :: gradient norm              0.000043305739 Eh/a0 ::
         :: HOMO-LUMO gap              0.434494129774 eV    ::
         :: SCC energy              -162.327510396448 Eh    ::
         :: -> dispersion             -0.149816298284 Eh    ::
         :: -> Gsolv                  -0.069646174973 Eh    ::
         :: repulsion energy           2.911098085875 Eh    ::

    * Orbital Energies and Occupations

         #    Occupation            Energy/Eh            Energy/eV
      -------------------------------------------------------------
         1        2.0000           -0.6784699             -18.4621
       ...           ...                  ...                  ...
       138        2.0000           -0.4043173             -11.0020
       139        2.0000           -0.4023276             -10.9479
       140        2.0000           -0.4020172             -10.9394
       141        2.0000           -0.3999155             -10.8823
       142        2.0000           -0.3997176             -10.8769
       143        2.0000           -0.3984807             -10.8432
       144        2.0000           -0.3895583             -10.6004
       145        2.0000           -0.3894001             -10.5961
       146        2.0000           -0.3746493             -10.1947
       147        1.9682           -0.3591071              -9.7718
       148        1.5395           -0.3560126              -9.6876
       149        1.4923           -0.3558331              -9.6827
       150        0.9998           -0.2786668              -7.5829 (HOMO)
       151        0.0002           -0.2626996              -7.1484 (LUMO)
       152                         -0.2435596              -6.6276
       153                         -0.2356228              -6.4116
       154                         -0.2354889              -6.4080
       155                         -0.2319234              -6.3110
       156                         -0.2286647              -6.2223
       157                         -0.2283138              -6.2127
       158                         -0.2277244              -6.1967
       159                         -0.2271893              -6.1821
       160                         -0.2229813              -6.0676
       161                         -0.2177703              -5.9258
       ...                                ...                  ...
       294                          0.7060722              19.2132
      -------------------------------------------------------------
                  HL-Gap            0.0159673 Eh            0.4345 eV

     #   Z          covCN         q      C6AA      α(0)
     1   6 C        3.761    -0.106    22.571     6.773
     2   6 C        3.909     0.023    20.132     6.378
     3   6 C        3.761    -0.105    22.557     6.771
     4   6 C        2.978    -0.007    28.190     8.709
     5   6 C        2.926    -0.035    28.869     8.811
     6   6 C        2.917    -0.038    28.936     8.821
     7   6 C        2.918    -0.031    28.764     8.795
     8   6 C        2.923    -0.052    29.282     8.874
     9   6 C        2.929     0.061    26.632     8.463
    10   7 N        2.756    -0.043    22.066     6.977
    11   6 C        2.925     0.059    26.669     8.469
    12   6 C        2.921    -0.058    29.442     8.898
    13   6 C        2.973    -0.010    28.270     8.721
    14   6 C        2.940     0.073    26.368     8.422
    15   6 C        2.911    -0.062    29.546     8.913
    16   6 C        2.940     0.085    26.114     8.381
    17   6 C        2.975    -0.008    28.225     8.715
    18   6 C        2.919    -0.043    29.057     8.840
    19   6 C        2.922    -0.039    28.958     8.825
    20   6 C        2.975    -0.001    28.050     8.687
    21   6 C        2.975     0.008    27.847     8.656
    22   6 C        2.925    -0.037    28.918     8.819
    23   6 C        2.918    -0.032    28.802     8.801
    24   6 C        2.919    -0.035    28.880     8.813
    25   6 C        2.918    -0.032    28.798     8.800
    26   6 C        2.925    -0.037    28.912     8.818
    27   6 C        2.921    -0.038    28.945     8.823
    28   6 C        2.924    -0.035    28.868     8.811
    29   7 N        1.850    -0.297    28.542     7.918
    30   6 C        2.896     0.194    23.883     8.013
    31   6 C        2.984    -0.003    28.090     8.694
    32   6 C        2.924    -0.029    28.730     8.790
    33   6 C        2.918    -0.030    28.755     8.794
    34   6 C        2.920    -0.029    28.713     8.787
    35   6 C        2.918    -0.030    28.746     8.792
    36   6 C        2.924    -0.029    28.723     8.789
    37   7 N        1.851    -0.289    28.346     7.891
    38   6 C        2.926    -0.050    29.254     8.870
    39   6 C        2.925     0.059    26.684     8.471
    40   7 N        2.756    -0.038    21.978     6.963
    41   6 C        2.929     0.062    26.621     8.462
    42   6 C        2.923    -0.050    29.252     8.869
    43   6 C        2.918    -0.030    28.750     8.793
    44   6 C        2.917    -0.037    28.913     8.818
    45   6 C        2.926    -0.034    28.859     8.810
    46   6 C        2.978    -0.006    28.165     8.705
    47   6 C        3.909     0.023    20.129     6.377
    48   6 C        3.761    -0.106    22.575     6.773
    49   6 C        3.761    -0.106    22.574     6.773
    50   6 C        2.978    -0.006    28.165     8.705
    51   6 C        2.926    -0.035    28.859     8.810
    52   6 C        2.917    -0.037    28.915     8.818
    53   6 C        2.918    -0.030    28.751     8.793
    54   6 C        2.923    -0.050    29.251     8.869
    55   6 C        2.929     0.061    26.622     8.462
    56   6 C        2.920    -0.073    29.819     8.955
    57   6 C        2.929     0.061    26.633     8.463
    58   6 C        2.923    -0.052    29.280     8.874
    59   6 C        2.918    -0.031    28.764     8.795
    60   6 C        2.917    -0.038    28.937     8.821
    61   6 C        2.926    -0.035    28.868     8.811
    62   6 C        2.978    -0.007    28.191     8.709
    63   1 H        0.925     0.034     2.523     2.484
    64   1 H        0.925     0.048     2.348     2.396
    65   1 H        0.925     0.048     2.348     2.396
    66   1 H        0.925     0.047     2.352     2.398
    67   1 H        0.925     0.048     2.351     2.398
    68   1 H        0.925     0.032     2.556     2.500
    69   1 H        0.926     0.043     2.409     2.427
    70   1 H        0.926     0.037     2.493     2.469
    71   1 H        0.926     0.035     2.510     2.477
    72   1 H        0.926     0.032     2.556     2.500
    73   1 H        0.926     0.029     2.595     2.519
    74   1 H        0.926     0.021     2.719     2.579
    75   1 H        0.926     0.020     2.730     2.584
    76   1 H        0.926     0.027     2.629     2.535
    77   1 H        0.926     0.028     2.616     2.529
    78   1 H        0.926     0.028     2.614     2.528
    79   1 H        0.926     0.028     2.615     2.529
    80   1 H        0.926     0.028     2.613     2.528
    81   1 H        0.926     0.028     2.608     2.526
    82   1 H        0.926     0.028     2.614     2.528
    83   1 H        0.926     0.035     2.515     2.480
    84   1 H        0.926     0.042     2.417     2.431
    85   1 H        0.926     0.039     2.462     2.454
    86   1 H        0.926     0.040     2.451     2.448
    87   1 H        0.926     0.038     2.476     2.461
    88   1 H        0.926     0.042     2.416     2.431
    89   1 H        0.926     0.047     2.361     2.403
    90   1 H        0.926     0.033     2.546     2.495
    91   1 H        0.926     0.036     2.500     2.473
    92   1 H        0.926     0.038     2.478     2.462
    93   1 H        0.926     0.044     2.391     2.418
    94   1 H        0.925     0.048     2.340     2.392
    95   1 H        0.925     0.035     2.523     2.484
    96   1 H        0.925     0.048     2.339     2.392
    97   1 H        0.925     0.034     2.529     2.487
    98   1 H        0.925     0.048     2.342     2.393
    99   1 H        0.925     0.048     2.340     2.392
   100   1 H        0.926     0.044     2.391     2.418
   101   1 H        0.926     0.038     2.478     2.462
   102   1 H        0.926     0.036     2.500     2.473
   103   1 H        0.926     0.032     2.552     2.498
   104   1 H        0.926     0.036     2.506     2.475
   105   1 H        0.926     0.032     2.558     2.501
   106   1 H        0.926     0.036     2.506     2.476
   107   1 H        0.926     0.037     2.493     2.469
   108   1 H        0.926     0.043     2.410     2.428

molecular dipole:
                 x           y           z       tot (Debye)
 q only:       -4.427       1.464      -0.057
   full:       -4.207       1.748      -0.037      11.579

 projected vibrational frequencies (cm⁻¹)
eigval :       -0.00    -0.00    -0.00     0.00     0.00     0.00
eigval :        3.29     6.16     7.38    14.79    16.65    21.90
eigval :       25.36    28.48    30.92    35.31    38.63    43.36
eigval :       58.79    61.57    62.44    73.77    87.29    92.69
eigval :       95.94    99.38   100.03   102.82   111.44   119.27
eigval :      127.52   132.08   132.48   150.21   176.78   186.98
eigval :      193.00   194.33   195.88   205.76   213.16   217.95
eigval :      218.62   225.46   235.11   243.90   248.14   257.98
eigval :      266.05   275.75   303.96   304.70   307.43   327.19
eigval :      327.39   329.89   338.04   344.92   355.59   359.39
eigval :      369.36   371.18   371.93   373.63   377.80   383.92
eigval :      384.65   405.12   409.31   409.92   413.20   423.18
eigval :      448.61   449.96   456.87   457.89   492.11   500.84
eigval :      508.34   508.86   513.85   519.66   526.11   540.04
eigval :      543.66   544.61   546.14   557.50   565.63   581.03
eigval :      584.33   585.11   586.70   589.54   592.18   598.14
eigval :      607.28   613.93   622.11   637.66   646.99   657.09
eigval :      660.45   663.90   664.53   675.54   676.61   686.55
eigval :      687.21   688.37   699.24   701.55   709.46   741.44
eigval :      753.21   766.28   767.11   769.36   771.24   772.82
eigval :      774.71   776.06   804.69   808.12   820.90   824.13
eigval :      825.16   837.34   838.81   852.47   858.44   861.66
eigval :      863.45   867.68   868.61   874.25   877.42   896.05
eigval :      905.89   907.52   911.43   912.64   913.32   914.09
eigval :      914.55   915.85   918.63   919.51   921.27   921.92
eigval :      922.21   927.82   928.33   930.34   931.06   931.59
eigval :      937.05   937.72   958.41   958.95   960.60   969.65
eigval :      982.25   992.54  1000.07  1012.20  1013.01  1020.33
eigval :     1068.63  1073.16  1074.57  1074.79  1076.46  1077.12
eigval :     1086.08  1088.90  1095.10  1104.63  1107.21  1108.07
eigval :     1111.68  1113.08  1120.79  1135.64  1136.64  1137.93
eigval :     1145.00  1150.89  1151.39  1159.08  1162.49  1174.37
eigval :     1177.89  1178.15  1180.62  1181.68  1182.27  1183.43
eigval :     1184.31  1190.66  1197.53  1208.66  1213.81  1224.26
eigval :     1233.70  1239.40  1240.15  1243.16  1254.88  1259.91
eigval :     1266.73  1268.51  1279.67  1281.76  1288.06  1291.88
eigval :     1292.08  1295.62  1302.61  1318.23  1319.75  1320.57
eigval :     1322.96  1326.06  1327.37  1329.21  1329.54  1332.14
eigval :     1333.30  1333.81  1359.40  1376.37  1381.04  1398.47
eigval :     1398.85  1405.19  1414.78  1417.04  1417.29  1424.37
eigval :     1426.35  1429.53  1430.63  1431.19  1432.47  1435.00
eigval :     1457.53  1459.09  1461.52  1465.25  1475.33  1477.65
eigval :     1483.17  1483.76  1483.92  1483.97  1484.32  1492.39
eigval :     1493.46  1493.90  1495.13  1498.40  1498.77  1527.05
eigval :     1556.41  1557.09  1558.70  1569.67  1572.98  1573.33
eigval :     1579.76  1580.69  1583.64  1584.74  1590.09  1592.97
eigval :     1594.93  1599.92  3023.90  3025.63  3026.82  3027.74
eigval :     3044.33  3045.16  3046.42  3046.96  3051.73  3052.57
eigval :     3055.55  3056.09  3062.89  3063.64  3065.12  3068.52
eigval :     3070.27  3074.00  3074.63  3077.38  3078.07  3079.88
eigval :     3080.23  3080.25  3080.61  3084.20  3085.93  3086.81
eigval :     3087.35  3087.48  3087.75  3089.06  3091.81  3094.67
eigval :     3095.01  3097.18  3097.46  3097.74  3097.98  3104.88
eigval :     3105.42  3105.49  3105.80  3106.54  3107.93  3111.37

   temp. (K)  partition function   enthalpy   heat capacity  entropy
                                   cal/mol     cal/K/mol   cal/K/mol   J/K/mol
 298.15  VIB  0.250E+27            31522.676    194.746    199.399
         ROT  0.205E+09              888.752      2.981     41.018
         INT  0.513E+35            32411.428    197.727    240.417
         TR   0.219E+29             1481.254      4.968     45.892
         TOT                       33892.6823   202.6954   286.3093  1197.9181

       T/K    H(0)-H(T)+PV         H(T)/Eh          T*S/Eh         G(T)/Eh
   ------------------------------------------------------------------------
    298.15    0.540114E-01    0.905651E+00    0.136035E+00    0.769617E+00
   ------------------------------------------------------------------------

         :::::::::::::::::::::::::::::::::::::::::::::::::::::
         ::                  THERMODYNAMIC                  ::
         :::::::::::::::::::::::::::::::::::::::::::::::::::::
         :: total free energy        -158.646795801539 Eh   ::
         ::.................................................::
         :: total energy             -159.416412308190 Eh   ::
         :: zero point energy           0.851639862249 Eh   ::
         :: G(RRHO) w/o ZPVE           -0.082023355597 Eh   ::
         :: G(RRHO) contrib.            0.769616506652 Eh   ::
         :::::::::::::::::::::::::::::::::::::::::::::::::::::

           -------------------------------------------------
          | TOTAL ENERGY             -159.416412308190 Eh   |
          | TOTAL ENTHALPY           -158.510761018646 Eh   |
          | TOTAL FREE ENERGY        -158.646795801539 Eh   |
          | GRADIENT NORM               0.000043732901 Eh/α |
          | HOMO-LUMO GAP               0.434491554087 eV   |
           -------------------------------------------------

 * finished run on 2025/07/18 at 00:12:38.492
