   * xtb version 6.7.1 (edcfbbe) compiled by 'albert@albert-system' on 2024-07-22

   ID    Z sym.   atoms
    1    9 F      1, 3
    2    5 B      2
    3    8 O      4, 27
    4    6 C      5-19, 21-26, 28-35, 37
    5    7 N      20, 36, 38
    6    1 H      39-58

          program call               : xtb data2507/gas/MBF/MBF_gas_S0_finalOpt.xtbopt.xyz --gfn 2 --spinpol --tblite --uhf 2 --ohess vtight --parallel 40 --molden --ceasefiles --namespace data2507/gas/MBF/MBF_gas_T1_preOpt
 * total energy  :  -102.1604597 Eh     change       -0.1830551E-07 Eh
 * total energy  :  -102.1634432 Eh     change       -0.2983466E-02 Eh
 * total energy  :  -102.1643243 Eh     change       -0.8811168E-03 Eh
 * total energy  :  -102.1644310 Eh     change       -0.1067359E-03 Eh
 * total energy  :  -102.1645243 Eh     change       -0.9332801E-04 Eh
 * total energy  :  -102.1645719 Eh     change       -0.4752994E-04 Eh
 * total energy  :  -102.1646374 Eh     change       -0.6553647E-04 Eh
 * total energy  :  -102.1646994 Eh     change       -0.6198069E-04 Eh
 * total energy  :  -102.1647567 Eh     change       -0.5732354E-04 Eh
 * total energy  :  -102.1648162 Eh     change       -0.5949819E-04 Eh
 * total energy  :  -102.1655527 Eh     change       -0.1192686E-05 Eh
 * total energy  :  -102.1655537 Eh     change       -0.9829776E-06 Eh
 * total energy  :  -102.1655546 Eh     change       -0.9154301E-06 Eh
 * total energy  :  -102.1655553 Eh     change       -0.7059182E-06 Eh
 * total energy  :  -102.1655558 Eh     change       -0.5423116E-06 Eh
 * total energy  :  -102.1655562 Eh     change       -0.3530564E-06 Eh
 * total energy  :  -102.1655565 Eh     change       -0.3570307E-06 Eh
 * total energy  :  -102.1655568 Eh     change       -0.2898808E-06 Eh
 * total energy  :  -102.1655569 Eh     change       -0.3161172E-07 Eh
   *** GEOMETRY OPTIMIZATION CONVERGED AFTER 63 ITERATIONS ***

 final structure:
================
58
 xtb: 6.7.1 (edcfbbe)
F            5.22141030211514        2.17537680561405       -2.34894113991222
B            5.01042954025124        1.78222048641534       -1.05321472764854
F            5.16073586536356        2.85727916794207       -0.19493114826757
O            5.96429634817942        0.72796664333089       -0.69286967450511
C            5.64886038588076       -0.28903729829604        0.07801897334686
C            6.76945162244436       -1.08983015807958        0.55335154910055
C            6.61357048192345       -2.36241241514779        1.11823738913010
C            7.71314114769489       -3.07479484109322        1.55087748576978
C            8.98916911755413       -2.54319284106600        1.43255128975876
C            9.15912029255797       -1.28756971094571        0.86695051360608
C            8.06633848704600       -0.57034667433264        0.42989424617750
C            4.32912485994957       -0.57780139421875        0.40862577770017
C            3.25105684038003        0.17409448850890       -0.10426129860957
C            1.92178752632461       -0.14214428464966        0.13392949849910
C            0.89791450769351        0.61813436745185       -0.45700093123260
C           -0.49891902042194        0.38220493094881       -0.29573796812103
C           -1.41851569284503        1.22249839749175       -0.96650554881810
C           -2.76997910790333        1.04173594347229       -0.84807349143789
C           -3.27223242043312        0.00310777627532       -0.05426986065791
N           -4.66794804176006       -0.19509692061218        0.06525696706584
C           -5.46718051486785        0.76975420672432        0.65835338216877
C           -4.93919914763794        1.94321744049932        1.19679019457363
C           -5.76816417524924        2.88509643835867        1.77548167916099
C           -7.13684977169201        2.67498887614916        1.83951579568063
C           -7.67694511791175        1.50360467452894        1.33800076831807
C           -6.85364263972658        0.55229673338903        0.75734437360409
O           -7.44186672916382       -0.59459541018950        0.30910897457219
C           -6.64335924921334       -1.53719515317479       -0.26986564826642
C           -7.25473149955261       -2.69190986465636       -0.73138609778022
C           -6.50368702367053       -3.67254089631947       -1.35560573118490
C           -5.14158946686539       -3.48752738208168       -1.53406336526978
C           -4.52252552302857       -2.34081307957654       -1.07479624980078
C           -5.25609115721166       -1.35431151615583       -0.41570810432536
C           -2.38283891197933       -0.84054811343258        0.61717303150029
C           -1.02833859096615       -0.65436314588202        0.50411926088655
N            1.26438142707171        1.67731013494620       -1.26042773211617
C            2.50787333845685        1.94613913743437       -1.43309295166067
N            3.54022516215655        1.26522996197506       -0.91080578042229
H            5.63456804941040       -2.80789135990852        1.20059414937451
H            7.57832717815983       -4.05681777536363        1.98090013205405
H            9.84437263097424       -3.10634749931870        1.77530201320602
H           10.15033101704394       -0.86999942656992        0.76932332824879
H            8.18462343308236        0.40814085782586       -0.00827555168794
H            4.09789889378556       -1.39766686923402        1.06590796662295
H            1.69790384309848       -0.98367531105689        0.76887696589045
H           -1.01608940433350        2.00814426800121       -1.58547780645262
H           -3.46091868574128        1.68099905713381       -1.37868849509883
H           -3.87421974200853        2.10661038817234        1.16334645062401
H           -5.33903849004876        3.78712393852690        2.18219745594855
H           -7.78222620139857        3.41310362847199        2.28792954128504
H           -8.73455593251058        1.30146231985163        1.38980428322548
H           -8.31897772251337       -2.79641675582321       -0.59535539563575
H           -6.98403256379186       -4.56994262289498       -1.71107248842627
H           -4.55460834311095       -4.23853421842367       -2.03884620602457
H           -3.46579108331954       -2.19573447025873       -1.23081897443859
H           -2.77640032311447       -1.63041590081240        1.24138822732016
H           -0.36778365304495       -1.31171722719746        1.04636123813117
H            2.77143037852295        2.78818284579478       -2.05819607747088

 projected vibrational frequencies (cm⁻¹)
eigval :       -0.00    -0.00    -0.00     0.00     0.00     0.00
eigval :        9.03    14.21    21.39    24.37    34.37    44.10
eigval :       47.84    54.66    66.69    70.05   104.89   109.37
eigval :      113.32   121.19   145.51   158.46   184.99   217.70
eigval :      226.82   232.01   246.16   268.18   278.57   284.29
eigval :      301.06   319.46   328.08   359.27   364.22   367.41
eigval :      375.90   379.02   398.12   407.96   427.78   431.98
eigval :      435.18   436.78   459.53   470.14   476.86   494.76
eigval :      498.23   503.54   530.16   543.15   547.99   567.18
eigval :      584.04   585.98   598.12   606.72   608.01   643.41
eigval :      649.20   655.10   661.75   665.39   668.50   673.37
eigval :      689.63   737.58   753.71   757.83   777.87   779.84
eigval :      781.18   796.84   801.21   810.81   841.11   857.22
eigval :      859.13   868.89   869.87   872.87   884.27   890.86
eigval :      895.68   899.61   903.27   905.93   910.76   914.71
eigval :      916.42   920.02   921.51   923.33   928.73   937.73
eigval :      975.97   994.24  1024.60  1042.67  1065.13  1071.12
eigval :     1081.36  1083.86  1085.22  1114.84  1120.87  1121.96
eigval :     1123.53  1148.60  1170.59  1173.05  1177.61  1180.56
eigval :     1190.42  1196.13  1210.50  1220.25  1231.31  1237.59
eigval :     1244.65  1249.91  1254.53  1274.33  1279.99  1284.51
eigval :     1305.22  1306.25  1318.55  1323.36  1330.25  1333.80
eigval :     1346.81  1349.03  1382.49  1414.11  1416.30  1428.16
eigval :     1431.62  1438.47  1440.40  1452.63  1466.22  1467.55
eigval :     1480.30  1490.95  1553.04  1553.72  1556.38  1561.50
eigval :     1571.11  1573.42  1582.02  1586.20  3072.81  3074.40
eigval :     3074.50  3077.17  3081.21  3091.59  3096.97  3098.10
eigval :     3099.57  3100.39  3105.16  3107.77  3108.14  3110.92
eigval :     3111.40  3115.93  3116.46  3118.71  3118.87  3127.38

   temp. (K)  partition function   enthalpy   heat capacity  entropy
                                   cal/mol     cal/K/mol   cal/K/mol   J/K/mol
 298.15  VIB  0.799E+14            17610.845    110.836    109.359
         ROT  0.589E+08              888.752      2.981     38.535
         INT  0.470E+22            18499.597    113.817    147.894
         TR   0.109E+29             1481.254      4.968     44.515
         TOT                       19980.8510   118.7849   192.4093   805.0406

       T/K    H(0)-H(T)+PV         H(T)/Eh          T*S/Eh         G(T)/Eh
   ------------------------------------------------------------------------
    298.15    0.318415E-01    0.450585E+00    0.914199E-01    0.359165E+00
   ------------------------------------------------------------------------

         :::::::::::::::::::::::::::::::::::::::::::::::::::::
         ::                  THERMODYNAMIC                  ::
         :::::::::::::::::::::::::::::::::::::::::::::::::::::
         :: total free energy        -101.806391753284 Eh   ::
         ::.................................................::
         :: total energy             -102.165556861700 Eh   ::
         :: zero point energy           0.418743470398 Eh   ::
         :: G(RRHO) w/o ZPVE           -0.059578361982 Eh   ::
         :: G(RRHO) contrib.            0.359165108417 Eh   ::
         :::::::::::::::::::::::::::::::::::::::::::::::::::::

           -------------------------------------------------
          | TOTAL ENERGY             -102.165556861700 Eh   |
          | TOTAL ENTHALPY           -101.714971878398 Eh   |
          | TOTAL FREE ENERGY        -101.806391753284 Eh   |
          | GRADIENT NORM               0.000064207076 Eh/α |
           -------------------------------------------------

 * finished run on 2025/07/20 at 12:34:40.155
