   * xtb version 6.7.1 (edcfbbe) compiled by 'albert@albert-system' on 2024-07-22

   ID    Z sym.   atoms
    1    9 F      1, 3
    2    5 B      2
    3    8 O      4, 27
    4    6 C      5-19, 21-26, 28-35, 37
    5    7 N      20, 36, 38
    6    1 H      39-58

          program call               : xtb data2507/gas/MBF/MBF_gas_S0_crest.xyz --gfn 2 --ohess vtight --parallel 40 --molden --ceasefiles --namespace data2507/gas/MBF/MBF_gas_S0_finalOpt
          :  Hamiltonian                  GFN2-xTB          :
 * total energy  :  -102.2329291 Eh     change       -0.2860531E-08 Eh
 * total energy  :  -102.2329300 Eh     change       -0.9632184E-06 Eh
 * total energy  :  -102.2329309 Eh     change       -0.8777365E-06 Eh
 * total energy  :  -102.2329325 Eh     change       -0.1547557E-05 Eh
 * total energy  :  -102.2329334 Eh     change       -0.9705111E-06 Eh
 * total energy  :  -102.2329345 Eh     change       -0.1080152E-05 Eh
 * total energy  :  -102.2329361 Eh     change       -0.1561550E-05 Eh
 * total energy  :  -102.2329376 Eh     change       -0.1564537E-05 Eh
 * total energy  :  -102.2329387 Eh     change       -0.1073635E-05 Eh
 * total energy  :  -102.2329395 Eh     change       -0.7913438E-06 Eh
 * total energy  :  -102.2329401 Eh     change       -0.5412003E-06 Eh
 * total energy  :  -102.2329406 Eh     change       -0.4960910E-06 Eh
 * total energy  :  -102.2329413 Eh     change       -0.7818838E-06 Eh
 * total energy  :  -102.2329424 Eh     change       -0.1059612E-05 Eh
 * total energy  :  -102.2329434 Eh     change       -0.9635945E-06 Eh
 * total energy  :  -102.2329438 Eh     change       -0.4442303E-06 Eh
 * total energy  :  -102.2329440 Eh     change       -0.2027176E-06 Eh
 * total energy  :  -102.2329441 Eh     change       -0.1127224E-06 Eh
 * total energy  :  -102.2329441 Eh     change       -0.1805475E-08 Eh
   *** GEOMETRY OPTIMIZATION CONVERGED AFTER 19 ITERATIONS ***

 final structure:
================
58
 xtb: 6.7.1 (edcfbbe)
F            5.20002683765914        2.37857171919376       -1.98465093185781
B            5.02816333361429        1.96204270388844       -0.69123797911111
F            5.17221463386260        3.01368295185939        0.18167960613326
O            5.97617087179569        0.89860309399241       -0.36607471068843
C            5.63563798052728       -0.26799024415318        0.10706121471957
C            6.76107585288313       -1.15054475087416        0.45120250452051
C            6.63572645477898       -2.53933022444630        0.48043761987203
C            7.72148594741278       -3.32826881919348        0.81022228821440
C            8.94183646312654       -2.74713802833324        1.11648390895471
C            9.07777575948483       -1.36869055600552        1.08045385669553
C            7.99813147990177       -0.57508330708666        0.74520146056461
C            4.32698548115303       -0.65101719325387        0.29173515889343
C            3.26104192964884        0.20479553565532       -0.05191543261002
C            1.90905012327050       -0.15788982037552        0.08622461069264
C            0.92672360744152        0.74306670653680       -0.28077271106843
C           -0.50352442220898        0.47922401793705       -0.17221793408305
C           -1.39647950470708        1.28908927754877       -0.88095247440971
C           -2.75421284323995        1.07098420214010       -0.81424743833791
C           -3.26159512626029        0.03667956858115       -0.02707244845387
N           -4.64511349923036       -0.19090610029241        0.04631768300194
C           -5.51049962532977        0.81034974939710        0.50403801872548
C           -5.05075048696490        2.03749952718224        0.96614425060223
C           -5.93597994985183        3.00449888170414        1.41681180982695
C           -7.29412613795684        2.75820263584394        1.42692373271931
C           -7.76639579907842        1.52437669787448        1.00700615838166
C           -6.88702901045116        0.55524912567609        0.55932278022201
O           -7.42861287109173       -0.65308442461006        0.20152093822362
C           -6.56932320226420       -1.62756465948512       -0.23587639471791
C           -7.13212400494762       -2.83617791030119       -0.60405787418129
C           -6.33589148738193       -3.85895921201101       -1.09568918654934
C           -4.97828513340325       -3.65392614442821       -1.23730285471453
C           -4.40894699180288       -2.44543079180443       -0.86680256149172
C           -5.18641039818762       -1.42407324696760       -0.33435082555923
C           -2.37721485422239       -0.76682601006768        0.69316396263026
C           -1.01849501457930       -0.54912614657724        0.62105733384852
N            1.26943206401087        1.95176770286339       -0.79443830623936
C            2.52602097143785        2.23733174797218       -0.90161083270545
N            3.53795472668326        1.43708840606091       -0.54898022191246
H            5.69912158559380       -3.00644561178273        0.21816736856346
H            7.61775894231863       -4.40317523917282        0.82438939528102
H            9.78570500710999       -3.36874266691149        1.37632853435233
H           10.02858970351208       -0.91272839136434        1.31220760848739
H            8.08962002976942        0.49936527533342        0.71146076471125
H            4.09029947967295       -1.61087401803969        0.71456047104805
H            1.67603395570639       -1.13969881248917        0.46277179171204
H           -0.99477649179078        2.08131611276714       -1.49201575600849
H           -3.43502405593886        1.68971018770559       -1.37960309691016
H           -3.99146380903279        2.23902763451088        0.98522127106812
H           -5.54948676272340        3.95022538250603        1.76370450859578
H           -7.98728044911379        3.50932994712421        1.77077722050428
H           -8.81828777506382        1.28838717137249        1.02480165921552
H           -8.19933744389102       -2.95228143913240       -0.50391422132970
H           -6.78285703554727       -4.79914933871614       -1.37711806979262
H           -4.34804873044303       -4.43037172805111       -1.64267121729424
H           -3.35013090126887       -2.29338954739696       -1.00511205058646
H           -2.76955221773727       -1.55228586352430        1.32216232232827
H           -0.35919889887540       -1.16505827548341        1.21275743757568
H            2.80302940870916        3.20052631680291       -1.30647599897157

          :  Hamiltonian                  GFN2-xTB          :
         :: gradient norm              0.000118051426 Eh/a0 ::
         :: HOMO-LUMO gap              1.091137891045 eV    ::
         :: SCC energy              -103.810248024899 Eh    ::
         :: -> dispersion             -0.074153698464 Eh    ::
         :: repulsion energy           1.577303908073 Eh    ::

    * Orbital Energies and Occupations

         #    Occupation            Energy/Eh            Energy/eV
      -------------------------------------------------------------
         1        2.0000           -0.7683570             -20.9081
       ...           ...                  ...                  ...
        80        2.0000           -0.4370205             -11.8919
        81        2.0000           -0.4358526             -11.8602
        82        2.0000           -0.4292913             -11.6816
        83        2.0000           -0.4278273             -11.6418
        84        2.0000           -0.4268978             -11.6165
        85        2.0000           -0.4234330             -11.5222
        86        2.0000           -0.4223195             -11.4919
        87        2.0000           -0.4216165             -11.4728
        88        2.0000           -0.4191339             -11.4052
        89        2.0000           -0.4001210             -10.8878
        90        2.0000           -0.3972295             -10.8092
        91        2.0000           -0.3950237             -10.7491
        92        2.0000           -0.3511481              -9.5552 (HOMO)
        93                         -0.3110496              -8.4641 (LUMO)
        94                         -0.2877819              -7.8309
        95                         -0.2526833              -6.8759
        96                         -0.2483382              -6.7576
        97                         -0.2449742              -6.6661
        98                         -0.2389955              -6.5034
        99                         -0.2361141              -6.4250
       100                         -0.2349545              -6.3934
       101                         -0.2200614              -5.9882
       102                         -0.2025172              -5.5108
       103                         -0.1865774              -5.0770
       ...                                ...                  ...
       172                          0.6696987              18.2234
      -------------------------------------------------------------
                  HL-Gap            0.0400985 Eh            1.0911 eV

     #   Z          covCN         q      C6AA      α(0)
     1   9 F        0.722    -0.366    13.114     4.276
     2   5 B        3.067     0.596    13.539     6.137
     3   9 F        0.721    -0.370    13.155     4.283
     4   8 O        1.638    -0.309    19.175     5.911
     5   6 C        2.848     0.185    24.051     8.038
     6   6 C        2.975     0.003    27.963     8.674
     7   6 C        2.922    -0.029    28.735     8.791
     8   6 C        2.918    -0.026    28.658     8.779
     9   6 C        2.920    -0.023    28.568     8.765
    10   6 C        2.918    -0.025    28.617     8.772
    11   6 C        2.926    -0.018    28.470     8.750
    12   6 C        2.906    -0.117    30.962     9.124
    13   6 C        2.942     0.107    25.633     8.304
    14   6 C        2.915    -0.063    29.560     8.915
    15   6 C        2.966     0.110    25.572     8.295
    16   6 C        2.978     0.003    27.963     8.674
    17   6 C        2.925    -0.024    28.598     8.770
    18   6 C        2.919    -0.039    28.980     8.828
    19   6 C        2.921     0.071    26.410     8.427
    20   7 N        2.751    -0.065    22.501     7.045
    21   6 C        2.921     0.041    27.073     8.533
    22   6 C        2.924    -0.059    29.466     8.902
    23   6 C        2.919    -0.038    28.939     8.822
    24   6 C        2.919    -0.038    28.952     8.824
    25   6 C        2.920    -0.055    29.372     8.887
    26   6 C        2.885     0.126    25.242     8.237
    27   8 O        1.709    -0.251    18.164     5.754
    28   6 C        2.885     0.126    25.235     8.236
    29   6 C        2.920    -0.055    29.377     8.888
    30   6 C        2.919    -0.039    28.962     8.825
    31   6 C        2.919    -0.038    28.954     8.824
    32   6 C        2.924    -0.059    29.478     8.904
    33   6 C        2.921     0.042    27.070     8.532
    34   6 C        2.920    -0.041    29.016     8.833
    35   6 C        2.921    -0.030    28.761     8.795
    36   7 N        1.843    -0.234    26.985     7.699
    37   6 C        2.864     0.148    24.778     8.159
    38   7 N        2.670    -0.121    23.634     7.220
    39   1 H        0.926     0.040     2.447     2.446
    40   1 H        0.926     0.041     2.431     2.438
    41   1 H        0.926     0.043     2.414     2.430
    42   1 H        0.926     0.045     2.379     2.412
    43   1 H        0.926     0.065     2.140     2.288
    44   1 H        0.926     0.054     2.266     2.354
    45   1 H        0.926     0.054     2.268     2.355
    46   1 H        0.926     0.071     2.079     2.255
    47   1 H        0.926     0.051     2.313     2.378
    48   1 H        0.926     0.038     2.472     2.459
    49   1 H        0.926     0.040     2.454     2.450
    50   1 H        0.926     0.041     2.432     2.439
    51   1 H        0.926     0.053     2.284     2.363
    52   1 H        0.926     0.053     2.284     2.363
    53   1 H        0.926     0.041     2.441     2.443
    54   1 H        0.926     0.038     2.482     2.463
    55   1 H        0.926     0.035     2.510     2.477
    56   1 H        0.926     0.047     2.355     2.400
    57   1 H        0.926     0.042     2.420     2.433
    58   1 H        0.926     0.086     1.917     2.165

molecular dipole:
                 x           y           z       tot (Debye)
 q only:       -1.447      -2.247       0.809
   full:       -1.214      -2.527       0.920       7.499

 projected vibrational frequencies (cm⁻¹)
eigval :       -0.00    -0.00     0.00     0.00     0.00     0.00
eigval :        8.41    15.10    21.44    24.18    34.92    42.98
eigval :       50.41    56.82    62.24    69.85   103.50   111.15
eigval :      113.68   127.90   154.87   179.82   183.89   213.99
eigval :      230.26   232.81   251.74   267.15   273.57   284.71
eigval :      292.20   316.93   344.61   358.32   367.32   373.74
eigval :      379.07   396.68   403.42   420.98   431.09   435.45
eigval :      445.22   456.57   466.66   479.46   492.40   508.01
eigval :      509.61   523.65   546.83   562.47   572.15   586.19
eigval :      587.43   605.66   607.84   618.20   645.02   650.46
eigval :      661.62   662.61   669.90   672.02   694.61   696.53
eigval :      726.92   762.71   770.25   779.32   779.70   780.38
eigval :      802.00   811.67   821.49   832.69   856.41   863.28
eigval :      867.89   873.49   875.26   880.84   898.58   900.26
eigval :      905.12   905.78   910.06   914.30   916.18   917.21
eigval :      927.19   929.38   933.82   937.07   943.85   967.48
eigval :      989.66  1014.19  1055.56  1061.48  1082.48  1084.14
eigval :     1090.98  1092.05  1109.28  1109.64  1122.11  1125.36
eigval :     1132.07  1171.15  1175.39  1179.81  1181.93  1185.62
eigval :     1193.47  1198.52  1203.40  1223.88  1243.11  1246.90
eigval :     1252.72  1262.21  1264.06  1270.52  1278.19  1310.52
eigval :     1314.59  1318.29  1324.65  1336.47  1347.47  1352.52
eigval :     1359.07  1394.61  1405.24  1422.70  1426.34  1442.38
eigval :     1448.36  1465.79  1483.14  1484.81  1485.65  1503.40
eigval :     1549.06  1557.51  1568.23  1569.35  1579.83  1580.97
eigval :     1590.15  1592.04  1597.25  1602.00  3079.64  3085.08
eigval :     3085.59  3085.96  3090.43  3091.46  3092.36  3093.62
eigval :     3098.27  3098.51  3100.56  3101.47  3107.21  3108.30
eigval :     3108.93  3114.47  3114.98  3115.04  3115.86  3138.83

   temp. (K)  partition function   enthalpy   heat capacity  entropy
                                   cal/mol     cal/K/mol   cal/K/mol   J/K/mol
 298.15  VIB  0.548E+14            17310.577    108.937    107.650
         ROT  0.589E+08              888.752      2.981     38.535
         INT  0.323E+22            18199.329    111.918    146.186
         TR   0.109E+29             1481.254      4.968     44.515
         TOT                       19680.5829   116.8861   190.7008   797.8920

       T/K    H(0)-H(T)+PV         H(T)/Eh          T*S/Eh         G(T)/Eh
   ------------------------------------------------------------------------
    298.15    0.313630E-01    0.454158E+00    0.906081E-01    0.363550E+00
   ------------------------------------------------------------------------

         :::::::::::::::::::::::::::::::::::::::::::::::::::::
         ::                  THERMODYNAMIC                  ::
         :::::::::::::::::::::::::::::::::::::::::::::::::::::
         :: total free energy        -101.869393979631 Eh   ::
         ::.................................................::
         :: total energy             -102.232944116827 Eh   ::
         :: zero point energy           0.422795223929 Eh   ::
         :: G(RRHO) w/o ZPVE           -0.059245086733 Eh   ::
         :: G(RRHO) contrib.            0.363550137196 Eh   ::
         :::::::::::::::::::::::::::::::::::::::::::::::::::::

           -------------------------------------------------
          | TOTAL ENERGY             -102.232944116827 Eh   |
          | TOTAL ENTHALPY           -101.778785887671 Eh   |
          | TOTAL FREE ENERGY        -101.869393979631 Eh   |
          | GRADIENT NORM               0.000118077343 Eh/α |
          | HOMO-LUMO GAP               1.091134933200 eV   |
           -------------------------------------------------

 * finished run on 2025/07/20 at 12:34:31.099
