   * xtb version 6.7.1 (edcfbbe) compiled by 'albert@albert-system' on 2024-07-22

   ID    Z sym.   atoms
    1    9 F      1, 3
    2    5 B      2
    3    8 O      4, 27
    4    6 C      5-19, 21-26, 28-35, 37
    5    7 N      20, 36, 38
    6    1 H      39-58

          program call               : xtb data2507/gas/MBF/MBF.xyz --gfn 2 --ohess vtight --parallel 40 --molden --ceasefiles --namespace data2507/gas/MBF/MBF_gas_S0_preOpt
          :  Hamiltonian                  GFN2-xTB          :
 * total energy  :  -102.1929414 Eh     change       -0.2714486E-08 Eh
 * total energy  :  -102.2198955 Eh     change       -0.2695418E-01 Eh
 * total energy  :  -102.2299034 Eh     change       -0.1000782E-01 Eh
 * total energy  :  -102.2312170 Eh     change       -0.1313671E-02 Eh
 * total energy  :  -102.2317195 Eh     change       -0.5025145E-03 Eh
 * total energy  :  -102.2319124 Eh     change       -0.1928504E-03 Eh
 * total energy  :  -102.2320789 Eh     change       -0.1664657E-03 Eh
 * total energy  :  -102.2321814 Eh     change       -0.1025109E-03 Eh
 * total energy  :  -102.2322517 Eh     change       -0.7033478E-04 Eh
 * total energy  :  -102.2322924 Eh     change       -0.4068089E-04 Eh
 * total energy  :  -102.2329056 Eh     change       -0.8647803E-06 Eh
 * total energy  :  -102.2329064 Eh     change       -0.8150437E-06 Eh
 * total energy  :  -102.2329071 Eh     change       -0.7563648E-06 Eh
 * total energy  :  -102.2329077 Eh     change       -0.5272420E-06 Eh
 * total energy  :  -102.2329080 Eh     change       -0.3473342E-06 Eh
 * total energy  :  -102.2329083 Eh     change       -0.2460254E-06 Eh
 * total energy  :  -102.2329085 Eh     change       -0.2406262E-06 Eh
 * total energy  :  -102.2329088 Eh     change       -0.2604703E-06 Eh
 * total energy  :  -102.2329088 Eh     change       -0.9908959E-08 Eh
   *** GEOMETRY OPTIMIZATION CONVERGED AFTER 68 ITERATIONS ***

 final structure:
================
58
 xtb: 6.7.1 (edcfbbe)
F            5.22268077593156        2.49491504407970       -2.49638345218799
B            5.08717360338706        2.39007105241575       -1.13285124315834
F            5.18428932274424        3.62118548841908       -0.54021961022346
O            6.09433635231852        1.48039477907949       -0.59101967799281
C            5.82522030337161        0.32093615256377       -0.05828254516566
C            7.00158385213665       -0.46417860284812        0.34637986038903
C            6.93973028424454       -1.43520567500118        1.34565036196147
C            8.07151914796359       -2.14852567048199        1.69245436788110
C            9.27538126037472       -1.90718149976264        1.04959877635340
C            9.34801515009550       -0.93742652944777        0.06258807204334
C            8.22194443090622       -0.21644992226309       -0.28382726762247
C            4.54350653499506       -0.15299595785373        0.10268252100845
C            3.42752477301312        0.61624093422314       -0.28415834699274
C            2.09995263958457        0.18672183236630       -0.10665551267477
C            1.06292017838136        1.01613923193150       -0.49201105240271
C           -0.34970548229718        0.68482940991819       -0.34333289484926
C           -1.30073099944452        1.47014826319881       -1.00323566829830
C           -2.64535420194925        1.19701219113667       -0.89091381527140
C           -3.08173566166518        0.12720864420092       -0.10877468741780
N           -4.45166657341942       -0.15456410491269        0.01473815394187
C           -5.33290072480984        0.79995012102896        0.53720529700135
C           -4.90028413030901        2.03335869751601        1.00876456794393
C           -5.80030079071215        2.95242149107475        1.52557487411959
C           -7.14561535791889        2.65090811370622        1.59311106356240
C           -7.58855348817814        1.40961495964757        1.16335727329907
C           -6.69420053893567        0.48806032650017        0.64970515213474
O           -7.20437057893206       -0.73206312829022        0.28583890878864
C           -6.32973857075634       -1.65925087722922       -0.21897769630277
C           -6.86171680489477       -2.87910799181042       -0.59568446632617
C           -6.05006247434122       -3.85537926710718       -1.15247772379453
C           -4.70948276260782       -3.59246328722540       -1.34983591611605
C           -4.17082234631728       -2.37248638447316       -0.97115551834715
C           -4.96195610695897       -1.39794382417259       -0.37503268993971
C           -2.13955949646522       -0.65729143435406        0.55690685798145
C           -0.79436500528639       -0.38200226556194        0.44206960271992
N            1.33178388796848        2.22141867099109       -1.05623650062519
C            2.56871905391778        2.56535330610913       -1.20841727803699
N            3.62910416083800        1.83392236960992       -0.84861503037360
H            6.01558880982605       -1.61475663860721        1.87286733048723
H            8.01673985359449       -2.89410150871130        2.47190872931908
H           10.15556765041919       -2.46978357354590        1.32302240155687
H           10.28566823587266       -0.74202731388327       -0.43569697155482
H            8.26390779256982        0.54292535159354       -1.04904974604063
H            4.36721802948428       -1.12895671772306        0.51810033219781
H            1.93001755874314       -0.78685600875084        0.32116778054037
H           -0.95381457140307        2.28977371473164       -1.61161538154423
H           -3.37085249523631        1.80010513134841       -1.41617804175699
H           -3.85007507554937        2.27725282657192        0.98316116675681
H           -5.43526755756301        3.90445791832368        1.87842114202738
H           -7.85049341422220        3.36465409458125        1.98885412762109
H           -8.62830353358134        1.13086602412819        1.22425878603871
H           -7.91769547272228       -3.04093684691225       -0.45016673706127
H           -6.47288647192270       -4.80480093234825       -1.44014649070506
H           -4.06914335009342       -4.33180266024423       -1.80558209134661
H           -3.12626676311486       -2.17425226055588       -1.15283272629831
H           -2.47633123150256       -1.47375144996343        1.17862297514903
H           -0.09134222181037       -0.98742115247576        0.99252614846459
H            2.78550061223157        3.52311934551220       -1.66016885086551

          :  Hamiltonian                  GFN2-xTB          :
         :: gradient norm              0.000053715284 Eh/a0 ::
         :: HOMO-LUMO gap              1.086891815258 eV    ::
         :: SCC energy              -103.810164637393 Eh    ::
         :: -> dispersion             -0.074146016308 Eh    ::
         :: repulsion energy           1.577255873417 Eh    ::

    * Orbital Energies and Occupations

         #    Occupation            Energy/Eh            Energy/eV
      -------------------------------------------------------------
         1        2.0000           -0.7682434             -20.9050
       ...           ...                  ...                  ...
        80        2.0000           -0.4369780             -11.8908
        81        2.0000           -0.4358493             -11.8601
        82        2.0000           -0.4292142             -11.6795
        83        2.0000           -0.4278873             -11.6434
        84        2.0000           -0.4267984             -11.6138
        85        2.0000           -0.4234374             -11.5223
        86        2.0000           -0.4223529             -11.4928
        87        2.0000           -0.4215784             -11.4717
        88        2.0000           -0.4191843             -11.4066
        89        2.0000           -0.4000084             -10.8848
        90        2.0000           -0.3972308             -10.8092
        91        2.0000           -0.3949611             -10.7474
        92        2.0000           -0.3511843              -9.5562 (HOMO)
        93                         -0.3112417              -8.4693 (LUMO)
        94                         -0.2877746              -7.8307
        95                         -0.2525733              -6.8729
        96                         -0.2483118              -6.7569
        97                         -0.2450029              -6.6669
        98                         -0.2389527              -6.5022
        99                         -0.2361396              -6.4257
       100                         -0.2347855              -6.3888
       101                         -0.2201171              -5.9897
       102                         -0.2025757              -5.5124
       103                         -0.1864150              -5.0726
       ...                                ...                  ...
       172                          0.6700458              18.2329
      -------------------------------------------------------------
                  HL-Gap            0.0399426 Eh            1.0869 eV

     #   Z          covCN         q      C6AA      α(0)
     1   9 F        0.721    -0.370    13.156     4.283
     2   5 B        3.067     0.596    13.539     6.137
     3   9 F        0.722    -0.366    13.114     4.276
     4   8 O        1.638    -0.309    19.174     5.911
     5   6 C        2.848     0.185    24.051     8.038
     6   6 C        2.975     0.003    27.963     8.674
     7   6 C        2.922    -0.029    28.735     8.791
     8   6 C        2.918    -0.026    28.658     8.779
     9   6 C        2.920    -0.023    28.568     8.765
    10   6 C        2.918    -0.025    28.617     8.772
    11   6 C        2.926    -0.018    28.470     8.750
    12   6 C        2.906    -0.117    30.963     9.124
    13   6 C        2.942     0.107    25.634     8.304
    14   6 C        2.915    -0.063    29.557     8.915
    15   6 C        2.965     0.110    25.576     8.295
    16   6 C        2.978     0.003    27.964     8.674
    17   6 C        2.925    -0.024    28.602     8.770
    18   6 C        2.919    -0.039    28.978     8.828
    19   6 C        2.921     0.071    26.407     8.427
    20   7 N        2.751    -0.065    22.501     7.045
    21   6 C        2.921     0.041    27.072     8.532
    22   6 C        2.924    -0.059    29.468     8.902
    23   6 C        2.919    -0.038    28.939     8.822
    24   6 C        2.919    -0.038    28.953     8.824
    25   6 C        2.920    -0.055    29.372     8.887
    26   6 C        2.885     0.126    25.241     8.237
    27   8 O        1.709    -0.251    18.164     5.754
    28   6 C        2.885     0.126    25.235     8.236
    29   6 C        2.920    -0.055    29.377     8.888
    30   6 C        2.919    -0.039    28.961     8.825
    31   6 C        2.919    -0.038    28.953     8.824
    32   6 C        2.924    -0.059    29.475     8.903
    33   6 C        2.922     0.042    27.070     8.532
    34   6 C        2.920    -0.041    29.017     8.833
    35   6 C        2.921    -0.030    28.759     8.794
    36   7 N        1.843    -0.235    26.991     7.699
    37   6 C        2.864     0.148    24.776     8.159
    38   7 N        2.670    -0.121    23.637     7.221
    39   1 H        0.926     0.040     2.447     2.446
    40   1 H        0.926     0.041     2.431     2.438
    41   1 H        0.926     0.043     2.414     2.430
    42   1 H        0.926     0.045     2.379     2.412
    43   1 H        0.926     0.065     2.141     2.288
    44   1 H        0.926     0.054     2.267     2.354
    45   1 H        0.926     0.054     2.269     2.356
    46   1 H        0.926     0.072     2.067     2.248
    47   1 H        0.926     0.051     2.312     2.378
    48   1 H        0.926     0.038     2.475     2.460
    49   1 H        0.926     0.039     2.456     2.451
    50   1 H        0.926     0.041     2.433     2.439
    51   1 H        0.926     0.053     2.284     2.363
    52   1 H        0.926     0.053     2.284     2.363
    53   1 H        0.926     0.041     2.440     2.443
    54   1 H        0.926     0.038     2.479     2.462
    55   1 H        0.926     0.036     2.508     2.476
    56   1 H        0.926     0.047     2.357     2.401
    57   1 H        0.926     0.042     2.423     2.434
    58   1 H        0.926     0.086     1.919     2.166

molecular dipole:
                 x           y           z       tot (Debye)
 q only:       -1.324      -2.219       1.074
   full:       -1.074      -2.472       1.220       7.519

 projected vibrational frequencies (cm⁻¹)
eigval :       -0.00    -0.00    -0.00     0.00     0.00     0.00
eigval :        7.00    15.05    21.74    23.22    36.19    40.12
eigval :       49.93    56.50    64.07    67.85   103.58   111.90
eigval :      113.41   127.57   152.64   179.15   183.28   214.58
eigval :      231.64   232.83   251.61   264.16   274.69   285.14
eigval :      292.89   318.94   338.29   362.76   367.29   373.25
eigval :      377.48   392.96   406.07   423.56   430.85   436.03
eigval :      445.41   452.43   467.06   480.31   492.51   507.02
eigval :      509.55   523.54   546.42   562.52   572.29   585.97
eigval :      587.38   605.32   609.33   617.41   644.87   650.49
eigval :      661.58   662.59   669.39   672.60   695.11   696.00
eigval :      726.39   762.71   770.15   779.23   779.83   780.24
eigval :      802.03   811.75   821.29   830.00   856.40   863.07
eigval :      867.77   873.47   874.87   880.84   898.58   900.21
eigval :      904.88   905.80   910.07   914.29   916.16   917.24
eigval :      926.40   929.36   933.76   937.42   943.78   967.69
eigval :      989.69  1014.12  1055.55  1060.93  1082.34  1083.61
eigval :     1090.92  1091.99  1109.29  1109.84  1122.12  1125.27
eigval :     1131.97  1171.20  1175.41  1179.85  1181.99  1186.30
eigval :     1194.05  1198.47  1203.33  1223.91  1243.10  1247.31
eigval :     1252.09  1262.20  1263.97  1271.18  1278.19  1310.55
eigval :     1314.78  1318.47  1324.62  1336.59  1348.19  1352.57
eigval :     1359.35  1394.01  1405.26  1422.70  1426.44  1442.36
eigval :     1448.42  1465.85  1482.95  1484.81  1485.80  1503.36
eigval :     1548.92  1557.98  1568.22  1569.17  1579.79  1580.95
eigval :     1590.18  1592.06  1597.53  1601.99  3079.48  3085.06
eigval :     3085.51  3086.24  3090.55  3091.44  3092.27  3093.58
eigval :     3098.36  3099.39  3100.52  3101.41  3107.12  3108.07
eigval :     3108.85  3114.45  3114.96  3116.23  3116.87  3138.69

   temp. (K)  partition function   enthalpy   heat capacity  entropy
                                   cal/mol     cal/K/mol   cal/K/mol   J/K/mol
 298.15  VIB  0.714E+14            17322.464    108.902    107.906
         ROT  0.590E+08              888.752      2.981     38.538
         INT  0.421E+22            18211.217    111.883    146.444
         TR   0.109E+29             1481.254      4.968     44.515
         TOT                       19692.4708   116.8515   190.9585   798.9704

       T/K    H(0)-H(T)+PV         H(T)/Eh          T*S/Eh         G(T)/Eh
   ------------------------------------------------------------------------
    298.15    0.313819E-01    0.454151E+00    0.907306E-01    0.363420E+00
   ------------------------------------------------------------------------

         :::::::::::::::::::::::::::::::::::::::::::::::::::::
         ::                  THERMODYNAMIC                  ::
         :::::::::::::::::::::::::::::::::::::::::::::::::::::
         :: total free energy        -101.869488474275 Eh   ::
         ::.................................................::
         :: total energy             -102.232908763981 Eh   ::
         :: zero point energy           0.422768892976 Eh   ::
         :: G(RRHO) w/o ZPVE           -0.059348603270 Eh   ::
         :: G(RRHO) contrib.            0.363420289707 Eh   ::
         :::::::::::::::::::::::::::::::::::::::::::::::::::::

           -------------------------------------------------
          | TOTAL ENERGY             -102.232908763981 Eh   |
          | TOTAL ENTHALPY           -101.778757921278 Eh   |
          | TOTAL FREE ENERGY        -101.869488474275 Eh   |
          | GRADIENT NORM               0.000053736130 Eh/α |
          | HOMO-LUMO GAP               1.086894268226 eV   |
           -------------------------------------------------

 * finished run on 2025/07/20 at 12:32:12.175
