   * xtb version 6.7.1 (edcfbbe) compiled by 'albert@albert-system' on 2024-07-22

   ID    Z sym.   atoms
    1    9 F      1, 3
    2    5 B      2
    3    8 O      4, 27
    4    6 C      5-19, 21-26, 28-35, 37
    5    7 N      20, 36, 38
    6    1 H      39-58

          program call               : xtb data2507/gas/MBF/MBF_gas_T1_crest.xyz --gfn 2 --spinpol --tblite --uhf 2 --ohess vtight --parallel 40 --molden --ceasefiles --namespace data2507/gas/MBF/MBF_gas_T1_finalOpt
 * total energy  :  -102.1657323 Eh     change       -0.5993712E-09 Eh
 * total energy  :  -102.1657379 Eh     change       -0.5582899E-05 Eh
 * total energy  :  -102.1657417 Eh     change       -0.3832321E-05 Eh
 * total energy  :  -102.1657442 Eh     change       -0.2454761E-05 Eh
 * total energy  :  -102.1657511 Eh     change       -0.6907580E-05 Eh
 * total energy  :  -102.1657574 Eh     change       -0.6312836E-05 Eh
 * total energy  :  -102.1657629 Eh     change       -0.5525334E-05 Eh
 * total energy  :  -102.1657672 Eh     change       -0.4326906E-05 Eh
 * total energy  :  -102.1657699 Eh     change       -0.2611003E-05 Eh
 * total energy  :  -102.1657718 Eh     change       -0.1912921E-05 Eh
 * total energy  :  -102.1657824 Eh     change       -0.2043168E-05 Eh
 * total energy  :  -102.1657838 Eh     change       -0.1379933E-05 Eh
 * total energy  :  -102.1657849 Eh     change       -0.1148316E-05 Eh
 * total energy  :  -102.1657861 Eh     change       -0.1103634E-05 Eh
 * total energy  :  -102.1657872 Eh     change       -0.1194453E-05 Eh
 * total energy  :  -102.1657883 Eh     change       -0.1066855E-05 Eh
 * total energy  :  -102.1657893 Eh     change       -0.1001648E-05 Eh
 * total energy  :  -102.1657901 Eh     change       -0.8205947E-06 Eh
 * total energy  :  -102.1657902 Eh     change       -0.6007826E-07 Eh
   *** GEOMETRY OPTIMIZATION CONVERGED AFTER 22 ITERATIONS ***

 final structure:
================
58
 xtb: 6.7.1 (edcfbbe)
F            5.26028447474437       -2.82172422224909       -1.41636189895573
B            5.02983020027441       -1.47271454913185       -1.38480684395097
F            5.16999296777202       -0.92831279570855       -2.65011047403092
O            5.96657276301644       -0.83029125473865       -0.45861065278752
C            5.64627063256365        0.24627195025170        0.22713485633454
C            6.75833305968025        0.94087494280885        0.86206219615171
C            6.58650541729367        1.92585852831397        1.84355515719178
C            7.68031357809975        2.55131482100569        2.40583646849530
C            8.96667307785723        2.21280025705520        2.01156623721180
C            9.15219515484967        1.23292029221229        1.04691571130673
C            8.06511508071651        0.60250926679402        0.48088178407444
C            4.32559512856150        0.66052432749607        0.36102075023599
C            3.25372226039782       -0.08680623471778       -0.17183702607592
C            1.92096142162989        0.24127632310917        0.02687304745893
C            0.90622793107320       -0.57949244729924       -0.49468199424334
C           -0.49276484879625       -0.36207185187951       -0.32844498624573
C           -1.39977436899618       -1.33075361679280       -0.81866380829979
C           -2.75243324259110       -1.17942895577268       -0.67648287785151
C           -3.26849551757491       -0.03982231173678       -0.04707783718654
N           -4.66564741144277        0.12262765510614        0.10371137604777
C           -5.32875608992392        1.15110687082283       -0.54704680072449
C           -4.67241298572814        2.02653151501803       -1.41195004415638
C           -5.36490385277633        3.04455254192923       -2.03912292157135
C           -6.72481634275624        3.20701260126569       -1.82555684644635
C           -7.40000265778276        2.33084626127957       -0.99372417396527
C           -6.71479697362287        1.30513470789184       -0.36256313598070
O           -7.44059120471763        0.45662939131743        0.42186233858946
C           -6.77891000321789       -0.56435347813680        1.04003127532586
C           -7.52788437024301       -1.42015497613409        1.83161652854909
C           -6.91046390808647       -2.45758413065247        2.50839418147248
C           -5.53870970303854       -2.62746676374944        2.40516402554395
C           -4.78345392442280       -1.78012403988614        1.61714210399030
C           -5.39043701134565       -0.74581424063973        0.90502279796319
C           -2.39228740267432        0.93903973010265        0.42968353922801
C           -1.03579923319407        0.78073779595584        0.29829557072150
N            1.28604701374317       -1.71539560609686       -1.17804958364434
C            2.53179941704916       -1.95061047957510       -1.38197730065192
N            3.55496877631802       -1.21171291512872       -0.92701411376750
H            5.59845421288725        2.19290691706885        2.18402644883499
H            7.53246069947848        3.30758442269570        3.16324679060833
H            9.81733718888808        2.70724513982851        2.45642035863156
H           10.15115272827494        0.96348658744237        0.73717827800354
H            8.19608735147824       -0.15769791205933       -0.27299390553741
H            4.08693331523714        1.56260275783511        0.89662716064929
H            1.68590457875826        1.10026106636038        0.63403384558746
H           -0.98611037675924       -2.19275120655985       -1.31715590226085
H           -3.43524627291132       -1.92204491060033       -1.06355471200317
H           -3.61793746389828        1.89544674028176       -1.59385104126655
H           -4.83737878528581        3.71151028765848       -2.70260433476568
H           -7.26254967661849        4.00435603748701       -2.31290619319405
H           -8.46067010293951        2.41858916967929       -0.82240735211945
H           -8.58983769964852       -1.25029832091829        1.90561578397082
H           -7.49827923897622       -3.12170541310768        3.12145761316502
H           -5.04918497446314       -3.42270207593287        2.94484744537483
H           -3.71515891259740       -1.90903037033375        1.55246673535838
H           -2.79662283230827        1.81335181856316        0.92006076412330
H           -0.38366952860913        1.54731986076743        0.68522754180216
H            2.80472647220891       -2.82598223586401       -1.95519489722291

 projected vibrational frequencies (cm⁻¹)
eigval :       -0.00    -0.00    -0.00    -0.00     0.00     0.00
eigval :        9.83    14.65    22.34    24.35    38.38    44.50
eigval :       48.07    55.89    68.59    70.14   105.39   108.13
eigval :      113.68   121.38   145.25   159.85   184.54   217.37
eigval :      227.54   232.81   246.19   268.97   278.97   284.54
eigval :      302.55   317.87   333.06   363.82   365.89   372.20
eigval :      378.64   378.86   398.48   415.68   428.24   431.52
eigval :      434.41   449.16   461.30   473.06   476.92   498.44
eigval :      501.88   521.39   530.36   546.17   547.69   567.60
eigval :      584.19   586.28   599.24   607.07   608.74   642.03
eigval :      654.10   655.30   664.17   666.59   668.52   673.25
eigval :      690.20   740.04   756.20   758.02   778.02   779.90
eigval :      790.66   797.54   801.26   809.96   841.33   857.11
eigval :      858.66   869.16   869.51   873.21   884.49   891.88
eigval :      895.32   899.59   903.22   905.76   911.48   914.57
eigval :      916.16   920.10   921.08   923.28   928.70   935.13
eigval :      976.13   994.11  1024.98  1044.81  1068.28  1073.27
eigval :     1081.49  1083.83  1085.20  1114.83  1120.82  1122.20
eigval :     1123.61  1148.31  1170.74  1173.19  1177.76  1180.68
eigval :     1190.78  1196.03  1210.42  1221.14  1231.27  1237.76
eigval :     1244.91  1250.79  1254.43  1275.57  1280.13  1284.68
eigval :     1305.33  1306.96  1318.48  1323.50  1330.20  1333.25
eigval :     1346.17  1347.77  1380.40  1414.20  1416.64  1428.30
eigval :     1431.85  1439.16  1440.73  1453.24  1467.00  1468.17
eigval :     1480.73  1491.04  1553.46  1554.18  1556.94  1561.96
eigval :     1570.67  1573.60  1581.96  1585.84  3073.21  3073.97
eigval :     3074.42  3077.66  3081.12  3091.85  3097.36  3097.82
eigval :     3099.82  3100.04  3104.44  3107.82  3108.03  3109.71
eigval :     3111.13  3115.85  3116.42  3118.61  3118.81  3127.82

   temp. (K)  partition function   enthalpy   heat capacity  entropy
                                   cal/mol     cal/K/mol   cal/K/mol   J/K/mol
 298.15  VIB  0.551E+14            17549.140    110.756    108.878
         ROT  0.589E+08              888.752      2.981     38.536
         INT  0.325E+22            18437.893    113.737    147.414
         TR   0.109E+29             1481.254      4.968     44.515
         TOT                       19919.1467   118.7048   191.9286   803.0292

       T/K    H(0)-H(T)+PV         H(T)/Eh          T*S/Eh         G(T)/Eh
   ------------------------------------------------------------------------
    298.15    0.317432E-01    0.450761E+00    0.911915E-01    0.359569E+00
   ------------------------------------------------------------------------

         :::::::::::::::::::::::::::::::::::::::::::::::::::::
         ::                  THERMODYNAMIC                  ::
         :::::::::::::::::::::::::::::::::::::::::::::::::::::
         :: total free energy        -101.806221138521 Eh   ::
         ::.................................................::
         :: total energy             -102.165790221892 Eh   ::
         :: zero point energy           0.419017371485 Eh   ::
         :: G(RRHO) w/o ZPVE           -0.059448288114 Eh   ::
         :: G(RRHO) contrib.            0.359569083371 Eh   ::
         :::::::::::::::::::::::::::::::::::::::::::::::::::::

           -------------------------------------------------
          | TOTAL ENERGY             -102.165790221892 Eh   |
          | TOTAL ENTHALPY           -101.715029669663 Eh   |
          | TOTAL FREE ENERGY        -101.806221138521 Eh   |
          | GRADIENT NORM               0.000101164648 Eh/α |
           -------------------------------------------------

 * finished run on 2025/07/20 at 12:37:58.805
