   * xtb version 6.7.1 (edcfbbe) compiled by 'albert@albert-system' on 2024-07-22

   ID    Z sym.   atoms
    1    8 O      1, 20
    2    6 C      2-19, 21-30
    3    1 H      31-52

          program call               : xtb data2507/toluene/p-DHMPA/p-DHMPA.xyz --gfn 2 --gbsa toluene --ohess vtight --parallel 40 --molden --ceasefiles --namespace data2507/toluene/p-DHMPA/p-DHMPA_toluene_S0_preOpt
      * Solvation model:               GBSA
        Solvent                        toluene
        Solvent mass                       9.2140E+01 g/mol
          :  Hamiltonian                  GFN2-xTB          :
 * total energy  :   -79.3058311 Eh     change       -0.3675794E-08 Eh
 * total energy  :   -79.3157908 Eh     change       -0.9959693E-02 Eh
 * total energy  :   -79.3178477 Eh     change       -0.2056942E-02 Eh
 * total energy  :   -79.3180008 Eh     change       -0.1530707E-03 Eh
 * total energy  :   -79.3180448 Eh     change       -0.4393877E-04 Eh
 * total energy  :   -79.3180470 Eh     change       -0.2213464E-05 Eh
 * total energy  :   -79.3180473 Eh     change       -0.3736897E-06 Eh
 * total energy  :   -79.3180475 Eh     change       -0.1294308E-06 Eh
 * total energy  :   -79.3180476 Eh     change       -0.1470911E-06 Eh
 * total energy  :   -79.3180479 Eh     change       -0.3213169E-06 Eh
 * total energy  :   -79.3229987 Eh     change       -0.2513174E-06 Eh
 * total energy  :   -79.3229988 Eh     change       -0.1162898E-06 Eh
 * total energy  :   -79.3229991 Eh     change       -0.2506463E-06 Eh
 * total energy  :   -79.3229994 Eh     change       -0.2917188E-06 Eh
 * total energy  :   -79.3229998 Eh     change       -0.3974794E-06 Eh
 * total energy  :   -79.3230001 Eh     change       -0.3318647E-06 Eh
 * total energy  :   -79.3230003 Eh     change       -0.2371814E-06 Eh
 * total energy  :   -79.3230005 Eh     change       -0.1389795E-06 Eh
 * total energy  :   -79.3230006 Eh     change       -0.9935985E-07 Eh
   *** GEOMETRY OPTIMIZATION CONVERGED AFTER 100 ITERATIONS ***

 final structure:
================
52
 xtb: 6.7.1 (edcfbbe)
O            7.78293376426511        0.74040434779183       -0.94130034586600
C            7.19846250831144       -0.08139659777144        0.04612425153208
C            5.68860647428043       -0.06750462215872        0.04459594540112
C            4.98203246783543       -0.34330332709466        1.20900710307519
C            3.59985066687098       -0.34776035020921        1.20684908203174
C            2.89315388173448       -0.06619248388144        0.04118978811604
C            1.41256680992026       -0.06543008475563        0.04046319394329
C            0.71532212528178        1.15026722032413        0.01481474741334
C            1.39158715542779        2.39916612531265        0.01106122646078
C            0.70552089875581        3.57436678381913       -0.00326419422995
C           -0.70436439045155        3.57455620918781       -0.00460248949900
C           -1.39075058587335        2.39953145179391        0.00862445235482
C           -0.71479630791541        1.15047048537960        0.01371728387787
C           -1.41238122932590       -0.06503298997234        0.03840173756035
C           -2.89298000815077       -0.06565400030470        0.03859701250381
C           -3.59933264607714       -0.34644393243049        1.20467956489196
C           -4.98147951366623       -0.34238520152525        1.20723260570105
C           -5.68841969874796       -0.06772940200981        0.04275836112005
C           -7.19830068740872       -0.08271655589865        0.04501471470297
O           -7.78410867527377        0.73344466455975       -0.94623066740363
C           -4.98468563947457        0.20698676609933       -1.12263011820853
C           -3.60181517444307        0.21306558762849       -1.12506406285010
C           -0.71515252519167       -1.28086350484544        0.06367119823171
C           -1.39181281819226       -2.52955380219315        0.06708377551980
C           -0.70543863862797       -3.70464932797206        0.08106367429285
C            0.70443438915115       -3.70486873332433        0.08246486639814
C            1.39122354580016       -2.52999995831095        0.06963414933490
C            0.71498684626556       -1.28108097109365        0.06481906506302
C            3.60165798053509        0.21352883179629       -1.12247060773101
C            4.98449398537561        0.20782772080714       -1.12044350826726
H            7.46067333691110        1.64176903092809       -0.81681975070209
H            7.55568437489316       -1.09371497194991       -0.17607984311494
H            7.57009122851493        0.19623349439598        1.04378207360376
H            5.51920230018479       -0.55817675085489        2.12201103823322
H            3.05733094456817       -0.56369659921972        2.11627407586804
H            2.47155372411965        2.39815597434098        0.02422687142960
H            1.23486964282621        4.51633860947936       -0.00668357890394
H           -1.23345814978955        4.51666621486301       -0.00915090350485
H           -2.47073985130936        2.39875702682982        0.01977495902153
H           -3.05644478250323       -0.56159167989608        2.11406913818054
H           -5.51833020627619       -0.55674067089877        2.12054053949699
H           -7.56956872744942        0.19968192293087        1.04146761345597
H           -7.55474949569847       -1.09650421866236       -0.17169325736942
H           -7.46424870297431        1.63613008023081       -0.82525604763601
H           -5.53004709773457        0.41396270165404       -2.03258606636203
H           -3.06315978989094        0.42852657270508       -2.03689147079379
H           -2.47182536547449       -2.52900657784656        0.05330912764697
H           -1.23503676501204       -4.64645099305863        0.08373901551463
H            1.23372586969252       -4.64684029175082        0.08640628229338
H            2.47125899845789       -2.52985071510626        0.05802202424353
H            3.06265192448685        0.42950005670166       -2.03396858182868
H            5.52955362846611        0.41580143542438       -2.03035106423989

          :  Hamiltonian                  GFN2-xTB          :
         :: gradient norm              0.000037580224 Eh/a0 ::
         :: HOMO-LUMO gap              2.154735407344 eV    ::
         :: SCC energy               -80.706471979184 Eh    ::
         :: -> dispersion             -0.066066120297 Eh    ::
         :: -> Gsolv                  -0.033279481310 Eh    ::
         :: repulsion energy           1.383471401360 Eh    ::

    * Orbital Energies and Occupations

         #    Occupation            Energy/Eh            Energy/eV
      -------------------------------------------------------------
         1        2.0000           -0.6948209             -18.9070
       ...           ...                  ...                  ...
        61        2.0000           -0.4241776             -11.5425
        62        2.0000           -0.4221038             -11.4860
        63        2.0000           -0.4193477             -11.4110
        64        2.0000           -0.4189625             -11.4005
        65        2.0000           -0.4142345             -11.2719
        66        2.0000           -0.4086158             -11.1190
        67        2.0000           -0.4084072             -11.1133
        68        2.0000           -0.4050157             -11.0210
        69        2.0000           -0.4019601             -10.9379
        70        2.0000           -0.3988303             -10.8527
        71        2.0000           -0.3955204             -10.7627
        72        2.0000           -0.3924299             -10.6786
        73        2.0000           -0.3584380              -9.7536 (HOMO)
        74                         -0.2792529              -7.5989 (LUMO)
        75                         -0.2311833              -6.2908
        76                         -0.2270502              -6.1784
        77                         -0.2267296              -6.1696
        78                         -0.2260525              -6.1512
        79                         -0.2255452              -6.1374
        80                         -0.2199148              -5.9842
        81                         -0.1759339              -4.7874
        82                         -0.1723128              -4.6889
        83                         -0.0997863              -2.7153
        84                         -0.0986664              -2.6849
       ...                                ...                  ...
       142                          0.7143464              19.4384
      -------------------------------------------------------------
                  HL-Gap            0.0791851 Eh            2.1547 eV

     #   Z          covCN         q      C6AA      α(0)
     1   8 O        1.655    -0.458    22.008     6.333
     2   6 C        3.679     0.079    19.478     6.322
     3   6 C        2.967    -0.008    28.223     8.714
     4   6 C        2.922    -0.041    29.011     8.833
     5   6 C        2.923    -0.032    28.805     8.801
     6   6 C        2.977     0.014    27.696     8.632
     7   6 C        2.977    -0.006    28.172     8.706
     8   6 C        2.983     0.005    27.896     8.664
     9   6 C        2.917    -0.035    28.873     8.811
    10   6 C        2.914    -0.031    28.780     8.797
    11   6 C        2.914    -0.031    28.780     8.797
    12   6 C        2.917    -0.035    28.873     8.811
    13   6 C        2.983     0.005    27.896     8.664
    14   6 C        2.977    -0.006    28.172     8.706
    15   6 C        2.977     0.014    27.696     8.633
    16   6 C        2.923    -0.032    28.805     8.801
    17   6 C        2.922    -0.041    29.011     8.833
    18   6 C        2.967    -0.008    28.222     8.714
    19   6 C        3.679     0.079    19.478     6.322
    20   8 O        1.655    -0.458    22.008     6.333
    21   6 C        2.922    -0.035    28.870     8.811
    22   6 C        2.923    -0.033    28.831     8.805
    23   6 C        2.984     0.005    27.893     8.663
    24   6 C        2.917    -0.035    28.872     8.811
    25   6 C        2.914    -0.031    28.771     8.796
    26   6 C        2.914    -0.031    28.771     8.796
    27   6 C        2.917    -0.035    28.872     8.811
    28   6 C        2.983     0.005    27.892     8.663
    29   6 C        2.923    -0.033    28.831     8.805
    30   6 C        2.922    -0.035    28.870     8.811
    31   1 H        0.805     0.298     0.727     1.340
    32   1 H        0.924     0.053     2.285     2.364
    33   1 H        0.923     0.028     2.617     2.530
    34   1 H        0.926     0.032     2.552     2.498
    35   1 H        0.926     0.034     2.533     2.489
    36   1 H        0.926     0.031     2.572     2.508
    37   1 H        0.926     0.030     2.587     2.515
    38   1 H        0.926     0.030     2.587     2.515
    39   1 H        0.926     0.031     2.572     2.508
    40   1 H        0.926     0.034     2.534     2.489
    41   1 H        0.926     0.032     2.553     2.498
    42   1 H        0.923     0.028     2.616     2.530
    43   1 H        0.924     0.053     2.285     2.364
    44   1 H        0.805     0.298     0.727     1.340
    45   1 H        0.926     0.042     2.419     2.432
    46   1 H        0.926     0.033     2.543     2.494
    47   1 H        0.926     0.031     2.566     2.505
    48   1 H        0.926     0.030     2.583     2.513
    49   1 H        0.926     0.030     2.583     2.513
    50   1 H        0.926     0.031     2.566     2.505
    51   1 H        0.926     0.033     2.543     2.494
    52   1 H        0.926     0.042     2.419     2.432

molecular dipole:
                 x           y           z       tot (Debye)
 q only:       -0.002       0.353       0.706
   full:       -0.002       0.539       0.957       2.791

 projected vibrational frequencies (cm⁻¹)
eigval :       -0.00    -0.00    -0.00    -0.00     0.00     0.00
eigval :       17.37    24.60    30.99    41.65    44.76    56.90
eigval :       58.52    66.01    77.07   107.86   134.30   138.33
eigval :      159.45   163.64   188.15   193.02   212.60   231.06
eigval :      265.12   292.74   302.96   341.25   354.15   365.60
eigval :      368.68   368.95   385.63   395.69   406.40   436.49
eigval :      440.46   448.83   451.52   456.53   494.00   502.77
eigval :      572.15   578.87   584.76   586.36   590.00   602.07
eigval :      618.42   639.04   656.72   681.26   689.27   692.03
eigval :      708.10   740.06   776.44   778.20   791.71   802.32
eigval :      811.06   819.72   876.89   878.14   880.03   880.90
eigval :      897.91   916.93   918.41   920.31   921.64   923.94
eigval :      925.65   929.90   930.99   931.88   932.24   932.42
eigval :      944.94   945.65  1015.42  1022.55  1067.80  1067.98
eigval :     1081.27  1081.88  1134.47  1137.15  1137.30  1143.49
eigval :     1146.82  1148.15  1181.33  1184.66  1191.57  1192.57
eigval :     1204.67  1206.17  1231.37  1231.83  1240.24  1260.94
eigval :     1261.31  1264.85  1266.08  1290.49  1290.57  1313.79
eigval :     1314.12  1327.56  1334.60  1334.64  1349.45  1373.91
eigval :     1384.31  1403.14  1403.50  1418.04  1428.28  1444.06
eigval :     1454.85  1455.27  1473.22  1497.55  1500.70  1525.36
eigval :     1529.89  1542.08  1570.89  1571.46  1603.21  1603.30
eigval :     1607.42  1621.83  2864.33  2864.37  2934.38  2934.50
eigval :     3067.09  3067.14  3069.11  3069.58  3071.64  3071.66
eigval :     3075.96  3076.21  3079.46  3079.55  3083.16  3083.27
eigval :     3085.83  3086.06  3090.18  3092.00  3525.27  3525.45

   temp. (K)  partition function   enthalpy   heat capacity  entropy
                                   cal/mol     cal/K/mol   cal/K/mol   J/K/mol
 298.15  VIB  0.761E+11            14412.776     90.654     89.408
         ROT  0.206E+08              888.752      2.981     36.447
         INT  0.157E+19            15301.529     93.635    125.854
         TR   0.747E+28             1481.254      4.968     43.759
         TOT                       16782.7827    98.6030   169.6129   709.6602

       T/K    H(0)-H(T)+PV         H(T)/Eh          T*S/Eh         G(T)/Eh
   ------------------------------------------------------------------------
    298.15    0.267451E-01    0.432707E+00    0.805885E-01    0.352119E+00
   ------------------------------------------------------------------------

         :::::::::::::::::::::::::::::::::::::::::::::::::::::
         ::                  THERMODYNAMIC                  ::
         :::::::::::::::::::::::::::::::::::::::::::::::::::::
         :: total free energy         -78.970881724359 Eh   ::
         ::.................................................::
         :: total energy              -79.323000577337 Eh   ::
         :: zero point energy           0.405962327201 Eh   ::
         :: G(RRHO) w/o ZPVE           -0.053843474224 Eh   ::
         :: G(RRHO) contrib.            0.352118852977 Eh   ::
         :::::::::::::::::::::::::::::::::::::::::::::::::::::

           -------------------------------------------------
          | TOTAL ENERGY              -79.323000577337 Eh   |
          | TOTAL ENTHALPY            -78.890293183535 Eh   |
          | TOTAL FREE ENERGY         -78.970881724359 Eh   |
          | GRADIENT NORM               0.000037628793 Eh/α |
          | HOMO-LUMO GAP               2.154735409551 eV   |
           -------------------------------------------------

 * finished run on 2025/07/18 at 18:14:16.795
