   * xtb version 6.7.1 (edcfbbe) compiled by 'albert@albert-system' on 2024-07-22

   ID    Z sym.   atoms
    1    8 O      1, 20
    2    6 C      2-19, 21-30
    3    1 H      31-52

          program call               : xtb data2507/toluene/p-DHMPA/p-DHMPA_toluene_S0_finalOpt.xtbopt.xyz --gfn 2 --uhf 2 --gbsa toluene --ohess vtight --parallel 40 --molden --ceasefiles --namespace data2507/toluene/p-DHMPA/p-DHMPA_toluene_T1_preOpt
      * Solvation model:               GBSA
        Solvent                        toluene
        Solvent mass                       9.2140E+01 g/mol
          :  Hamiltonian                  GFN2-xTB          :
 * total energy  :   -79.2436644 Eh     change       -0.1931681E-09 Eh
 * total energy  :   -79.2498582 Eh     change       -0.6193797E-02 Eh
 * total energy  :   -79.2512086 Eh     change       -0.1350396E-02 Eh
 * total energy  :   -79.2513156 Eh     change       -0.1069984E-03 Eh
 * total energy  :   -79.2514047 Eh     change       -0.8905744E-04 Eh
 * total energy  :   -79.2514587 Eh     change       -0.5406310E-04 Eh
 * total energy  :   -79.2515348 Eh     change       -0.7607263E-04 Eh
 * total energy  :   -79.2516654 Eh     change       -0.1306562E-03 Eh
 * total energy  :   -79.2518458 Eh     change       -0.1803407E-03 Eh
 * total energy  :   -79.2520184 Eh     change       -0.1725996E-03 Eh
 * total energy  :   -79.2534459 Eh     change       -0.8596510E-06 Eh
 * total energy  :   -79.2534462 Eh     change       -0.3089216E-06 Eh
 * total energy  :   -79.2534467 Eh     change       -0.5144054E-06 Eh
 * total energy  :   -79.2534468 Eh     change       -0.1415378E-06 Eh
 * total energy  :   -79.2534472 Eh     change       -0.4005864E-06 Eh
 * total energy  :   -79.2534475 Eh     change       -0.2510358E-06 Eh
 * total energy  :   -79.2534477 Eh     change       -0.1795176E-06 Eh
 * total energy  :   -79.2534478 Eh     change       -0.1222752E-06 Eh
 * total energy  :   -79.2534479 Eh     change       -0.8101466E-07 Eh
   *** GEOMETRY OPTIMIZATION CONVERGED AFTER 49 ITERATIONS ***

 final structure:
================
52
 xtb: 6.7.1 (edcfbbe)
O            7.84302868266703       -0.15721114350872       -0.85109145456007
C            7.19237759916764        0.00867992930672        0.39037860260154
C            5.68611003239235        0.00937827952484        0.30126987834890
C            4.92322134403647        0.67738594890146        1.25370941159195
C            3.54579279935950        0.67732668202153        1.17817256996271
C            2.88150504563128       -0.00076922758231        0.15013612312575
C            1.42269034770793       -0.00205315368908        0.07254836336091
C            0.71382525242673        1.23692912092226        0.01117409322652
C            1.38022927616243        2.46352993106693       -0.05898981556874
C            0.68641603273947        3.67346264958608       -0.04090367750318
C           -0.68786966167113        3.67299270308878        0.05155955217010
C           -1.38108264801041        2.46267776425861        0.06596621466345
C           -0.71404245917476        1.23661506525823       -0.00765103709973
C           -1.42228477408138       -0.00250700240860       -0.07257563502245
C           -2.88117779608036       -0.00174082746947       -0.14951704644911
C           -3.65449983052131       -0.67888113315772        0.79813044370478
C           -5.03283344593016       -0.66867896623580        0.72526226402250
C           -5.68584192798397        0.00764254934989       -0.29891992263456
C           -7.19217136374257        0.00661649621808       -0.38700221839440
O           -7.84191029505542       -0.16168541089222        0.85464649867628
C           -4.92380333684668        0.67801658534646       -1.25036563762843
C           -3.54632076979449        0.67838971317983       -1.17561982035757
C           -0.71084651314791       -1.24148509779054       -0.06446618905167
C           -1.36709408795733       -2.46766432195306       -0.20374939156067
C           -0.67816669247417       -3.67770531456931       -0.12013959064336
C            0.68011834938538       -3.67777771762063        0.10841906216840
C            1.36856108424154       -2.46772161154625        0.19588758685485
C            0.71183003729504       -1.24136202038139        0.06050930242832
C            3.65570633460338       -0.67540558384671       -0.79860809987667
C            5.03398771422500       -0.66489469390420       -0.72482592838673
H            7.54703163315450        0.54288818148999       -1.44604875590975
H            7.52368578411277       -0.83884346522097        1.00202498873630
H            7.53424977032160        0.93228350780799        0.88115684512132
H            5.41651937306358        1.19789413814562        2.06255971395064
H            2.96441828454800        1.18338841532758        1.93549079443796
H            2.45678849023426        2.47883437129474       -0.13213362169149
H            1.23508243105407        4.60267681825237       -0.08710296361796
H           -1.23698323555487        4.60179780338751        0.10056903794104
H           -2.45766037285446        2.47720454494464        0.13899592620627
H           -3.16273889781420       -1.19189496257973        1.61207217693844
H           -5.61810136351112       -1.19094844155330        1.46900606131517
H           -7.52364523958820       -0.83996516797834       -0.99983972328003
H           -7.53469589440466        0.93089605825188       -0.87596161346232
H           -7.54598663642782        0.53764396966231        1.45066752076078
H           -5.41778934350583        1.20011493105607       -2.05777179804780
H           -2.96557933579934        1.18647078025416       -1.93207257127157
H           -2.43095428187629       -2.48294280633445       -0.38439950332647
H           -1.21952678057793       -4.60657212872081       -0.22320955532198
H            1.22187303677732       -4.60674037320052        0.20850904962182
H            2.43239546489888       -2.48319781127326        0.37664433692664
H            3.16468322735547       -1.18661851103633       -1.61413076692105
H            5.61989410836695       -1.18528171521146       -1.46938656561971

          :  Hamiltonian                  GFN2-xTB          :
         :: gradient norm              0.000086194625 Eh/a0 ::
         :: HOMO-LUMO gap              1.605611529392 eV    ::
         :: SCC energy               -80.618009967328 Eh    ::
         :: -> dispersion             -0.066225709049 Eh    ::
         :: -> Gsolv                  -0.032844377932 Eh    ::
         :: repulsion energy           1.364562099856 Eh    ::

    * Orbital Energies and Occupations

         #    Occupation            Energy/Eh            Energy/eV
      -------------------------------------------------------------
         1        2.0000           -0.6949253             -18.9099
       ...           ...                  ...                  ...
        62        2.0000           -0.4238757             -11.5342
        63        2.0000           -0.4180565             -11.3759
        64        2.0000           -0.4174593             -11.3596
        65        2.0000           -0.4150597             -11.2944
        66        2.0000           -0.4106801             -11.1752
        67        2.0000           -0.4077706             -11.0960
        68        2.0000           -0.4055361             -11.0352
        69        2.0000           -0.4007281             -10.9044
        70        2.0000           -0.3971314             -10.8065
        71        2.0000           -0.3964270             -10.7873
        72        2.0000           -0.3920347             -10.6678
        73        1.0000           -0.3494512              -9.5091
        74        1.0000           -0.2880559              -7.8384 (HOMO)
        75                         -0.2290508              -6.2328 (LUMO)
        76                         -0.2286210              -6.2211
        77                         -0.2274056              -6.1880
        78                         -0.2265137              -6.1638
        79                         -0.2246265              -6.1124
        80                         -0.2215175              -6.0278
        81                         -0.1758808              -4.7860
        82                         -0.1731502              -4.7117
        83                         -0.1015678              -2.7638
        84                         -0.0984902              -2.6801
        85                         -0.0971301              -2.6430
       ...                                ...                  ...
       142                          0.7079314              19.2638
      -------------------------------------------------------------
                  HL-Gap            0.0590051 Eh            1.6056 eV

     #   Z          covCN         q      C6AA      α(0)
     1   8 O        1.655    -0.458    22.006     6.333
     2   6 C        3.679     0.079    19.476     6.321
     3   6 C        2.967    -0.008    28.221     8.714
     4   6 C        2.920    -0.041    29.013     8.833
     5   6 C        2.923    -0.032    28.799     8.801
     6   6 C        2.973     0.014    27.703     8.633
     7   6 C        2.972    -0.011    28.287     8.724
     8   6 C        2.976     0.008    27.836     8.654
     9   6 C        2.921    -0.040    28.984     8.829
    10   6 C        2.913    -0.033    28.812     8.802
    11   6 C        2.913    -0.033    28.812     8.802
    12   6 C        2.921    -0.040    28.984     8.829
    13   6 C        2.976     0.008    27.836     8.654
    14   6 C        2.972    -0.011    28.287     8.724
    15   6 C        2.973     0.014    27.702     8.633
    16   6 C        2.923    -0.033    28.829     8.805
    17   6 C        2.920    -0.035    28.872     8.812
    18   6 C        2.967    -0.008    28.221     8.714
    19   6 C        3.679     0.079    19.476     6.321
    20   8 O        1.655    -0.458    22.006     6.333
    21   6 C        2.920    -0.041    29.013     8.833
    22   6 C        2.923    -0.032    28.799     8.801
    23   6 C        2.976     0.008    27.834     8.654
    24   6 C        2.921    -0.039    28.969     8.826
    25   6 C        2.913    -0.032    28.800     8.800
    26   6 C        2.913    -0.032    28.800     8.800
    27   6 C        2.921    -0.039    28.970     8.826
    28   6 C        2.976     0.008    27.834     8.654
    29   6 C        2.923    -0.033    28.829     8.805
    30   6 C        2.920    -0.035    28.873     8.812
    31   1 H        0.805     0.298     0.727     1.339
    32   1 H        0.924     0.053     2.277     2.360
    33   1 H        0.923     0.028     2.611     2.527
    34   1 H        0.926     0.033     2.547     2.496
    35   1 H        0.926     0.036     2.497     2.471
    36   1 H        0.926     0.033     2.545     2.495
    37   1 H        0.926     0.029     2.595     2.519
    38   1 H        0.926     0.029     2.595     2.519
    39   1 H        0.926     0.033     2.545     2.495
    40   1 H        0.926     0.036     2.505     2.475
    41   1 H        0.926     0.043     2.415     2.430
    42   1 H        0.924     0.053     2.277     2.360
    43   1 H        0.923     0.028     2.611     2.527
    44   1 H        0.805     0.298     0.727     1.339
    45   1 H        0.926     0.033     2.547     2.496
    46   1 H        0.926     0.036     2.497     2.471
    47   1 H        0.926     0.034     2.536     2.490
    48   1 H        0.926     0.030     2.587     2.515
    49   1 H        0.926     0.030     2.587     2.515
    50   1 H        0.926     0.034     2.536     2.490
    51   1 H        0.926     0.036     2.505     2.475
    52   1 H        0.926     0.043     2.415     2.430

molecular dipole:
                 x           y           z       tot (Debye)
 q only:       -0.000       0.734       0.000
   full:       -0.000       1.043       0.001       2.652

 projected vibrational frequencies (cm⁻¹)
eigval :       -0.00    -0.00    -0.00     0.00     0.00     0.00
eigval :       14.77    19.63    24.43    34.76    51.64    52.77
eigval :       58.45    74.59    82.13   131.43   133.27   139.77
eigval :      163.81   174.92   175.87   193.91   230.69   234.14
eigval :      256.62   296.70   311.49   339.78   349.81   365.29
eigval :      367.59   370.85   374.88   386.71   400.78   401.82
eigval :      416.92   442.67   448.15   471.15   492.32   499.00
eigval :      564.34   568.24   577.17   581.62   584.39   599.58
eigval :      608.23   623.38   647.37   671.16   677.20   684.61
eigval :      708.06   716.72   743.35   756.88   791.19   800.71
eigval :      810.40   817.17   840.26   842.69   873.83   881.06
eigval :      885.69   890.44   893.48   901.69   902.71   921.73
eigval :      921.81   924.25   925.25   935.30   935.66   942.57
eigval :      942.74   944.11  1012.22  1017.98  1066.88  1066.97
eigval :     1100.43  1103.08  1110.80  1126.00  1140.05  1140.21
eigval :     1148.29  1148.47  1179.14  1180.52  1183.11  1191.74
eigval :     1192.69  1196.16  1228.09  1228.26  1228.48  1254.13
eigval :     1263.71  1266.26  1273.32  1288.54  1289.48  1296.04
eigval :     1302.90  1316.12  1316.25  1336.43  1336.47  1341.80
eigval :     1364.72  1372.38  1376.23  1402.19  1403.97  1407.23
eigval :     1422.12  1451.31  1451.47  1470.55  1473.27  1480.73
eigval :     1484.05  1520.02  1527.95  1548.31  1548.44  1557.50
eigval :     1585.51  1586.71  2862.61  2862.99  2930.33  2930.48
eigval :     3066.50  3066.57  3071.22  3072.05  3072.44  3072.53
eigval :     3080.26  3080.31  3080.66  3081.23  3084.29  3084.43
eigval :     3093.61  3093.97  3096.24  3097.91  3524.90  3525.84

   temp. (K)  partition function   enthalpy   heat capacity  entropy
                                   cal/mol     cal/K/mol   cal/K/mol   J/K/mol
 298.15  VIB  0.118E+12            14507.621     91.589     89.742
         ROT  0.103E+08              888.752      2.981     35.080
         INT  0.122E+19            15396.373     94.570    124.822
         TR   0.747E+28             1481.254      4.968     43.759
         TOT                       16877.6273    99.5382   168.5806   705.3410

       T/K    H(0)-H(T)+PV         H(T)/Eh          T*S/Eh         G(T)/Eh
   ------------------------------------------------------------------------
    298.15    0.268962E-01    0.430263E+00    0.800981E-01    0.350165E+00
   ------------------------------------------------------------------------

         :::::::::::::::::::::::::::::::::::::::::::::::::::::
         ::                  THERMODYNAMIC                  ::
         :::::::::::::::::::::::::::::::::::::::::::::::::::::
         :: total free energy         -78.903282877641 Eh   ::
         ::.................................................::
         :: total energy              -79.253447867931 Eh   ::
         :: zero point energy           0.403366838316 Eh   ::
         :: G(RRHO) w/o ZPVE           -0.053201848026 Eh   ::
         :: G(RRHO) contrib.            0.350164990290 Eh   ::
         :::::::::::::::::::::::::::::::::::::::::::::::::::::

           -------------------------------------------------
          | TOTAL ENERGY              -79.253447867931 Eh   |
          | TOTAL ENTHALPY            -78.823184818498 Eh   |
          | TOTAL FREE ENERGY         -78.903282877641 Eh   |
          | GRADIENT NORM               0.000086228520 Eh/α |
          | HOMO-LUMO GAP               1.605609994170 eV   |
           -------------------------------------------------

 * finished run on 2025/07/18 at 18:15:59.123
