   * xtb version 6.7.1 (edcfbbe) compiled by 'albert@albert-system' on 2024-07-22

   ID    Z sym.   atoms
    1    8 O      1, 20
    2    6 C      2-19, 21-30
    3    1 H      31-52

          program call               : xtb data2507/toluene/p-DHMPA/p-DHMPA_toluene_S0_crest.xyz --gfn 2 --gbsa toluene --ohess vtight --parallel 40 --molden --ceasefiles --namespace data2507/toluene/p-DHMPA/p-DHMPA_toluene_S0_finalOpt
      * Solvation model:               GBSA
        Solvent                        toluene
        Solvent mass                       9.2140E+01 g/mol
          :  Hamiltonian                  GFN2-xTB          :
 * total energy  :   -79.3229408 Eh     change       -0.4602327E-09 Eh
 * total energy  :   -79.3229627 Eh     change       -0.2193358E-04 Eh
 * total energy  :   -79.3229719 Eh     change       -0.9238383E-05 Eh
 * total energy  :   -79.3229764 Eh     change       -0.4453494E-05 Eh
 * total energy  :   -79.3229832 Eh     change       -0.6756798E-05 Eh
 * total energy  :   -79.3229896 Eh     change       -0.6455276E-05 Eh
 * total energy  :   -79.3229967 Eh     change       -0.7087454E-05 Eh
 * total energy  :   -79.3230038 Eh     change       -0.7130914E-05 Eh
 * total energy  :   -79.3230100 Eh     change       -0.6209403E-05 Eh
 * total energy  :   -79.3230153 Eh     change       -0.5218735E-05 Eh
 * total energy  :   -79.3230520 Eh     change       -0.8251614E-06 Eh
 * total energy  :   -79.3230528 Eh     change       -0.8350109E-06 Eh
 * total energy  :   -79.3230536 Eh     change       -0.7718091E-06 Eh
 * total energy  :   -79.3230542 Eh     change       -0.6623930E-06 Eh
 * total energy  :   -79.3230548 Eh     change       -0.5870909E-06 Eh
 * total energy  :   -79.3230553 Eh     change       -0.5201601E-06 Eh
 * total energy  :   -79.3230558 Eh     change       -0.4787315E-06 Eh
 * total energy  :   -79.3230563 Eh     change       -0.4490794E-06 Eh
 * total energy  :   -79.3230563 Eh     change       -0.5206843E-08 Eh
   *** GEOMETRY OPTIMIZATION CONVERGED AFTER 44 ITERATIONS ***

 final structure:
================
52
 xtb: 6.7.1 (edcfbbe)
O            7.82932668177744        0.23790166682147       -0.87613375204578
C            7.18971329957399       -0.03303711812543        0.35266028093428
C            5.68181624692777       -0.02013813724995        0.27712725065431
C            4.92282069132576        0.29339996759915        1.39812384809055
C            3.54198680934529        0.29243506742944        1.33342271158634
C            2.88948807003864       -0.02064678829032        0.14455104758627
C            1.41060565079047       -0.02091074631899        0.07314864866409
C            0.71362340656610        1.19459897994081        0.03581357376346
C            1.38906194732354        2.44389462171590        0.05091293405873
C            0.70260719640482        3.61867293288807        0.02517582640143
C           -0.70670122002663        3.61787596993909       -0.01600158539034
C           -1.39177601905648        2.44234405765295       -0.04424264767777
C           -0.71485738287189        1.19381598741212       -0.03209943534250
C           -1.41034376699543       -0.02247494675061       -0.07254847123738
C           -2.88921391185571       -0.02338780338647       -0.14393644684424
C           -3.65027280451370       -0.33945879539668        0.97652043525973
C           -5.03136324144306       -0.33836331471137        0.90976524247991
C           -5.68158560072789       -0.02034265263523       -0.27558463271738
C           -7.18953410656265       -0.03057377297781       -0.35077719021081
O           -7.82862649013625        0.23044311491698        0.88037317907101
C           -4.92269176302639        0.29515969292980       -1.39613775506059
C           -3.54187035574700        0.29295851338372       -1.33187510883237
C           -0.71305079053790       -1.23809920946701       -0.04180948104882
C           -1.38648119669282       -2.48710250271324       -0.10271870821416
C           -0.70056974524479       -3.66177695840114       -0.05972889272214
C            0.70511920379599       -3.66109258313288        0.04983658793711
C            1.38965611423826       -2.48574259723412        0.09641914170916
C            0.71479909544456       -1.23733901832259        0.03910782230032
C            3.65070425091467       -0.33371492742359       -0.97668185520122
C            5.03174602052372       -0.33388547951012       -0.90948081181373
H            7.51958293010554        1.09342613208606       -1.19854677851696
H            7.53354457800386       -1.03375744328310        0.63927692901639
H            7.52836275169254        0.67406715410519        1.12447897941544
H            5.41761642907528        0.53839019018950        2.32736951321421
H            2.95835365490311        0.53555922477302        2.20993315532420
H            2.46867225571749        2.44336308435655        0.08312522055816
H            1.23119620457081        4.56099980185694        0.03741603141798
H           -1.23641840400029        4.55959170181268       -0.02623282012074
H           -2.47138652029051        2.44064358144222       -0.07638427924586
H           -3.15344942765612       -0.58625455336649        1.90398418600254
H           -5.61733858070796       -0.58982155599453        1.78250240141816
H           -7.53488047428865       -1.02815940511612       -0.64633033224308
H           -7.52725412961266        0.68384839705053       -1.11627283540516
H           -7.51714306795206        1.08236771939274        1.21056441826317
H           -5.41764377794017        0.54288949794171       -2.32457068917176
H           -2.95828610781908        0.53796076146014       -2.20789380784948
H           -2.46345752847777       -2.48723651583282       -0.18539147739199
H           -1.22738770435791       -4.60394603209344       -0.10685195201576
H            1.23307615410782       -4.60276106741169        0.09410983039651
H            2.46661274627485       -2.48493687253503        0.17924120776161
H            3.15396608767724       -0.57753342819343       -1.90497750272127
H            5.61793505902218       -0.58292527152177       -1.78276593164367

          :  Hamiltonian                  GFN2-xTB          :
         :: gradient norm              0.000052132955 Eh/a0 ::
         :: HOMO-LUMO gap              2.155256148523 eV    ::
         :: SCC energy               -80.706477746385 Eh    ::
         :: -> dispersion             -0.066073086388 Eh    ::
         :: -> Gsolv                  -0.033267292919 Eh    ::
         :: repulsion energy           1.383421466598 Eh    ::

    * Orbital Energies and Occupations

         #    Occupation            Energy/Eh            Energy/eV
      -------------------------------------------------------------
         1        2.0000           -0.6947698             -18.9056
       ...           ...                  ...                  ...
        61        2.0000           -0.4237231             -11.5301
        62        2.0000           -0.4227498             -11.5036
        63        2.0000           -0.4190494             -11.4029
        64        2.0000           -0.4181737             -11.3791
        65        2.0000           -0.4149687             -11.2919
        66        2.0000           -0.4089548             -11.1282
        67        2.0000           -0.4080625             -11.1039
        68        2.0000           -0.4058087             -11.0426
        69        2.0000           -0.4013042             -10.9200
        70        2.0000           -0.3987662             -10.8510
        71        2.0000           -0.3958512             -10.7717
        72        2.0000           -0.3920253             -10.6676
        73        2.0000           -0.3584299              -9.7534 (HOMO)
        74                         -0.2792257              -7.5981 (LUMO)
        75                         -0.2311733              -6.2905
        76                         -0.2271001              -6.1797
        77                         -0.2267841              -6.1711
        78                         -0.2261563              -6.1540
        79                         -0.2255420              -6.1373
        80                         -0.2198544              -5.9825
        81                         -0.1760115              -4.7895
        82                         -0.1722387              -4.6869
        83                         -0.0995170              -2.7080
        84                         -0.0988304              -2.6893
       ...                                ...                  ...
       142                          0.7144060              19.4400
      -------------------------------------------------------------
                  HL-Gap            0.0792042 Eh            2.1553 eV

     #   Z          covCN         q      C6AA      α(0)
     1   8 O        1.655    -0.458    22.008     6.333
     2   6 C        3.679     0.079    19.478     6.322
     3   6 C        2.967    -0.008    28.223     8.714
     4   6 C        2.922    -0.041    29.010     8.833
     5   6 C        2.923    -0.032    28.804     8.801
     6   6 C        2.977     0.014    27.695     8.632
     7   6 C        2.977    -0.006    28.174     8.707
     8   6 C        2.983     0.005    27.898     8.664
     9   6 C        2.917    -0.035    28.875     8.812
    10   6 C        2.914    -0.031    28.781     8.797
    11   6 C        2.914    -0.031    28.781     8.797
    12   6 C        2.917    -0.035    28.875     8.812
    13   6 C        2.983     0.005    27.898     8.664
    14   6 C        2.977    -0.006    28.174     8.707
    15   6 C        2.977     0.014    27.695     8.632
    16   6 C        2.923    -0.033    28.830     8.805
    17   6 C        2.922    -0.035    28.869     8.811
    18   6 C        2.967    -0.008    28.222     8.714
    19   6 C        3.679     0.079    19.478     6.322
    20   8 O        1.655    -0.458    22.008     6.333
    21   6 C        2.922    -0.041    29.010     8.833
    22   6 C        2.923    -0.032    28.804     8.801
    23   6 C        2.983     0.006    27.892     8.663
    24   6 C        2.917    -0.035    28.871     8.811
    25   6 C        2.914    -0.031    28.771     8.796
    26   6 C        2.914    -0.031    28.771     8.796
    27   6 C        2.917    -0.035    28.871     8.811
    28   6 C        2.984     0.006    27.892     8.663
    29   6 C        2.923    -0.033    28.830     8.805
    30   6 C        2.922    -0.035    28.868     8.811
    31   1 H        0.805     0.298     0.728     1.340
    32   1 H        0.924     0.053     2.286     2.364
    33   1 H        0.923     0.028     2.619     2.531
    34   1 H        0.926     0.032     2.551     2.498
    35   1 H        0.926     0.034     2.533     2.489
    36   1 H        0.926     0.031     2.571     2.507
    37   1 H        0.926     0.030     2.588     2.516
    38   1 H        0.926     0.030     2.588     2.516
    39   1 H        0.926     0.031     2.571     2.507
    40   1 H        0.926     0.033     2.543     2.494
    41   1 H        0.926     0.042     2.418     2.432
    42   1 H        0.924     0.053     2.286     2.364
    43   1 H        0.923     0.028     2.618     2.530
    44   1 H        0.805     0.298     0.728     1.340
    45   1 H        0.926     0.032     2.552     2.498
    46   1 H        0.926     0.034     2.533     2.489
    47   1 H        0.926     0.031     2.566     2.505
    48   1 H        0.926     0.030     2.583     2.513
    49   1 H        0.926     0.030     2.583     2.513
    50   1 H        0.926     0.031     2.566     2.505
    51   1 H        0.926     0.033     2.543     2.494
    52   1 H        0.926     0.042     2.418     2.432

molecular dipole:
                 x           y           z       tot (Debye)
 q only:       -0.000       0.632       0.003
   full:        0.000       0.913       0.004       2.320

 projected vibrational frequencies (cm⁻¹)
eigval :       -0.00    -0.00    -0.00     0.00     0.00     0.00
eigval :       19.03    24.50    32.70    37.97    43.62    58.92
eigval :       63.33    63.93    78.67   113.50   135.02   138.96
eigval :      159.52   174.02   175.84   196.53   215.33   232.82
eigval :      253.91   301.05   308.68   340.67   358.56   368.00
eigval :      368.70   370.69   388.59   394.16   406.91   421.89
eigval :      448.06   450.15   455.73   459.56   490.16   504.40
eigval :      573.60   580.63   584.46   586.50   590.06   603.69
eigval :      617.00   640.00   655.61   680.51   689.40   692.99
eigval :      707.93   740.11   774.73   776.42   793.54   804.17
eigval :      812.39   820.81   876.18   877.87   882.44   883.11
eigval :      898.08   918.67   920.10   920.94   922.65   924.51
eigval :      926.08   928.82   928.98   932.54   934.31   934.67
eigval :      946.71   947.12  1015.60  1022.77  1067.27  1067.50
eigval :     1080.35  1082.51  1134.12  1138.03  1138.12  1143.54
eigval :     1146.57  1147.91  1180.67  1184.17  1192.24  1193.21
eigval :     1204.65  1205.93  1230.28  1232.18  1240.06  1260.70
eigval :     1261.39  1265.37  1266.29  1290.57  1291.14  1314.23
eigval :     1314.30  1327.49  1333.93  1334.48  1349.00  1373.92
eigval :     1384.15  1403.02  1404.01  1418.13  1428.22  1444.01
eigval :     1455.26  1455.81  1473.28  1497.68  1500.81  1525.35
eigval :     1530.00  1542.11  1570.94  1571.35  1603.24  1603.34
eigval :     1607.48  1621.89  2865.12  2865.41  2934.52  2934.63
eigval :     3067.86  3067.90  3069.15  3069.78  3072.25  3072.29
eigval :     3075.74  3076.42  3080.19  3080.32  3083.71  3083.86
eigval :     3085.35  3086.06  3090.02  3091.95  3525.18  3525.26

   temp. (K)  partition function   enthalpy   heat capacity  entropy
                                   cal/mol     cal/K/mol   cal/K/mol   J/K/mol
 298.15  VIB  0.629E+11            14381.584     90.605     89.017
         ROT  0.103E+08              888.752      2.981     35.064
         INT  0.646E+18            15270.336     93.586    124.081
         TR   0.747E+28             1481.254      4.968     43.759
         TOT                       16751.5903    98.5541   167.8395   702.2406

       T/K    H(0)-H(T)+PV         H(T)/Eh          T*S/Eh         G(T)/Eh
   ------------------------------------------------------------------------
    298.15    0.266954E-01    0.432792E+00    0.797460E-01    0.353046E+00
   ------------------------------------------------------------------------

         :::::::::::::::::::::::::::::::::::::::::::::::::::::
         ::                  THERMODYNAMIC                  ::
         :::::::::::::::::::::::::::::::::::::::::::::::::::::
         :: total free energy         -78.970009888075 Eh   ::
         ::.................................................::
         :: total energy              -79.323056278292 Eh   ::
         :: zero point energy           0.406097012660 Eh   ::
         :: G(RRHO) w/o ZPVE           -0.053050622443 Eh   ::
         :: G(RRHO) contrib.            0.353046390217 Eh   ::
         :::::::::::::::::::::::::::::::::::::::::::::::::::::

           -------------------------------------------------
          | TOTAL ENERGY              -79.323056278292 Eh   |
          | TOTAL ENTHALPY            -78.890263907261 Eh   |
          | TOTAL FREE ENERGY         -78.970009888075 Eh   |
          | GRADIENT NORM               0.000052085553 Eh/α |
          | HOMO-LUMO GAP               2.155256137151 eV   |
           -------------------------------------------------

 * finished run on 2025/07/18 at 18:15:56.123
