   * xtb version 6.7.1 (edcfbbe) compiled by 'albert@albert-system' on 2024-07-22

   ID    Z sym.   atoms
    1    8 O      1, 20
    2    6 C      2-19, 21-30
    3    1 H      31-52

          program call               : xtb data2507/toluene/p-DHMPA/p-DHMPA_toluene_T1_crest.xyz --gfn 2 --uhf 2 --gbsa toluene --ohess vtight --parallel 40 --molden --ceasefiles --namespace data2507/toluene/p-DHMPA/p-DHMPA_toluene_T1_finalOpt
      * Solvation model:               GBSA
        Solvent                        toluene
        Solvent mass                       9.2140E+01 g/mol
          :  Hamiltonian                  GFN2-xTB          :
 * total energy  :   -79.2534313 Eh     change       -0.2484001E-08 Eh
 * total energy  :   -79.2534529 Eh     change       -0.2154956E-04 Eh
 * total energy  :   -79.2534613 Eh     change       -0.8355756E-05 Eh
 * total energy  :   -79.2534645 Eh     change       -0.3261458E-05 Eh
 * total energy  :   -79.2534679 Eh     change       -0.3338713E-05 Eh
 * total energy  :   -79.2534711 Eh     change       -0.3216029E-05 Eh
 * total energy  :   -79.2534750 Eh     change       -0.3946442E-05 Eh
 * total energy  :   -79.2534783 Eh     change       -0.3254695E-05 Eh
 * total energy  :   -79.2534797 Eh     change       -0.1429192E-05 Eh
 * total energy  :   -79.2534804 Eh     change       -0.6560368E-06 Eh
 * total energy  :   -79.2534809 Eh     change       -0.5643964E-06 Eh
 * total energy  :   -79.2534814 Eh     change       -0.5008093E-06 Eh
 * total energy  :   -79.2534817 Eh     change       -0.3291366E-06 Eh
 * total energy  :   -79.2534821 Eh     change       -0.3808557E-06 Eh
 * total energy  :   -79.2534826 Eh     change       -0.4289296E-06 Eh
 * total energy  :   -79.2534829 Eh     change       -0.2938028E-06 Eh
 * total energy  :   -79.2534830 Eh     change       -0.1282422E-06 Eh
 * total energy  :   -79.2534830 Eh     change       -0.1774465E-07 Eh
   *** GEOMETRY OPTIMIZATION CONVERGED AFTER 18 ITERATIONS ***

 final structure:
================
52
 xtb: 6.7.1 (edcfbbe)
O            7.79204643406432        1.03457665700550       -0.43159767190888
C            7.20174598155673       -0.11160468351033        0.14383258925516
C            5.69331525797874       -0.10164359727264        0.12029024548459
C            4.96420146830882       -0.78180782349532        1.09021252094136
C            3.58497255509347       -0.78980312808590        1.05707924686652
C            2.88461919111122       -0.09862305313354        0.06206798944144
C            1.42448818182738       -0.09747831991453        0.03303129786303
C            0.71307971515514        1.14171393486889        0.04915073347674
C            1.37268791579722        2.36779537328181        0.17297168095685
C            0.68280641987296        3.57820893396255        0.10777093673726
C           -0.68066371561400        3.57896332253380       -0.08772074586560
C           -1.37128320693279        2.36921836725825       -0.15681028499858
C           -0.71235522937521        1.14233669772459       -0.03696686971445
C           -1.42426407026894       -0.09644246787367       -0.02524896722141
C           -2.88439832656140       -0.09754397972151       -0.06017570853981
C           -3.63040155682245        0.58641547840238        0.90483768954213
C           -5.00994554169741        0.57509000984761        0.87243079122400
C           -5.69255882032258       -0.10060826184621       -0.13305736763581
C           -7.20085525573150       -0.11020621967559       -0.16445244781424
O           -7.79364346027217        1.03594376602420        0.40858279164627
C           -4.95841356509072       -0.77618384673875       -1.10237604638953
C           -3.57938518135615       -0.78433128691466       -1.06190902299292
C           -0.71416799951663       -1.33555776759665        0.01836941600989
C           -1.37867833185560       -2.56141326485583        0.11522927191183
C           -0.68664273510177       -3.77170003439415        0.07451848330664
C            0.68330202754336       -3.77228136326490       -0.06945590451125
C            1.37660612424163       -2.56267504002544       -0.10963646464059
C            0.71353780524562       -1.33616037745142       -0.01122104956814
C            3.62573948746912        0.59008845098276       -0.90345287338409
C            5.00538912379475        0.57890901840736       -0.87827484831155
H            7.45378623088016        1.81391385460348        0.02669793576266
H            7.57336650751879       -0.95339380415098       -0.45231972550949
H            7.55607564138931       -0.24704436564316        1.17657737601245
H            5.48479103861702       -1.30772471749763        1.87818469007893
H            3.03102766938479       -1.30557428891652        1.82824943824021
H            2.44071943329144        2.38216832510064        0.32672712625695
H            1.22672477749340        4.50694695364901        0.19807701189630
H           -1.22398698329866        4.50834230074398       -0.17499121965192
H           -2.43929899083066        2.38465210483730       -0.31050142666005
H           -3.11570105348887        1.10057171071498        1.70365046868163
H           -5.57444776460720        1.09100660468030        1.63641779228669
H           -7.57587376673347       -0.95213322479656        0.42935668404322
H           -7.54986103226378       -0.24492041943693       -1.19908880301798
H           -7.45267294713594        1.81538930875380       -0.04751471850339
H           -5.47481984028014       -1.29875575366042       -1.89527309024553
H           -3.02112164187584       -1.29704020218338       -1.83201050195105
H           -2.45188083406954       -2.57579870202554        0.22816254101350
H           -1.23382192385587       -4.70037314274572        0.14290558728895
H            1.22956095752471       -4.70144675394665       -0.13852799797247
H            2.44967631639838       -2.57829969317689       -0.22354477679911
H            3.10686413230576        1.10749136686892       -1.69747414287074
H            5.56572742559444        1.09817826280054       -1.64308679034681

          :  Hamiltonian                  GFN2-xTB          :
         :: gradient norm              0.000077909196 Eh/a0 ::
         :: HOMO-LUMO gap              1.605876949587 eV    ::
         :: SCC energy               -80.618025132819 Eh    ::
         :: -> dispersion             -0.066249885449 Eh    ::
         :: -> Gsolv                  -0.032834420205 Eh    ::
         :: repulsion energy           1.364542134100 Eh    ::

    * Orbital Energies and Occupations

         #    Occupation            Energy/Eh            Energy/eV
      -------------------------------------------------------------
         1        2.0000           -0.6948803             -18.9087
       ...           ...                  ...                  ...
        62        2.0000           -0.4223496             -11.4927
        63        2.0000           -0.4194324             -11.4133
        64        2.0000           -0.4191185             -11.4048
        65        2.0000           -0.4136487             -11.2560
        66        2.0000           -0.4104001             -11.1676
        67        2.0000           -0.4078728             -11.0988
        68        2.0000           -0.4057572             -11.0412
        69        2.0000           -0.4007898             -10.9060
        70        2.0000           -0.3973255             -10.8118
        71        2.0000           -0.3966675             -10.7939
        72        2.0000           -0.3922160             -10.6727
        73        1.0000           -0.3494765              -9.5097
        74        1.0000           -0.2882448              -7.8435 (HOMO)
        75                         -0.2292298              -6.2377 (LUMO)
        76                         -0.2287861              -6.2256
        77                         -0.2275672              -6.1924
        78                         -0.2265694              -6.1653
        79                         -0.2246527              -6.1131
        80                         -0.2215673              -6.0292
        81                         -0.1756472              -4.7796
        82                         -0.1731428              -4.7115
        83                         -0.1018226              -2.7707
        84                         -0.0986765              -2.6851
        85                         -0.0974442              -2.6516
       ...                                ...                  ...
       142                          0.7077933              19.2600
      -------------------------------------------------------------
                  HL-Gap            0.0590150 Eh            1.6059 eV

     #   Z          covCN         q      C6AA      α(0)
     1   8 O        1.655    -0.458    22.007     6.333
     2   6 C        3.679     0.079    19.478     6.322
     3   6 C        2.967    -0.008    28.222     8.714
     4   6 C        2.920    -0.041    29.011     8.833
     5   6 C        2.923    -0.032    28.802     8.801
     6   6 C        2.973     0.014    27.702     8.633
     7   6 C        2.972    -0.011    28.287     8.724
     8   6 C        2.976     0.008    27.835     8.654
     9   6 C        2.921    -0.039    28.979     8.828
    10   6 C        2.913    -0.033    28.810     8.802
    11   6 C        2.913    -0.033    28.810     8.802
    12   6 C        2.921    -0.039    28.979     8.828
    13   6 C        2.976     0.008    27.835     8.654
    14   6 C        2.972    -0.011    28.287     8.724
    15   6 C        2.973     0.014    27.702     8.633
    16   6 C        2.923    -0.033    28.828     8.805
    17   6 C        2.921    -0.035    28.870     8.811
    18   6 C        2.967    -0.008    28.223     8.714
    19   6 C        3.679     0.079    19.478     6.322
    20   8 O        1.655    -0.458    22.007     6.333
    21   6 C        2.920    -0.041    29.010     8.833
    22   6 C        2.923    -0.032    28.802     8.801
    23   6 C        2.977     0.008    27.835     8.654
    24   6 C        2.921    -0.039    28.971     8.827
    25   6 C        2.913    -0.032    28.803     8.801
    26   6 C        2.913    -0.032    28.803     8.801
    27   6 C        2.921    -0.039    28.972     8.827
    28   6 C        2.976     0.008    27.834     8.654
    29   6 C        2.923    -0.033    28.828     8.805
    30   6 C        2.920    -0.035    28.870     8.811
    31   1 H        0.805     0.298     0.728     1.340
    32   1 H        0.924     0.053     2.279     2.361
    33   1 H        0.923     0.028     2.611     2.527
    34   1 H        0.926     0.033     2.546     2.495
    35   1 H        0.926     0.037     2.495     2.470
    36   1 H        0.926     0.033     2.544     2.494
    37   1 H        0.926     0.030     2.593     2.518
    38   1 H        0.926     0.030     2.593     2.518
    39   1 H        0.926     0.033     2.544     2.494
    40   1 H        0.926     0.036     2.504     2.474
    41   1 H        0.926     0.043     2.414     2.430
    42   1 H        0.924     0.053     2.279     2.361
    43   1 H        0.923     0.028     2.612     2.527
    44   1 H        0.805     0.298     0.728     1.340
    45   1 H        0.926     0.033     2.546     2.495
    46   1 H        0.926     0.036     2.496     2.471
    47   1 H        0.926     0.033     2.538     2.491
    48   1 H        0.926     0.030     2.588     2.516
    49   1 H        0.926     0.030     2.588     2.516
    50   1 H        0.926     0.034     2.537     2.491
    51   1 H        0.926     0.036     2.504     2.475
    52   1 H        0.926     0.043     2.414     2.430

molecular dipole:
                 x           y           z       tot (Debye)
 q only:        0.004       0.034       0.002
   full:        0.004       0.107       0.002       0.272

 projected vibrational frequencies (cm⁻¹)
eigval :       -0.00    -0.00    -0.00    -0.00     0.00     0.00
eigval :       12.90    26.87    37.54    39.36    54.60    59.32
eigval :       64.69    71.82    82.99   127.73   139.27   145.64
eigval :      162.84   173.49   176.38   192.50   230.90   245.14
eigval :      256.19   297.91   303.08   337.76   355.71   362.33
eigval :      363.14   369.48   373.57   389.49   403.22   408.22
eigval :      419.94   440.85   449.17   469.75   491.38   496.83
eigval :      559.86   570.39   578.21   581.62   583.22   600.84
eigval :      609.05   621.29   647.56   672.31   677.66   684.78
eigval :      708.40   717.14   744.65   757.70   789.61   799.66
eigval :      811.99   818.11   841.73   844.69   872.68   879.42
eigval :      887.02   891.07   893.14   901.17   902.03   921.52
eigval :      922.04   922.86   923.44   933.72   934.15   940.98
eigval :      944.17   947.09  1011.32  1016.78  1065.37  1065.49
eigval :     1100.55  1103.20  1110.93  1125.43  1137.58  1137.79
eigval :     1142.85  1143.12  1179.48  1180.80  1181.85  1190.76
eigval :     1192.26  1195.19  1227.12  1227.45  1228.49  1254.05
eigval :     1261.48  1264.32  1273.30  1287.89  1289.46  1296.63
eigval :     1302.79  1314.12  1314.17  1333.74  1333.96  1341.57
eigval :     1364.31  1372.81  1375.80  1402.38  1404.22  1407.47
eigval :     1422.04  1454.54  1454.71  1470.26  1472.17  1481.26
eigval :     1483.41  1520.54  1527.83  1547.35  1547.57  1557.08
eigval :     1584.70  1585.98  2864.33  2864.45  2930.92  2931.00
eigval :     3066.37  3066.78  3071.44  3071.84  3072.06  3072.30
eigval :     3080.10  3080.26  3080.72  3080.91  3083.98  3084.28
eigval :     3093.01  3093.71  3095.88  3097.61  3526.45  3526.51

   temp. (K)  partition function   enthalpy   heat capacity  entropy
                                   cal/mol     cal/K/mol   cal/K/mol   J/K/mol
 298.15  VIB  0.464E+11            14448.066     92.150     89.238
         ROT  0.104E+08              888.752      2.981     35.084
         INT  0.481E+18            15336.818     95.130    124.321
         TR   0.747E+28             1481.254      4.968     43.759
         TOT                       16818.0720   100.0985   168.0799   703.2461

       T/K    H(0)-H(T)+PV         H(T)/Eh          T*S/Eh         G(T)/Eh
   ------------------------------------------------------------------------
    298.15    0.268013E-01    0.430200E+00    0.798602E-01    0.350340E+00
   ------------------------------------------------------------------------

         :::::::::::::::::::::::::::::::::::::::::::::::::::::
         ::                  THERMODYNAMIC                  ::
         :::::::::::::::::::::::::::::::::::::::::::::::::::::
         :: total free energy         -78.903143174359 Eh   ::
         ::.................................................::
         :: total energy              -79.253482998387 Eh   ::
         :: zero point energy           0.403398682671 Eh   ::
         :: G(RRHO) w/o ZPVE           -0.053058858642 Eh   ::
         :: G(RRHO) contrib.            0.350339824029 Eh   ::
         :::::::::::::::::::::::::::::::::::::::::::::::::::::

           -------------------------------------------------
          | TOTAL ENERGY              -79.253482998387 Eh   |
          | TOTAL ENTHALPY            -78.823283011988 Eh   |
          | TOTAL FREE ENERGY         -78.903143174359 Eh   |
          | GRADIENT NORM               0.000078003710 Eh/α |
          | HOMO-LUMO GAP               1.605879788358 eV   |
           -------------------------------------------------

 * finished run on 2025/07/18 at 18:17:52.975
