   * xtb version 6.7.1 (edcfbbe) compiled by 'albert@albert-system' on 2024-07-22

   ID    Z sym.   atoms
    1    6 C      1-9, 11-25
    2    7 N      10, 26
    3    1 H      27-50

          program call               : xtb data2507/gas/TMDBP/TMDBP_gas_S0_crest.xyz --gfn 2 --ohess vtight --parallel 40 --molden --ceasefiles --namespace data2507/gas/TMDBP/TMDBP_gas_S0_finalOpt
          :  Hamiltonian                  GFN2-xTB          :
 * total energy  :   -69.5383831 Eh     change       -0.1615732E-08 Eh
 * total energy  :   -69.5383834 Eh     change       -0.3267383E-06 Eh
 * total energy  :   -69.5383836 Eh     change       -0.2534769E-06 Eh
 * total energy  :   -69.5383839 Eh     change       -0.2906001E-06 Eh
 * total energy  :   -69.5383841 Eh     change       -0.1319846E-06 Eh
 * total energy  :   -69.5383841 Eh     change        0.2122943E-07 Eh
 * total energy  :   -69.5383841 Eh     change       -0.6213531E-07 Eh
   *** GEOMETRY OPTIMIZATION CONVERGED AFTER 7 ITERATIONS ***

 final structure:
================
50
 xtb: 6.7.1 (edcfbbe)
C           -3.38786022779106        2.09384997279546       -1.25223167802430
C           -2.87990007183215        1.37395976891556        0.01041463695921
C           -3.38577588331320        2.09622130026973        1.27264434736277
C           -3.43483997394149       -0.03692303915577        0.01316605840447
C           -4.80235047999725       -0.26835457747048        0.02173506061299
C           -5.32294467453620       -1.55075040820539        0.02870761849948
C           -4.46744653907380       -2.63916763646498        0.02859145186490
C           -3.10392969270701       -2.43502745925743        0.01917859267182
C           -2.58100224691523       -1.14087035536269        0.00985624545297
N           -1.21872293540117       -0.97783068733473       -0.00768874223011
C           -0.57538395445047        0.24007918248736       -0.00264565142218
C           -1.35821385309186        1.40289274853561        0.00816473389099
C           -0.71312071877500        2.62970034295067        0.01132074961907
C            0.65970449705035        2.71631788421324        0.00393276030621
C            1.43298640832465        1.55817198285439       -0.01261529055776
C            0.83227233486264        0.29908910708010       -0.01341364931080
C            1.68620381753707       -0.96629746452525       -0.06207585095642
C            1.33378240762125       -1.90561383020521        1.12362114819886
C            1.47271678896944       -1.64851483713832       -1.43304174450996
C            3.17730643722541       -0.66660491142201        0.01220770944380
C            4.09042573991914       -1.71132364153764        0.04781226249807
C            5.45466807852353       -1.48371483138502        0.08677584187657
C            5.93449251935534       -0.18464867590694        0.09124010533597
C            5.04804920014359        0.87059060163788        0.05621596818533
C            3.67287968015308        0.63774059407986        0.01264165417992
N            2.80247816235478        1.69458486732412       -0.03102390340174
H           -4.47412963047134        2.10230128152916       -1.28128447318140
H           -3.02417260816077        1.58117813958034       -2.14077912916765
H           -3.03783153313836        3.12191350851835       -1.28223055426685
H           -4.47195672135795        2.10842325458344        1.30153537029045
H           -3.03297742548747        3.12326529671607        1.30257152928946
H           -3.02423648473391        1.58293829108167        2.16177786575297
H           -5.48667311705039        0.56694427078948        0.02328045413571
H           -6.39225000193373       -1.69866811120519        0.03499692244753
H           -4.86210790608052       -3.64444954085308        0.03564881905341
H           -2.42459937272769       -3.27681433557085        0.01898209823986
H           -0.66621439032565       -1.81598806641191        0.02351007065105
H           -1.28660685596599        3.54335745770124        0.01948949181270
H            1.14868879331435        3.67971204915986        0.00753157919014
H            0.57765420502210       -1.46213010322018        1.76770139834132
H            2.21325752012129       -2.07309420267601        1.74165105811300
H            0.98645313303096       -2.88043214505568        0.78331095946407
H            1.97947034432301       -2.61008793774665       -1.46650290975902
H            0.42300231461199       -1.79899450184484       -1.67002225995640
H            1.89668516986655       -1.01667323321330       -2.21190176815499
H            3.73351212382747       -2.73080467817298        0.04623931996078
H            6.13970246054172       -2.31751628059575        0.11220735580807
H            6.99717828519136        0.00464609208322        0.12234987800516
H            5.40708278681334        1.89046478607943        0.06052766599466
H            3.18063767105529        2.62880800107204       -0.01037676761410

          :  Hamiltonian                  GFN2-xTB          :
         :: gradient norm              0.000032329197 Eh/a0 ::
         :: HOMO-LUMO gap              3.219018808890 eV    ::
         :: SCC energy               -70.758195133121 Eh    ::
         :: -> dispersion             -0.064090160220 Eh    ::
         :: repulsion energy           1.219811020016 Eh    ::

    * Orbital Energies and Occupations

         #    Occupation            Energy/Eh            Energy/eV
      -------------------------------------------------------------
         1        2.0000           -0.6601326             -17.9631
       ...           ...                  ...                  ...
        53        2.0000           -0.4346927             -11.8286
        54        2.0000           -0.4311006             -11.7308
        55        2.0000           -0.4280752             -11.6485
        56        2.0000           -0.4161316             -11.3235
        57        2.0000           -0.4122310             -11.2174
        58        2.0000           -0.4036599             -10.9841
        59        2.0000           -0.3987199             -10.8497
        60        2.0000           -0.3970246             -10.8036
        61        2.0000           -0.3928574             -10.6902
        62        2.0000           -0.3915385             -10.6543
        63        2.0000           -0.3875807             -10.5466
        64        2.0000           -0.3447555              -9.3813
        65        2.0000           -0.3369428              -9.1687 (HOMO)
        66                         -0.2186460              -5.9497 (LUMO)
        67                         -0.2165848              -5.8936
        68                         -0.2151721              -5.8551
        69                         -0.2119879              -5.7685
        70                         -0.1906731              -5.1885
        71                         -0.1732755              -4.7151
        72                         -0.0870164              -2.3678
        73                         -0.0770557              -2.0968
        74                         -0.0677466              -1.8435
        75                          0.0189191               0.5148
        76                          0.0410958               1.1183
       ...                                ...                  ...
       128                          0.6944924              18.8981
      -------------------------------------------------------------
                  HL-Gap            0.1182968 Eh            3.2190 eV

     #   Z          covCN         q      C6AA      α(0)
     1   6 C        3.761    -0.103    22.514     6.764
     2   6 C        3.908     0.023    20.135     6.378
     3   6 C        3.761    -0.103    22.514     6.764
     4   6 C        2.981    -0.014    28.345     8.733
     5   6 C        2.926    -0.036    28.907     8.817
     6   6 C        2.918    -0.047    29.160     8.855
     7   6 C        2.919    -0.033    28.830     8.805
     8   6 C        2.926    -0.064    29.596     8.922
     9   6 C        2.917     0.063    26.589     8.456
    10   7 N        2.706    -0.151    24.263     7.316
    11   6 C        2.917     0.058    26.696     8.473
    12   6 C        2.979    -0.028    28.686     8.786
    13   6 C        2.925    -0.039    28.972     8.827
    14   6 C        2.922    -0.078    29.936     8.973
    15   6 C        2.918     0.061    26.632     8.463
    16   6 C        2.974    -0.049    29.205     8.865
    17   6 C        3.903     0.021    20.170     6.384
    18   6 C        3.755    -0.109    22.647     6.786
    19   6 C        3.762    -0.105    22.544     6.768
    20   6 C        2.985    -0.015    28.374     8.738
    21   6 C        2.927    -0.039    28.965     8.826
    22   6 C        2.918    -0.047    29.173     8.857
    23   6 C        2.919    -0.033    28.817     8.803
    24   6 C        2.924    -0.063    29.568     8.917
    25   6 C        2.919     0.065    26.551     8.450
    26   7 N        2.707    -0.141    24.062     7.285
    27   1 H        0.925     0.037     2.487     2.466
    28   1 H        0.925     0.031     2.574     2.509
    29   1 H        0.925     0.037     2.486     2.465
    30   1 H        0.925     0.037     2.485     2.465
    31   1 H        0.925     0.037     2.485     2.465
    32   1 H        0.925     0.030     2.583     2.513
    33   1 H        0.926     0.027     2.626     2.534
    34   1 H        0.926     0.023     2.682     2.561
    35   1 H        0.926     0.025     2.657     2.549
    36   1 H        0.925     0.018     2.768     2.602
    37   1 H        0.860     0.178     1.223     1.732
    38   1 H        0.926     0.029     2.599     2.521
    39   1 H        0.926     0.018     2.762     2.599
    40   1 H        0.925     0.039     2.461     2.453
    41   1 H        0.925     0.042     2.419     2.432
    42   1 H        0.925     0.030     2.589     2.516
    43   1 H        0.925     0.037     2.494     2.470
    44   1 H        0.925     0.036     2.499     2.472
    45   1 H        0.925     0.035     2.521     2.483
    46   1 H        0.926     0.029     2.595     2.519
    47   1 H        0.926     0.024     2.670     2.555
    48   1 H        0.926     0.026     2.638     2.540
    49   1 H        0.925     0.020     2.732     2.585
    50   1 H        0.860     0.158     1.349     1.819

molecular dipole:
                 x           y           z       tot (Debye)
 q only:        0.206       0.099       0.006
   full:        0.349       0.129       0.017       0.947

 projected vibrational frequencies (cm⁻¹)
eigval :       -0.00    -0.00    -0.00     0.00     0.00     0.00
eigval :       32.64    33.88    76.70    87.91   105.69   106.38
eigval :      119.39   133.80   156.14   181.26   193.17   204.44
eigval :      214.03   221.40   235.58   252.15   256.64   293.83
eigval :      298.11   314.56   333.00   338.55   353.28   385.59
eigval :      404.78   414.84   418.97   463.64   464.46   470.40
eigval :      478.91   517.14   525.57   530.74   541.23   550.07
eigval :      553.39   570.56   579.25   608.91   616.89   630.18
eigval :      667.38   686.15   693.58   697.78   729.52   776.52
eigval :      778.74   789.18   810.52   811.16   847.83   861.92
eigval :      863.37   869.99   891.53   906.45   911.44   915.13
eigval :      919.62   922.58   928.37   955.52   956.22   968.11
eigval :     1013.93  1031.53  1070.64  1081.42  1090.02  1097.53
eigval :     1109.08  1115.77  1142.02  1143.95  1156.54  1159.91
eigval :     1178.37  1183.72  1186.40  1208.64  1214.17  1222.40
eigval :     1236.67  1255.65  1258.12  1265.96  1277.59  1290.37
eigval :     1304.64  1335.42  1339.92  1341.11  1364.22  1401.92
eigval :     1404.44  1411.85  1419.48  1424.94  1441.25  1464.34
eigval :     1479.69  1487.84  1490.83  1491.46  1491.84  1500.67
eigval :     1501.08  1504.98  1506.95  1512.05  1514.89  1526.93
eigval :     1575.71  1584.67  1593.13  1593.62  1601.43  1603.74
eigval :     3002.26  3025.01  3025.80  3026.23  3028.68  3033.36
eigval :     3037.89  3040.73  3041.62  3046.27  3046.91  3050.73
eigval :     3057.54  3063.97  3070.24  3076.37  3076.79  3082.08
eigval :     3083.30  3094.08  3094.85  3095.40  3447.88  3510.49

   temp. (K)  partition function   enthalpy   heat capacity  entropy
                                   cal/mol     cal/K/mol   cal/K/mol   J/K/mol
 298.15  VIB  0.347E+08            12496.416     85.544     73.345
         ROT  0.104E+08              888.752      2.981     35.095
         INT  0.362E+15            13385.169     88.525    108.440
         TR   0.608E+28             1481.254      4.968     43.350
         TOT                       14866.4227    93.4931   151.7900   635.0894

       T/K    H(0)-H(T)+PV         H(T)/Eh          T*S/Eh         G(T)/Eh
   ------------------------------------------------------------------------
    298.15    0.236912E-01    0.435562E+00    0.721203E-01    0.363442E+00
   ------------------------------------------------------------------------

         :::::::::::::::::::::::::::::::::::::::::::::::::::::
         ::                  THERMODYNAMIC                  ::
         :::::::::::::::::::::::::::::::::::::::::::::::::::::
         :: total free energy         -69.174942033569 Eh   ::
         ::.................................................::
         :: total energy              -69.538384113104 Eh   ::
         :: zero point energy           0.411871254050 Eh   ::
         :: G(RRHO) w/o ZPVE           -0.048429174514 Eh   ::
         :: G(RRHO) contrib.            0.363442079536 Eh   ::
         :::::::::::::::::::::::::::::::::::::::::::::::::::::

           -------------------------------------------------
          | TOTAL ENERGY              -69.538384113104 Eh   |
          | TOTAL ENTHALPY            -69.102821706447 Eh   |
          | TOTAL FREE ENERGY         -69.174942033569 Eh   |
          | GRADIENT NORM               0.000032362842 Eh/α |
          | HOMO-LUMO GAP               3.219019319978 eV   |
           -------------------------------------------------

 * finished run on 2025/09/12 at 23:45:17.430
