   * xtb version 6.7.1 (edcfbbe) compiled by 'albert@albert-system' on 2024-07-22

   ID    Z sym.   atoms
    1    6 C      1-9, 11-25
    2    7 N      10, 26
    3    1 H      27-50

          program call               : xtb data2507/gas/TMDBP/TMDBP_gas_S0_finalOpt.xtbopt.xyz --gfn 2 --spinpol --tblite --uhf 2 --ohess vtight --parallel 40 --molden --ceasefiles --namespace data2507/gas/TMDBP/TMDBP_gas_T1_preOpt
 * total energy  :   -69.4211187 Eh     change       -0.1214474E-08 Eh
 * total energy  :   -69.4265845 Eh     change       -0.5465771E-02 Eh
 * total energy  :   -69.4280210 Eh     change       -0.1436520E-02 Eh
 * total energy  :   -69.4281150 Eh     change       -0.9397497E-04 Eh
 * total energy  :   -69.4281549 Eh     change       -0.3989848E-04 Eh
 * total energy  :   -69.4281630 Eh     change       -0.8149045E-05 Eh
 * total energy  :   -69.4281728 Eh     change       -0.9798743E-05 Eh
 * total energy  :   -69.4281788 Eh     change       -0.6031134E-05 Eh
 * total energy  :   -69.4281833 Eh     change       -0.4444990E-05 Eh
 * total energy  :   -69.4281853 Eh     change       -0.1980702E-05 Eh
 * total energy  :   -69.4281860 Eh     change       -0.7848730E-06 Eh
 * total energy  :   -69.4281864 Eh     change       -0.3975689E-06 Eh
 * total energy  :   -69.4281864 Eh     change       -0.7888517E-08 Eh
 * total energy  :   -69.4281867 Eh     change       -0.2325971E-06 Eh
 * total energy  :   -69.4281868 Eh     change       -0.1423687E-06 Eh
 * total energy  :   -69.4281869 Eh     change       -0.1202728E-06 Eh
 * total energy  :   -69.4281871 Eh     change       -0.1221380E-06 Eh
 * total energy  :   -69.4281872 Eh     change       -0.1100925E-06 Eh
 * total energy  :   -69.4281872 Eh     change       -0.5507812E-07 Eh
   *** GEOMETRY OPTIMIZATION CONVERGED AFTER 19 ITERATIONS ***

 final structure:
================
50
 xtb: 6.7.1 (edcfbbe)
C           -3.40130530102944        2.10813040152720       -1.25483365363230
C           -2.88781241133608        1.38328955064311        0.00763504838400
C           -3.40226736705782        2.11218363952730        1.26734912590559
C           -3.45230236779531       -0.01769449915549        0.01094582916112
C           -4.81123006193785       -0.25494931697777        0.01112863436239
C           -5.33235084045512       -1.54481828764092        0.02111781945670
C           -4.46572111098372       -2.64341401093710        0.03366260774082
C           -3.11266268756014       -2.44454947574858        0.03351900604296
C           -2.58119264686282       -1.13524039233620        0.02007067649439
N           -1.23337268037987       -0.97164008673344        0.01393862853954
C           -0.56086532561610        0.21343290788191        0.00163046006464
C           -1.38171076160792        1.43412095298051        0.00699467059246
C           -0.72290537326551        2.65330680051914        0.00713429394319
C            0.64494307098235        2.73669894964910        0.00369653226871
C            1.44362681949858        1.52292678243715       -0.00577995949004
C            0.84281492573541        0.27550204722646       -0.01032232337418
C            1.69977053217287       -0.98941890729013       -0.06143848327738
C            1.34199789666761       -1.93679480048198        1.11621248150381
C            1.48495814763620       -1.67285892876635       -1.43171982861001
C            3.18940356887511       -0.68159185764708        0.01558437099696
C            4.11147869801449       -1.71137788603068        0.04205387782492
C            5.47953338528322       -1.47197944353529        0.07990919403679
C            5.95189135782600       -0.16167411430477        0.08981982134934
C            5.06232693028730        0.88343163376232        0.06204888391376
C            3.68007165388958        0.63867356203268        0.02204331984725
N            2.80031952575945        1.67919303605875       -0.00723679938548
H           -4.48730960801249        2.11797551659330       -1.27449571135994
H           -3.04402141381070        1.59453376068144       -2.14494401941038
H           -3.04779089108932        3.13477984947124       -1.28350511269062
H           -4.48827350233816        2.12111437354184        1.28676431936087
H           -3.04977415721583        3.13926864774220        1.29278026075077
H           -3.04506324752287        1.60203494140788        2.15953841283953
H           -5.50300494559069        0.57462619517201        0.00425183704260
H           -6.40005543391671       -1.69637839095321        0.02064417811919
H           -4.86819445443267       -3.64552242688115        0.04341725924569
H           -2.42833828264929       -3.28241268923465        0.04314229946746
H           -0.68503427906060       -1.81764701882209        0.04248773804653
H           -1.29204119332397        3.57113363970334        0.00956122516552
H            1.15197764252915        3.68857805428648        0.00309586851083
H            0.63786427259526       -1.46521421668270        1.79847273643060
H            2.23316330456978       -2.16974841028528        1.69436984599426
H            0.92688306020036       -2.88282469408579        0.76985908135838
H            2.01795146909135       -2.61972761105152       -1.47339803690760
H            0.43687006400692       -1.85468295740993       -1.65433069850809
H            1.88003768948665       -1.02870657971464       -2.21544249028915
H            3.76905236792054       -2.73617656774708        0.03354920428092
H            6.17134856528514       -2.29954289600834        0.09903718611141
H            7.01402626080935        0.03086890084484        0.11958989948526
H            5.40967424323347        1.90753999050495        0.07067138900849
H            3.16864958064373        2.61913417931918        0.00345083813842

 projected vibrational frequencies (cm⁻¹)
eigval :       -0.00    -0.00    -0.00     0.00     0.00     0.00
eigval :       23.61    38.23    72.51    88.16   102.68   107.92
eigval :      114.52   142.60   153.77   178.77   187.35   205.99
eigval :      209.68   219.13   226.36   245.40   269.98   290.17
eigval :      294.97   310.85   320.26   328.77   341.44   356.81
eigval :      380.81   396.97   409.89   417.64   436.08   452.89
eigval :      462.18   505.84   508.85   517.23   524.24   530.91
eigval :      538.43   548.70   571.38   572.78   614.59   615.82
eigval :      637.74   641.58   662.35   674.94   680.23   717.96
eigval :      737.60   754.79   755.40   782.00   814.25   823.47
eigval :      839.25   840.16   857.84   893.66   896.03   901.51
eigval :      903.04   910.78   921.89   924.08   944.79   955.14
eigval :      965.45  1010.54  1028.37  1029.13  1056.51  1076.87
eigval :     1084.06  1085.25  1096.73  1126.29  1137.53  1140.95
eigval :     1146.64  1161.96  1167.30  1174.77  1183.64  1196.98
eigval :     1216.47  1226.33  1233.64  1245.83  1263.03  1274.66
eigval :     1291.46  1299.45  1334.58  1339.45  1349.72  1369.81
eigval :     1383.71  1391.43  1394.61  1406.04  1410.77  1413.59
eigval :     1423.32  1436.04  1453.95  1469.51  1473.05  1476.14
eigval :     1486.58  1487.79  1491.90  1493.87  1497.83  1501.91
eigval :     1504.61  1510.66  1523.62  1526.18  1551.50  1587.74
eigval :     2997.78  3025.25  3026.41  3030.91  3032.94  3033.21
eigval :     3040.75  3042.92  3043.30  3045.16  3049.37  3052.41
eigval :     3052.63  3059.30  3073.72  3074.02  3074.63  3081.03
eigval :     3082.23  3089.56  3096.76  3099.57  3422.72  3445.85

   temp. (K)  partition function   enthalpy   heat capacity  entropy
                                   cal/mol     cal/K/mol   cal/K/mol   J/K/mol
 298.15  VIB  0.665E+08            12916.904     88.313     75.745
         ROT  0.105E+08              888.752      2.981     35.114
         INT  0.700E+15            13805.657     91.294    110.859
         TR   0.608E+28             1481.254      4.968     43.350
         TOT                       15286.9105    96.2621   154.2089   645.2101

       T/K    H(0)-H(T)+PV         H(T)/Eh          T*S/Eh         G(T)/Eh
   ------------------------------------------------------------------------
    298.15    0.243612E-01    0.429847E+00    0.732696E-01    0.356578E+00
   ------------------------------------------------------------------------

         :::::::::::::::::::::::::::::::::::::::::::::::::::::
         ::                  THERMODYNAMIC                  ::
         :::::::::::::::::::::::::::::::::::::::::::::::::::::
         :: total free energy         -69.071609528569 Eh   ::
         ::.................................................::
         :: total energy              -69.428187267693 Eh   ::
         :: zero point energy           0.405486122631 Eh   ::
         :: G(RRHO) w/o ZPVE           -0.048908383507 Eh   ::
         :: G(RRHO) contrib.            0.356577739124 Eh   ::
         :::::::::::::::::::::::::::::::::::::::::::::::::::::

           -------------------------------------------------
          | TOTAL ENERGY              -69.428187267693 Eh   |
          | TOTAL ENTHALPY            -68.998339902508 Eh   |
          | TOTAL FREE ENERGY         -69.071609528569 Eh   |
          | GRADIENT NORM               0.000046737066 Eh/α |
           -------------------------------------------------

 * finished run on 2025/09/12 at 23:45:19.946
