   * xtb version 6.7.1 (edcfbbe) compiled by 'albert@albert-system' on 2024-07-22

   ID    Z sym.   atoms
    1    6 C      1-9, 11-25
    2    7 N      10, 26
    3    1 H      27-50

          program call               : xtb data2507/gas/TMDBP/TMDBP_gas_T1_crest.xyz --gfn 2 --spinpol --tblite --uhf 2 --ohess vtight --parallel 40 --molden --ceasefiles --namespace data2507/gas/TMDBP/TMDBP_gas_T1_finalOpt
 * total energy  :   -69.4281354 Eh     change       -0.5772620E-08 Eh
 * total energy  :   -69.4281737 Eh     change       -0.3823623E-04 Eh
 * total energy  :   -69.4281861 Eh     change       -0.1246587E-04 Eh
 * total energy  :   -69.4281868 Eh     change       -0.6314060E-06 Eh
 * total energy  :   -69.4281870 Eh     change       -0.2200685E-06 Eh
 * total energy  :   -69.4281870 Eh     change       -0.3365088E-08 Eh
 * total energy  :   -69.4281872 Eh     change       -0.1824132E-06 Eh
 * total energy  :   -69.4281874 Eh     change       -0.2445921E-06 Eh
 * total energy  :   -69.4281876 Eh     change       -0.1594359E-06 Eh
 * total energy  :   -69.4281877 Eh     change       -0.1256610E-06 Eh
 * total energy  :   -69.4281878 Eh     change       -0.9984232E-07 Eh
   *** GEOMETRY OPTIMIZATION CONVERGED AFTER 11 ITERATIONS ***

 final structure:
================
50
 xtb: 6.7.1 (edcfbbe)
C           -3.39597860918992        2.09698903377444       -1.26720449488166
C           -2.89123258646805        1.37711000779137        0.00166101886563
C           -3.41750740670952        2.10870397146582        1.25484407708560
C           -3.45267094490614       -0.02508995474356        0.00525179915123
C           -4.81101061485282       -0.26536650537504       -0.00489063972095
C           -5.32938729956086       -1.55634129757735        0.00704278461760
C           -4.46048010109150       -2.65297050866915        0.03283827665406
C           -3.10792802616926       -2.45112613094966        0.04283535412188
C           -2.57918284551378       -1.14070218999460        0.02644976515240
N           -1.23175193724191       -0.97411665610701        0.02769260574066
C           -0.56184908810062        0.21231850353540        0.00975146811884
C           -1.38526477302049        1.43126691893332        0.01166878807036
C           -0.72912231954890        2.65172538992239        0.01633999203566
C            0.63868116139142        2.73797179429955        0.01629501444177
C            1.43988812199622        1.52594060671531        0.00221136123315
C            0.84185143483475        0.27733873852983       -0.00358528245632
C            1.70116828856835       -0.98587034608183       -0.05727606935565
C            1.35210221257039       -1.93154843252379        1.12438685447893
C            1.47987711040951       -1.67276404027405       -1.42476121184939
C            3.19058050907843       -0.67472673772828        0.01069173104031
C            4.11511074639755       -1.70251477825242        0.02962650730506
C            5.48283338941646       -1.46015699780852        0.05893073788341
C            5.95237250175075       -0.14886561190492        0.06794975933502
C            5.06030483809185        0.89430737456562        0.04820607849972
C            3.67839029658768        0.64654765268075        0.01685323416679
N            2.79623478195030        1.68525274957938       -0.00426632651551
H           -4.48181487329291        2.10594289387074       -1.29504802684089
H           -3.03160690206902        1.58054146708445       -2.15278346810885
H           -3.04284868645712        3.12376312102502       -1.29678082084401
H           -4.50365301103617        2.11390179430399        1.26600616861686
H           -3.06894322011993        3.13713495189581        1.27939164194982
H           -3.06535449983856        1.60290044572594        2.15149892874664
H           -5.50451343629901        0.56262486617064       -0.02163444079828
H           -6.39671297139113       -1.71028571392564       -0.00183660664569
H           -4.86087329900736       -3.65588859280713        0.04448490504389
H           -2.42188368799825       -3.28741567135495        0.06226614769476
H           -0.68160838377745       -1.81864995255715        0.06422520386469
H           -1.30012474749065        3.56839040906214        0.01896460323923
H            1.14369116349442        3.69091315038694        0.01974811776981
H            0.93376813007457       -2.87784374259866        0.78266160432313
H            0.65355607344605       -1.45843645434952        1.81135209395150
H            2.24763936145424       -2.16434624735136        1.69581906984610
H            0.43096556201504       -1.85750924276650       -1.64077876721233
H            1.86888645954567       -1.02944927818055       -2.21218310174447
H            2.01466182772850       -2.61854838249343       -1.46753908806645
H            3.77491863826542       -2.72806161311531        0.02192627268842
H            6.17657859078452       -2.28622488577638        0.07206877481674
H            7.01425429939868        0.04600550398196        0.09073666164431
H            5.40542952104934        1.91916857420649        0.05641558369327
H            3.16254519475127        2.62596606315941        0.00692204225341

 projected vibrational frequencies (cm⁻¹)
eigval :       -0.00    -0.00    -0.00     0.00     0.00     0.00
eigval :       23.38    38.07    72.35    88.07   102.41   107.91
eigval :      114.26   142.66   153.73   178.34   187.54   206.17
eigval :      209.54   219.40   226.32   245.45   269.99   290.09
eigval :      294.94   310.70   319.84   328.74   341.39   356.48
eigval :      380.74   396.79   409.92   417.48   436.07   452.74
eigval :      462.03   505.70   508.54   516.26   524.18   528.65
eigval :      538.43   548.86   571.33   572.45   614.55   615.43
eigval :      636.17   641.48   661.79   674.91   679.62   718.06
eigval :      737.40   754.94   755.71   781.76   814.54   823.30
eigval :      839.25   839.96   857.70   893.53   895.80   901.38
eigval :      903.01   910.67   921.90   924.55   944.59   955.14
eigval :      965.32  1010.57  1028.09  1029.71  1056.60  1076.85
eigval :     1084.00  1085.16  1096.55  1126.29  1137.48  1140.96
eigval :     1146.85  1161.68  1167.12  1174.94  1183.83  1197.04
eigval :     1216.81  1226.55  1233.83  1245.87  1263.41  1274.86
eigval :     1291.45  1299.45  1334.60  1339.35  1349.84  1369.81
eigval :     1384.09  1391.72  1394.61  1406.13  1410.75  1413.80
eigval :     1423.45  1436.66  1454.02  1469.75  1473.38  1476.32
eigval :     1486.59  1487.89  1492.04  1493.81  1497.92  1502.34
eigval :     1504.69  1510.79  1523.50  1526.08  1551.56  1587.90
eigval :     2997.58  3025.10  3026.55  3030.87  3032.80  3033.40
eigval :     3040.67  3042.89  3043.18  3045.32  3049.06  3052.43
eigval :     3052.50  3059.40  3073.74  3074.15  3074.67  3081.14
eigval :     3082.27  3089.71  3097.00  3099.65  3423.28  3445.91

   temp. (K)  partition function   enthalpy   heat capacity  entropy
                                   cal/mol     cal/K/mol   cal/K/mol   J/K/mol
 298.15  VIB  0.681E+08            12922.109     88.324     75.786
         ROT  0.105E+08              888.752      2.981     35.114
         INT  0.717E+15            13810.861     91.305    110.900
         TR   0.608E+28             1481.254      4.968     43.350
         TOT                       15292.1152    96.2728   154.2499   645.3814

       T/K    H(0)-H(T)+PV         H(T)/Eh          T*S/Eh         G(T)/Eh
   ------------------------------------------------------------------------
    298.15    0.243695E-01    0.429845E+00    0.732891E-01    0.356556E+00
   ------------------------------------------------------------------------

         :::::::::::::::::::::::::::::::::::::::::::::::::::::
         ::                  THERMODYNAMIC                  ::
         :::::::::::::::::::::::::::::::::::::::::::::::::::::
         :: total free energy         -69.071632219150 Eh   ::
         ::.................................................::
         :: total energy              -69.428187802578 Eh   ::
         :: zero point energy           0.405475131005 Eh   ::
         :: G(RRHO) w/o ZPVE           -0.048919547577 Eh   ::
         :: G(RRHO) contrib.            0.356555583428 Eh   ::
         :::::::::::::::::::::::::::::::::::::::::::::::::::::

           -------------------------------------------------
          | TOTAL ENERGY              -69.428187802578 Eh   |
          | TOTAL ENTHALPY            -68.998343134819 Eh   |
          | TOTAL FREE ENERGY         -69.071632219150 Eh   |
          | GRADIENT NORM               0.000066156175 Eh/α |
           -------------------------------------------------

 * finished run on 2025/09/12 at 23:47:09.578
