   * xtb version 6.7.1 (edcfbbe) compiled by 'albert@albert-system' on 2024-07-22

   ID    Z sym.   atoms
    1    6 C      1-9, 11-25
    2    7 N      10, 26
    3    1 H      27-50

          program call               : xtb data2507/gas/TMDBP/TMDBP.xyz --gfn 2 --ohess vtight --parallel 40 --molden --ceasefiles --namespace data2507/gas/TMDBP/TMDBP_gas_S0_preOpt
          :  Hamiltonian                  GFN2-xTB          :
 * total energy  :   -69.5251199 Eh     change       -0.3461707E-08 Eh
 * total energy  :   -69.5338711 Eh     change       -0.8751254E-02 Eh
 * total energy  :   -69.5363926 Eh     change       -0.2521472E-02 Eh
 * total energy  :   -69.5367763 Eh     change       -0.3837303E-03 Eh
 * total energy  :   -69.5369332 Eh     change       -0.1568610E-03 Eh
 * total energy  :   -69.5370028 Eh     change       -0.6965036E-04 Eh
 * total energy  :   -69.5371037 Eh     change       -0.1008746E-03 Eh
 * total energy  :   -69.5371735 Eh     change       -0.6983265E-04 Eh
 * total energy  :   -69.5372634 Eh     change       -0.8987316E-04 Eh
 * total energy  :   -69.5373223 Eh     change       -0.5889206E-04 Eh
 * total energy  :   -69.5376180 Eh     change       -0.2937629E-04 Eh
 * total energy  :   -69.5376247 Eh     change       -0.6700951E-05 Eh
 * total energy  :   -69.5376336 Eh     change       -0.8891106E-05 Eh
 * total energy  :   -69.5376419 Eh     change       -0.8257487E-05 Eh
 * total energy  :   -69.5376349 Eh     change        0.7030847E-05 Eh
 * total energy  :   -69.5376475 Eh     change       -0.1260014E-04 Eh
 * total energy  :   -69.5376480 Eh     change       -0.5448442E-06 Eh
 * total energy  :   -69.5376482 Eh     change       -0.1424614E-06 Eh
 * total energy  :   -69.5376482 Eh     change       -0.2118682E-07 Eh
   *** GEOMETRY OPTIMIZATION CONVERGED AFTER 25 ITERATIONS ***

 final structure:
================
50
 xtb: 6.7.1 (edcfbbe)
C           -3.40413511454291        1.85811757041014       -1.26235365972626
C           -2.84192369720551        1.17934798333846        0.00012041222587
C           -3.40405045693173        1.85812438874924        1.26262884733368
C           -3.28416601997788       -0.27076358510171        0.00014312828501
C           -4.62932518748039       -0.60911666866229        0.00010431735596
C           -5.04742029321741       -1.92845927317395        0.00012364090247
C           -4.10901639299367       -2.94629745909291        0.00018430047050
C           -2.76572322113875       -2.63560348059587        0.00027084068080
C           -2.34653196521539       -1.30426066277851        0.00027181919288
N           -1.00051311882451       -1.03515649054016        0.00038235286900
C           -0.45453844976180        0.23118398979615        0.00014138762114
C           -1.32722213215734        1.32800218810392        0.00006316841483
C           -0.78142328448454        2.60231989434821       -0.00003928732451
C            0.58003272553938        2.79886240567292       -0.00012184984403
C            1.44338416595493        1.70616420203240       -0.00014556701877
C            0.94404796286885        0.40363033160702        0.00000208523154
C            1.89423153726487       -0.79001668504449       -0.00016946370780
C            1.68723291041861       -1.61539686409502        1.29530165575331
C            1.68777445541363       -1.61429758168733       -1.29633365687292
C            3.35929323706270       -0.37546753385084        0.00003064324732
C            4.35049771815799       -1.34637004908675        0.00032167841399
C            5.69342231000812       -1.01216933135966        0.00030574949918
C            6.07008757485798        0.32035165300882        0.00008994421143
C            5.10343426217521        1.30367462495706       -0.00008483973942
C            3.75022722457541        0.96412056607093       -0.00014598617787
N            2.79795975183314        1.94950047117419       -0.00034439083434
H           -4.48783630561933        1.78327852661384       -1.29100515546400
H           -3.00265477531033        1.37490254821183       -2.15116831093493
H           -3.13433475170746        2.91002274376969       -1.29271030752333
H           -3.00253684182113        1.37489671213461        2.15142214201056
H           -4.48775212417905        1.78330894432127        1.29133828550984
H           -3.13421680414627        2.91002172133448        1.29297590105569
H           -5.37714998331837        0.16981666519298        0.00007125801340
H           -6.10180028380384       -2.15998393045127        0.00009776208418
H           -4.42343677610327       -3.97949267841834        0.00017684803617
H           -2.02191952677981       -3.42097199729359        0.00030304307480
H           -0.38564181019028       -1.83031945473984        0.00086592644417
H           -1.42614507918400        3.46722886017057       -0.00003194696903
H            0.99000555756853        3.79844810851509       -0.00018878460443
H            1.96686913758019       -2.65652538725381        1.14976910855844
H            0.66691398133065       -1.57626703331697        1.66565379991811
H            2.32248930264244       -1.20611809098401        2.07935211849245
H            2.31886241784167       -1.20050083917530       -2.08132825648480
H            1.97315452676022       -2.65414985845743       -1.15311087058019
H            0.66634329157202       -1.57996290548685       -1.66393178492951
H            4.07372015363181       -2.38945215565619        0.00062458997662
H            6.44231050511215       -1.78954288241612        0.00048146263340
H            7.11519014052057        0.59229898472677        0.00011783170840
H            5.38209725076044        2.34841683503006       -0.00017100365536
H            3.10183429464364        2.91061995942723       -0.00035092683370

          :  Hamiltonian                  GFN2-xTB          :
         :: gradient norm              0.000054888773 Eh/a0 ::
         :: HOMO-LUMO gap              3.229706252966 eV    ::
         :: SCC energy               -70.757600256590 Eh    ::
         :: -> dispersion             -0.064073995694 Eh    ::
         :: repulsion energy           1.219952084069 Eh    ::

    * Orbital Energies and Occupations

         #    Occupation            Energy/Eh            Energy/eV
      -------------------------------------------------------------
         1        2.0000           -0.6599220             -17.9574
       ...           ...                  ...                  ...
        53        2.0000           -0.4348364             -11.8325
        54        2.0000           -0.4308933             -11.7252
        55        2.0000           -0.4280648             -11.6482
        56        2.0000           -0.4161615             -11.3243
        57        2.0000           -0.4108811             -11.1806
        58        2.0000           -0.4033253             -10.9750
        59        2.0000           -0.3984557             -10.8425
        60        2.0000           -0.3972885             -10.8108
        61        2.0000           -0.3929848             -10.6937
        62        2.0000           -0.3914604             -10.6522
        63        2.0000           -0.3877861             -10.5522
        64        2.0000           -0.3447902              -9.3822
        65        2.0000           -0.3373188              -9.1789 (HOMO)
        66                         -0.2186293              -5.9492 (LUMO)
        67                         -0.2168351              -5.9004
        68                         -0.2143981              -5.8341
        69                         -0.2123648              -5.7787
        70                         -0.1906739              -5.1885
        71                         -0.1734455              -4.7197
        72                         -0.0868308              -2.3628
        73                         -0.0767409              -2.0882
        74                         -0.0677821              -1.8444
        75                          0.0155416               0.4229
        76                          0.0390692               1.0631
       ...                                ...                  ...
       128                          0.6942608              18.8918
      -------------------------------------------------------------
                  HL-Gap            0.1186895 Eh            3.2297 eV

     #   Z          covCN         q      C6AA      α(0)
     1   6 C        3.761    -0.103    22.515     6.764
     2   6 C        3.908     0.023    20.135     6.378
     3   6 C        3.761    -0.103    22.515     6.764
     4   6 C        2.981    -0.013    28.344     8.733
     5   6 C        2.927    -0.036    28.907     8.817
     6   6 C        2.918    -0.047    29.156     8.855
     7   6 C        2.919    -0.033    28.829     8.805
     8   6 C        2.926    -0.064    29.601     8.922
     9   6 C        2.917     0.063    26.592     8.456
    10   7 N        2.705    -0.153    24.305     7.322
    11   6 C        2.916     0.058    26.698     8.473
    12   6 C        2.978    -0.028    28.684     8.785
    13   6 C        2.925    -0.039    28.971     8.827
    14   6 C        2.922    -0.077    29.930     8.972
    15   6 C        2.917     0.061    26.624     8.461
    16   6 C        2.974    -0.048    29.187     8.862
    17   6 C        3.904     0.021    20.171     6.384
    18   6 C        3.759    -0.107    22.604     6.778
    19   6 C        3.759    -0.107    22.603     6.778
    20   6 C        2.987    -0.015    28.370     8.737
    21   6 C        2.927    -0.038    28.944     8.823
    22   6 C        2.918    -0.047    29.168     8.856
    23   6 C        2.919    -0.033    28.824     8.804
    24   6 C        2.924    -0.063    29.572     8.918
    25   6 C        2.919     0.064    26.566     8.452
    26   7 N        2.707    -0.141    24.061     7.285
    27   1 H        0.925     0.037     2.486     2.465
    28   1 H        0.925     0.031     2.578     2.511
    29   1 H        0.925     0.037     2.483     2.464
    30   1 H        0.925     0.031     2.578     2.511
    31   1 H        0.925     0.037     2.486     2.465
    32   1 H        0.925     0.037     2.483     2.464
    33   1 H        0.926     0.027     2.624     2.533
    34   1 H        0.926     0.024     2.679     2.560
    35   1 H        0.926     0.025     2.654     2.548
    36   1 H        0.925     0.019     2.751     2.594
    37   1 H        0.860     0.179     1.219     1.730
    38   1 H        0.926     0.029     2.597     2.520
    39   1 H        0.926     0.018     2.759     2.598
    40   1 H        0.925     0.033     2.544     2.494
    41   1 H        0.925     0.039     2.461     2.453
    42   1 H        0.925     0.037     2.493     2.469
    43   1 H        0.925     0.037     2.493     2.469
    44   1 H        0.925     0.033     2.544     2.494
    45   1 H        0.925     0.039     2.461     2.453
    46   1 H        0.926     0.030     2.591     2.517
    47   1 H        0.926     0.024     2.669     2.555
    48   1 H        0.926     0.026     2.642     2.542
    49   1 H        0.925     0.020     2.736     2.587
    50   1 H        0.860     0.158     1.350     1.820

molecular dipole:
                 x           y           z       tot (Debye)
 q only:        0.160       0.117       0.000
   full:        0.310       0.159       0.000       0.886

 projected vibrational frequencies (cm⁻¹)
eigval :       -0.00    -0.00    -0.00     0.00     0.00     0.00
eigval :      -95.76    32.39    34.67    75.45    76.28    98.12
eigval :      105.97   133.70   134.30   140.80   192.90   202.69
eigval :      212.48   216.80   237.80   252.19   259.95   293.15
eigval :      295.92   313.73   331.17   338.18   352.18   383.12
eigval :      404.34   414.93   419.46   461.01   464.18   468.69
eigval :      477.08   523.30   527.72   530.15   542.35   553.69
eigval :      557.39   579.58   594.65   608.53   618.48   631.17
eigval :      667.36   686.07   695.96   698.57   729.68   776.84
eigval :      777.82   788.14   809.62   811.12   847.37   861.84
eigval :      862.52   868.53   892.46   906.58   909.53   911.54
eigval :      919.24   919.77   927.79   955.95   956.16   967.21
eigval :     1014.03  1029.75  1070.35  1083.24  1089.87  1097.44
eigval :     1108.70  1115.84  1141.52  1148.12  1156.43  1159.94
eigval :     1178.31  1183.66  1186.37  1208.67  1214.23  1222.96
eigval :     1236.98  1255.47  1257.68  1266.48  1277.83  1290.34
eigval :     1304.51  1334.66  1339.48  1340.23  1364.91  1401.96
eigval :     1404.80  1412.37  1419.54  1432.29  1440.72  1464.56
eigval :     1478.86  1487.75  1488.58  1490.81  1491.49  1497.06
eigval :     1500.71  1501.20  1506.92  1514.43  1517.43  1525.56
eigval :     1575.93  1584.68  1593.28  1593.67  1601.36  1603.54
eigval :     3019.19  3023.08  3026.14  3026.30  3028.63  3028.77
eigval :     3038.04  3040.83  3047.12  3050.81  3051.77  3052.28
eigval :     3058.19  3063.49  3070.28  3076.60  3079.52  3082.39
eigval :     3088.30  3094.25  3095.01  3098.61  3448.71  3496.60

   temp. (K)  partition function   enthalpy   heat capacity  entropy
                                   cal/mol     cal/K/mol   cal/K/mol   J/K/mol
 298.15  VIB  0.240E+08            12147.902     83.585     71.391
         ROT  0.104E+08              888.752      2.981     35.095
         INT  0.251E+15            13036.654     86.566    106.486
         TR   0.608E+28             1481.254      4.968     43.350
         TOT                       14517.9083    91.5339   149.8366   626.9164

       T/K    H(0)-H(T)+PV         H(T)/Eh          T*S/Eh         G(T)/Eh
   ------------------------------------------------------------------------
    298.15    0.231358E-01    0.434643E+00    0.711922E-01    0.363450E+00
   ------------------------------------------------------------------------

         :::::::::::::::::::::::::::::::::::::::::::::::::::::
         ::                  THERMODYNAMIC                  ::
         :::::::::::::::::::::::::::::::::::::::::::::::::::::
         :: total free energy         -69.174197679798 Eh   ::
         ::.................................................::
         :: total energy              -69.537648172525 Eh   ::
         :: zero point energy           0.411506942393 Eh   ::
         :: G(RRHO) w/o ZPVE           -0.048056449666 Eh   ::
         :: G(RRHO) contrib.            0.363450492727 Eh   ::
         :::::::::::::::::::::::::::::::::::::::::::::::::::::

           -------------------------------------------------
          | TOTAL ENERGY              -69.537648172525 Eh   |
          | TOTAL ENTHALPY            -69.103005470574 Eh   |
          | TOTAL FREE ENERGY         -69.174197679798 Eh   |
          | GRADIENT NORM               0.000054862804 Eh/α |
          | HOMO-LUMO GAP               3.229706376465 eV   |
           -------------------------------------------------

 * finished run on 2025/09/12 at 23:43:43.873
