   * xtb version 6.7.1 (edcfbbe) compiled by 'albert@albert-system' on 2024-07-22

   ID    Z sym.   atoms
    1    6 C      1-5, 7-9, 11-13, 15, 16, 20-31
    2    7 N      6, 10, 14
    3    8 O      17, 19
    4   16 S      18
    5    1 H      32-54

          program call               : xtb data2507/toluene/DMDHNP-DPS/DMDHNP-DPS_toluene_S0_crest.xyz --gfn 2 --gbsa toluene --ohess vtight --parallel 40 --molden --ceasefiles --namespace data2507/toluene/DMDHNP-DPS/DMDHNP-DPS_toluene_S0_finalOpt
      * Solvation model:               GBSA
        Solvent                        toluene
        Solvent mass                       9.2140E+01 g/mol
          :  Hamiltonian                  GFN2-xTB          :
 * total energy  :   -85.1741500 Eh     change       -0.1102578E-08 Eh
 * total energy  :   -85.1751884 Eh     change       -0.1038442E-02 Eh
 * total energy  :   -85.1758849 Eh     change       -0.6964862E-03 Eh
 * total energy  :   -85.1761715 Eh     change       -0.2865862E-03 Eh
 * total energy  :   -85.1763719 Eh     change       -0.2004115E-03 Eh
 * total energy  :   -85.1764341 Eh     change       -0.6221406E-04 Eh
 * total energy  :   -85.1764567 Eh     change       -0.2260068E-04 Eh
 * total energy  :   -85.1764679 Eh     change       -0.1125532E-04 Eh
 * total energy  :   -85.1764634 Eh     change        0.4529542E-05 Eh
 * total energy  :   -85.1764728 Eh     change       -0.9336467E-05 Eh
 * total energy  :   -85.1764739 Eh     change       -0.1168764E-05 Eh
 * total energy  :   -85.1764748 Eh     change       -0.8303573E-06 Eh
 * total energy  :   -85.1764752 Eh     change       -0.4175470E-06 Eh
 * total energy  :   -85.1764754 Eh     change       -0.2074357E-06 Eh
 * total energy  :   -85.1764754 Eh     change        0.2912546E-07 Eh
 * total energy  :   -85.1764755 Eh     change       -0.1050706E-06 Eh
 * total energy  :   -85.1764755 Eh     change       -0.2975848E-07 Eh
   *** GEOMETRY OPTIMIZATION CONVERGED AFTER 17 ITERATIONS ***

 final structure:
================
54
 xtb: 6.7.1 (edcfbbe)
C           -2.47337870415392        2.72843270981312       -1.35268393441887
C            0.42259040450725        0.34474743485013       -0.05179418466399
C           -0.63357558141984        2.85903691289524        0.64855608620764
C            1.67075200197686       -0.10323175842790       -0.70999562464941
C            2.60085048648035        1.61860073337011        0.16367794815106
N            4.04232108173346        1.29475506557371        0.22866475509860
C            4.34251035222872       -0.71100052552451       -0.59185195752241
C            3.34241140875721       -1.80656558374025       -0.78713689177197
C            2.03487497895605       -1.51107848475403       -0.81740115277408
N            0.98103827574639       -2.39636300002528       -0.79803852204030
C           -0.32648157697391       -2.06170457238328       -0.48321738776081
C           -1.31018861993844       -2.94230596010645       -0.71037954128715
C           -3.14178829452782       -2.24842377088817        0.90981823079343
N           -3.39363238893677       -0.92575388470675        1.46525838187147
C           -2.41841504043397        0.11779974856752        1.03827591182899
C           -0.61713687549034       -0.72714537388175        0.13953745974668
O           -1.72926877851114        3.06594751519336        1.44041330142752
S           -0.87910712515046        1.65899330081545       -0.79799186931865
O           -3.61031144913455        2.75493410422608       -0.52062895532703
C            1.69425482333880        0.50522854319797        0.72510118851949
C            2.19153813874684       -0.24682664620827        1.87563662195596
C            3.49572306385877       -0.51489055954713        1.90589901958266
C            4.39433367107292       -0.02559827147393        0.82634929937826
C            3.99630739604061        0.69230612926361       -1.12934508729716
C            2.51169370441791        1.02570761396832       -1.25689125339835
C           -1.85138053997379        0.09649837291430       -0.39097815152432
C           -1.23629458617533       -0.69496740190028        1.55784244678808
C           -2.25650554066967       -1.75005455407626        1.97371496565778
C           -2.77327282440945       -2.64759446342127       -0.51107830576417
C           -3.17160752194329       -1.61414621921126       -1.53278437890218
C           -2.72624061797379       -0.36704458781548       -1.48407646747226
H           -2.71511272744864        2.39210061344918       -2.36319438082372
H           -4.03804876300457        1.89094652010100       -0.54178014838812
H           -2.10551675350059        3.75264618444468       -1.42222316316894
H           -2.48168692259591        3.37101377831112        0.90070543506367
H            0.15460013051467        2.43523497991465        1.26715335244863
H           -0.28622299632623        3.76940150174722        0.14702470789614
H            2.40025325288271        2.65385322102134        0.43715307603058
H            5.33363009660139       -1.04618401971333       -0.90158581411589
H            3.70374935186517       -2.82202580522306       -0.84002700642550
H            1.16711488684019       -3.36735078843861       -0.99965725522614
H           -1.06834903159318       -3.89945362586247       -1.14984332100605
H           -3.91221639978559       -2.90002131695094        1.31972644836424
H           -2.71433292636530        1.06904128615307        1.46783028363395
H            1.52473316357882       -0.57134086767969        2.66050664404727
H            3.95036630532650       -1.04299578821453        2.73091727940872
H            5.42325479199643        0.03475320517586        1.19494773787887
H            4.66707964133617        1.11677881618311       -1.87502262993651
H            2.16031761307383        1.55068593272213       -2.13995003812058
H           -0.60518244444481       -0.33529702143299        2.36259602411447
H           -2.26556184759646       -2.17799824504417        2.96617333499991
H           -3.32742726897563       -3.56625903025788       -0.71878329708966
H           -3.79691791937382       -1.93902799246774       -2.35054326816948
H           -2.97560424195078        0.33383367940613       -2.26441429843053

          :  Hamiltonian                  GFN2-xTB          :
         :: gradient norm              0.000056790082 Eh/a0 ::
         :: HOMO-LUMO gap              2.692960522119 eV    ::
         :: SCC energy               -86.264743813697 Eh    ::
         :: -> dispersion             -0.083280527447 Eh    ::
         :: -> Gsolv                  -0.026230287687 Eh    ::
         :: repulsion energy           1.088268327249 Eh    ::

    * Orbital Energies and Occupations

         #    Occupation            Energy/Eh            Energy/eV
      -------------------------------------------------------------
         1        2.0000           -0.7461520             -20.3038
       ...           ...                  ...                  ...
        66        2.0000           -0.4322639             -11.7625
        67        2.0000           -0.4293094             -11.6821
        68        2.0000           -0.4244357             -11.5495
        69        2.0000           -0.4153486             -11.3022
        70        2.0000           -0.4048032             -11.0153
        71        2.0000           -0.4040573             -10.9950
        72        2.0000           -0.4039518             -10.9921
        73        2.0000           -0.3961014             -10.7785
        74        2.0000           -0.3755380             -10.2189
        75        2.0000           -0.3713162             -10.1040
        76        2.0000           -0.3570528              -9.7159
        77        2.0000           -0.3471244              -9.4457
        78        2.0000           -0.3333942              -9.0721 (HOMO)
        79                         -0.2344297              -6.3792 (LUMO)
        80                         -0.2266363              -6.1671
        81                         -0.2231644              -6.0726
        82                         -0.2090532              -5.6886
        83                         -0.1882383              -5.1222
        84                         -0.1720108              -4.6807
        85                         -0.1380502              -3.7565
        86                         -0.1249526              -3.4001
        87                         -0.0969972              -2.6394
        88                         -0.0503537              -1.3702
        89                         -0.0488557              -1.3294
       ...                                ...                  ...
       152                          0.6508379              17.7102
      -------------------------------------------------------------
                  HL-Gap            0.0989646 Eh            2.6930 eV

     #   Z          covCN         q      C6AA      α(0)
     1   6 C        3.625     0.016    20.741     6.563
     2   6 C        3.918    -0.073    21.837     6.642
     3   6 C        3.660     0.104    19.131     6.276
     4   6 C        4.158     0.008    20.359     6.408
     5   6 C        4.267     0.051    19.639     6.294
     6   7 N        2.925    -0.239    26.236     7.608
     7   6 C        3.939    -0.019    20.852     6.489
     8   6 C        2.908    -0.099    30.489     9.054
     9   6 C        2.889     0.059    26.679     8.468
    10   7 N        2.702    -0.154    24.331     7.326
    11   6 C        2.881     0.055    26.760     8.480
    12   6 C        2.913    -0.092    30.299     9.026
    13   6 C        3.798     0.050    19.737     6.326
    14   7 N        2.816    -0.265    26.850     7.696
    15   6 C        4.262     0.054    19.581     6.284
    16   6 C        4.229     0.020    20.151     6.375
    17   8 O        1.659    -0.423    21.304     6.231
    18  16 S        3.967    -0.023   142.022    20.058
    19   8 O        1.655    -0.455    21.951     6.325
    20   6 C        4.058    -0.007    20.626     6.451
    21   6 C        2.895    -0.039    28.970     8.825
    22   6 C        2.906    -0.048    29.195     8.860
    23   6 C        4.042     0.050    19.658     6.298
    24   6 C        4.303     0.049    19.664     6.298
    25   6 C        4.111    -0.027    20.978     6.505
    26   6 C        4.091     0.034    19.924     6.340
    27   6 C        4.105    -0.024    20.922     6.497
    28   6 C        4.084     0.036    19.892     6.335
    29   6 C        3.861    -0.015    20.810     6.487
    30   6 C        2.906    -0.032    28.800     8.800
    31   6 C        2.909    -0.050    29.249     8.868
    32   1 H        0.924     0.016     2.793     2.613
    33   1 H        0.805     0.300     0.720     1.333
    34   1 H        0.924     0.034     2.525     2.485
    35   1 H        0.804     0.338     0.618     1.235
    36   1 H        0.925     0.078     1.998     2.210
    37   1 H        0.924     0.057     2.239     2.340
    38   1 H        0.925     0.023     2.681     2.561
    39   1 H        0.924     0.027     2.626     2.534
    40   1 H        0.926     0.015     2.806     2.620
    41   1 H        0.860     0.162     1.320     1.800
    42   1 H        0.926     0.024     2.666     2.554
    43   1 H        0.925     0.040     2.444     2.445
    44   1 H        0.925     0.055     2.256     2.349
    45   1 H        0.926     0.022     2.710     2.574
    46   1 H        0.926     0.025     2.657     2.549
    47   1 H        0.924     0.032     2.564     2.504
    48   1 H        0.925     0.027     2.624     2.533
    49   1 H        0.925     0.030     2.590     2.516
    50   1 H        0.925     0.032     2.564     2.504
    51   1 H        0.926     0.028     2.610     2.526
    52   1 H        0.924     0.043     2.403     2.424
    53   1 H        0.926     0.043     2.405     2.425
    54   1 H        0.926     0.047     2.359     2.402

molecular dipole:
                 x           y           z       tot (Debye)
 q only:       -0.285      -0.632      -0.736
   full:       -0.344      -1.215      -0.805       3.807

 projected vibrational frequencies (cm⁻¹)
eigval :       -0.00    -0.00    -0.00    -0.00     0.00     0.00
eigval :       49.83    66.25    81.47    86.77   106.99   134.34
eigval :      145.62   151.61   189.39   199.55   207.91   220.85
eigval :      233.67   243.78   262.78   271.23   287.48   293.84
eigval :      312.34   326.29   349.72   362.96   383.21   403.73
eigval :      412.75   417.79   443.87   452.62   461.24   464.99
eigval :      483.46   497.58   521.32   522.88   533.93   542.86
eigval :      551.98   557.59   590.22   592.87   609.18   630.91
eigval :      646.69   680.36   704.11   713.03   723.87   741.09
eigval :      745.16   758.31   760.50   763.54   785.16   792.73
eigval :      794.61   806.72   814.10   819.96   836.83   853.68
eigval :      861.27   877.15   889.28   892.45   895.44   903.90
eigval :      911.64   911.76   938.28   960.44   964.69   974.45
eigval :      991.30   996.30  1019.47  1048.07  1050.41  1055.43
eigval :     1059.20  1065.14  1071.91  1085.05  1089.01  1092.47
eigval :     1099.31  1101.10  1110.90  1115.84  1123.31  1140.29
eigval :     1145.88  1148.22  1157.08  1162.44  1169.77  1171.07
eigval :     1181.50  1181.96  1187.10  1192.67  1202.80  1203.72
eigval :     1208.02  1218.34  1222.63  1225.10  1231.11  1236.91
eigval :     1242.70  1246.68  1252.45  1262.46  1275.42  1278.79
eigval :     1285.27  1293.16  1316.02  1318.05  1318.93  1335.19
eigval :     1341.12  1344.44  1350.12  1377.33  1399.11  1428.58
eigval :     1447.25  1468.09  1478.07  1659.00  1670.93  1680.94
eigval :     1696.43  2899.70  2924.34  2940.40  2955.74  2961.45
eigval :     2961.63  2973.05  2987.28  2989.71  3003.98  3018.18
eigval :     3033.84  3041.37  3050.98  3061.05  3063.27  3075.72
eigval :     3076.41  3077.87  3098.95  3333.81  3430.23  3534.10

   temp. (K)  partition function   enthalpy   heat capacity  entropy
                                   cal/mol     cal/K/mol   cal/K/mol   J/K/mol
 298.15  VIB  0.557E+07            12674.050     94.455     72.287
         ROT  0.124E+08              888.752      2.981     35.436
         INT  0.690E+14            13562.802     97.436    107.723
         TR   0.861E+28             1481.254      4.968     44.043
         TOT                       15044.0560   102.4038   151.7660   634.9891

       T/K    H(0)-H(T)+PV         H(T)/Eh          T*S/Eh         G(T)/Eh
   ------------------------------------------------------------------------
    298.15    0.239742E-01    0.446349E+00    0.721089E-01    0.374241E+00
   ------------------------------------------------------------------------

         :::::::::::::::::::::::::::::::::::::::::::::::::::::
         ::                  THERMODYNAMIC                  ::
         :::::::::::::::::::::::::::::::::::::::::::::::::::::
         :: total free energy         -84.802234938249 Eh   ::
         ::.................................................::
         :: total energy              -85.176475490093 Eh   ::
         :: zero point energy           0.422375264571 Eh   ::
         :: G(RRHO) w/o ZPVE           -0.048134712728 Eh   ::
         :: G(RRHO) contrib.            0.374240551844 Eh   ::
         :::::::::::::::::::::::::::::::::::::::::::::::::::::

           -------------------------------------------------
          | TOTAL ENERGY              -85.176475490093 Eh   |
          | TOTAL ENTHALPY            -84.730125996230 Eh   |
          | TOTAL FREE ENERGY         -84.802234938249 Eh   |
          | GRADIENT NORM               0.000056837171 Eh/α |
          | HOMO-LUMO GAP               2.692962752257 eV   |
           -------------------------------------------------

 * finished run on 2025/07/16 at 14:07:30.037
