   * xtb version 6.7.1 (edcfbbe) compiled by 'albert@albert-system' on 2024-07-22

   ID    Z sym.   atoms
    1    6 C      1-5, 7-9, 11-13, 15, 16, 20-31
    2    7 N      6, 10, 14
    3    8 O      17, 19
    4   16 S      18
    5    1 H      32-54

          program call               : xtb data2507/toluene/DMDHNP-DPS/DMDHNP-DPS.xyz --gfn 2 --gbsa toluene --ohess vtight --parallel 40 --molden --ceasefiles --namespace data2507/toluene/DMDHNP-DPS/DMDHNP-DPS_toluene_S0_preOpt
      * Solvation model:               GBSA
        Solvent                        toluene
        Solvent mass                       9.2140E+01 g/mol
          :  Hamiltonian                  GFN2-xTB          :
 * total energy  :   -37.1201887 Eh     change       -0.3959954E-08 Eh
 * total energy  :   -66.9967771 Eh     change       -0.2987659E+02 Eh
 * total energy  :   -73.7098051 Eh     change       -0.6713028E+01 Eh
 * total energy  :   -76.9917182 Eh     change       -0.3281913E+01 Eh
 * total energy  :   -79.5337952 Eh     change       -0.2542077E+01 Eh
 * total energy  :   -81.1109125 Eh     change       -0.1577117E+01 Eh
 * total energy  :   -82.1792634 Eh     change       -0.1068351E+01 Eh
 * total energy  :   -82.9495361 Eh     change       -0.7702727E+00 Eh
 * total energy  :   -83.5089951 Eh     change       -0.5594589E+00 Eh
 * total energy  :   -83.9150941 Eh     change       -0.4060990E+00 Eh
 * total energy  :   -85.1582591 Eh     change       -0.9383072E-06 Eh
 * total energy  :   -85.1582599 Eh     change       -0.7615759E-06 Eh
 * total energy  :   -85.1582607 Eh     change       -0.8159298E-06 Eh
 * total energy  :   -85.1582617 Eh     change       -0.9959560E-06 Eh
 * total energy  :   -85.1582627 Eh     change       -0.1041955E-05 Eh
 * total energy  :   -85.1582635 Eh     change       -0.7570601E-06 Eh
 * total energy  :   -85.1582639 Eh     change       -0.3694372E-06 Eh
 * total energy  :   -85.1582640 Eh     change       -0.1724491E-06 Eh
 * total energy  :   -85.1582641 Eh     change       -0.5289320E-07 Eh
   *** GEOMETRY OPTIMIZATION CONVERGED AFTER 84 ITERATIONS ***

 final structure:
================
54
 xtb: 6.7.1 (edcfbbe)
C            1.00668366662155        3.33309554266652        0.36376733325509
C            0.24130028643934        0.41655300374362        0.24781758451314
C           -0.45706754685175        2.48096264928757       -1.82102319475821
C            1.40494316554661       -0.20082289664693       -0.44483269507787
C            2.69041062915361        0.88130368697094        0.89916702316280
N            3.94438260877457        0.10604304316490        0.95852038961214
C            3.77192849744803       -1.64304043015472       -0.33339007300030
C            2.53126341943152       -2.28290839580106       -0.85527885908966
C            1.37693636182088       -1.60006888467697       -0.88033035160641
N            0.14077117760460       -2.13298155252928       -1.14553979399654
C           -1.05659455657729       -1.60947129382608       -0.67677493033263
C           -2.20490679260562       -2.19285630366389       -1.04238845016999
C           -3.89608192315906       -1.40064711092570        0.68681003626378
N           -3.87515895136434       -0.16965912364229        1.46221841054568
C           -2.68026865305997        0.69012581358442        1.17924789086152
C           -1.05778353923377       -0.38374001072098        0.18131570018853
O           -1.27352364872450        3.51921309592084       -2.18674113587730
S           -0.52329805083869        2.11980484081080        0.02285242878505
O            0.53089886768448        4.59366329345850       -0.01515336732695
C            1.42107273709729        0.03181400186201        1.09730060535549
C            1.51887119468708       -1.08527647219737        2.04013374011591
C            2.66666118023908       -1.76055252967053        2.06586127788405
C            3.81681422155250       -1.35498904780689        1.21536112798434
C            3.90994407817697       -0.12120389990491       -0.50725932491188
C            2.61652905016713        0.68541018846827       -0.63126635733053
C           -2.04001459232183        0.75994473473402       -0.20731806949241
C           -1.72301987806834       -0.42891397813230        1.58030867392124
C           -2.95705943159284       -1.28982121321317        1.81545240912780
C           -3.57323490271774       -1.62525004335807       -0.78339844356197
C           -3.70981383667051       -0.36565818215606       -1.60219755977504
C           -2.97185994836680        0.70540150925632       -1.34897682444469
H            1.92997304323142        3.17682366038764       -0.18194627783843
H           -0.35207150427809        4.71641404017373        0.35808918580764
H            1.17619058352637        3.28364173582112        1.44566708720592
H           -2.20229537671233        3.28656094459148       -2.04473761682354
H            0.56408164435695        2.77843930053374       -2.04636166692936
H           -0.70954999974512        1.52841955672129       -2.29702179254549
H            2.78213799941592        1.81790452522294        1.44080225588282
H            4.65599054901642       -2.18997235041518       -0.66187713005547
H            2.57194449069079       -3.32444791902360       -1.13236612779445
H            0.10647181824192       -3.07241198396419       -1.51363759611273
H           -2.16389496776912       -3.07536327082542       -1.66537925890592
H           -4.79723397071258       -1.93702173846008        0.98196642454991
H           -2.77631791505854        1.62389027474392        1.73269476961142
H            0.69152393508583       -1.35510384190308        2.67604616207494
H            2.81848052683218       -2.58573937635005        2.74468633451659
H            4.75328255614726       -1.70708433630580        1.65780551408317
H            4.76324234618785        0.24082436131057       -1.07844527240493
H            2.57914465431861        1.46396394455598       -1.38608112672098
H           -1.07479450360325       -0.33274503790864        2.44416703522640
H           -3.08708932433486       -1.87209280795669        2.71756365394460
H           -4.30678983250451       -2.35113447951278       -1.14458985784683
H           -4.40600644377666       -0.38387634150553       -2.42837292271301
H           -3.10614319882318        1.59463510510725       -1.95293897712090

          :  Hamiltonian                  GFN2-xTB          :
         :: gradient norm              0.000093570165 Eh/a0 ::
         :: HOMO-LUMO gap              2.406768169430 eV    ::
         :: SCC energy               -86.246441281214 Eh    ::
         :: -> dispersion             -0.083123343747 Eh    ::
         :: -> Gsolv                  -0.027968027606 Eh    ::
         :: repulsion energy           1.088177196401 Eh    ::

    * Orbital Energies and Occupations

         #    Occupation            Energy/Eh            Energy/eV
      -------------------------------------------------------------
         1        2.0000           -0.7468904             -20.3239
       ...           ...                  ...                  ...
        66        2.0000           -0.4351535             -11.8411
        67        2.0000           -0.4298153             -11.6959
        68        2.0000           -0.4208066             -11.4507
        69        2.0000           -0.4164296             -11.3316
        70        2.0000           -0.4143636             -11.2754
        71        2.0000           -0.4088818             -11.1262
        72        2.0000           -0.3973119             -10.8114
        73        2.0000           -0.3907857             -10.6338
        74        2.0000           -0.3830070             -10.4222
        75        2.0000           -0.3678362             -10.0093
        76        2.0000           -0.3637244              -9.8974
        77        2.0000           -0.3498270              -9.5193
        78        2.0000           -0.3309251              -9.0049 (HOMO)
        79                         -0.2424779              -6.5982 (LUMO)
        80                         -0.2378586              -6.4725
        81                         -0.2198657              -5.9828
        82                         -0.2082581              -5.6670
        83                         -0.1815376              -4.9399
        84                         -0.1752232              -4.7681
        85                         -0.1348429              -3.6693
        86                         -0.1165841              -3.1724
        87                         -0.1136040              -3.0913
        88                         -0.0636835              -1.7329
        89                         -0.0478678              -1.3025
       ...                                ...                  ...
       152                          0.6376184              17.3505
      -------------------------------------------------------------
                  HL-Gap            0.0884472 Eh            2.4068 eV

     #   Z          covCN         q      C6AA      α(0)
     1   6 C        3.633     0.023    20.574     6.529
     2   6 C        3.929     0.022    20.138     6.378
     3   6 C        3.663     0.110    19.031     6.258
     4   6 C        4.138     0.007    20.378     6.411
     5   6 C        4.256     0.052    19.624     6.291
     6   7 N        2.930    -0.232    26.079     7.585
     7   6 C        3.945    -0.019    20.851     6.489
     8   6 C        2.907    -0.098    30.466     9.051
     9   6 C        2.889     0.059    26.686     8.469
    10   7 N        2.704    -0.160    24.453     7.344
    11   6 C        2.882     0.052    26.835     8.492
    12   6 C        2.915    -0.087    30.191     9.010
    13   6 C        3.799     0.053    19.690     6.318
    14   7 N        2.817    -0.267    26.893     7.702
    15   6 C        4.256     0.056    19.563     6.282
    16   6 C        4.239     0.014    20.246     6.390
    17   8 O        1.662    -0.402    20.879     6.168
    18  16 S        3.958    -0.010   141.473    20.019
    19   8 O        1.663    -0.443    21.696     6.288
    20   6 C        4.063    -0.001    20.518     6.434
    21   6 C        2.895    -0.040    28.988     8.828
    22   6 C        2.905    -0.045    29.105     8.846
    23   6 C        4.042     0.047    19.705     6.306
    24   6 C        4.305     0.049    19.664     6.298
    25   6 C        4.113    -0.024    20.913     6.495
    26   6 C        4.041    -0.082    21.982     6.660
    27   6 C        4.134    -0.024    20.916     6.496
    28   6 C        4.080     0.035    19.899     6.336
    29   6 C        3.862    -0.012    20.749     6.478
    30   6 C        2.905    -0.036    28.902     8.815
    31   6 C        2.892    -0.039    28.972     8.825
    32   1 H        0.925     0.033     2.542     2.493
    33   1 H        0.805     0.297     0.729     1.341
    34   1 H        0.924     0.008     2.928     2.676
    35   1 H        0.805     0.320     0.665     1.281
    36   1 H        0.925     0.084     1.937     2.177
    37   1 H        0.924     0.059     2.207     2.323
    38   1 H        0.925     0.037     2.493     2.469
    39   1 H        0.924     0.037     2.491     2.468
    40   1 H        0.926     0.025     2.651     2.546
    41   1 H        0.860     0.166     1.299     1.785
    42   1 H        0.926     0.021     2.721     2.580
    43   1 H        0.925     0.031     2.566     2.505
    44   1 H        0.925     0.021     2.720     2.579
    45   1 H        0.926     0.034     2.525     2.485
    46   1 H        0.926     0.038     2.481     2.463
    47   1 H        0.924     0.041     2.434     2.440
    48   1 H        0.925     0.035     2.518     2.481
    49   1 H        0.925     0.029     2.598     2.521
    50   1 H        0.925     0.022     2.702     2.571
    51   1 H        0.925     0.020     2.739     2.588
    52   1 H        0.924     0.034     2.535     2.490
    53   1 H        0.926     0.028     2.620     2.531
    54   1 H        0.925     0.023     2.690     2.565

molecular dipole:
                 x           y           z       tot (Debye)
 q only:        0.143      -1.106      -0.715
   full:        0.169      -1.872      -0.803       5.197

 projected vibrational frequencies (cm⁻¹)
eigval :       -0.00    -0.00    -0.00    -0.00     0.00     0.00
eigval :       30.65    52.89    66.61    89.93   123.78   124.45
eigval :      140.84   162.75   167.71   186.73   203.36   206.76
eigval :      211.55   231.55   243.81   265.50   272.66   279.77
eigval :      292.38   323.02   329.60   339.32   353.31   367.87
eigval :      384.13   405.88   417.45   430.49   457.14   463.21
eigval :      486.76   500.13   523.04   528.76   533.65   539.93
eigval :      554.96   560.11   585.23   606.64   630.87   632.97
eigval :      645.40   682.24   706.89   713.59   718.00   739.33
eigval :      744.66   759.24   761.72   765.86   781.77   791.22
eigval :      794.36   811.59   813.94   820.88   832.28   848.29
eigval :      864.22   878.41   884.40   890.90   898.87   901.85
eigval :      913.37   919.97   934.69   959.74   962.73   976.24
eigval :      990.92   997.43  1027.35  1048.28  1056.28  1064.29
eigval :     1067.80  1068.83  1076.09  1082.96  1084.90  1090.42
eigval :     1092.03  1104.36  1108.19  1112.35  1118.14  1120.82
eigval :     1141.81  1148.86  1152.19  1163.45  1164.44  1172.81
eigval :     1181.84  1185.63  1188.57  1191.71  1198.05  1204.64
eigval :     1212.13  1216.30  1223.66  1226.00  1226.98  1239.09
eigval :     1241.77  1245.41  1251.44  1263.59  1276.20  1281.34
eigval :     1283.91  1296.88  1309.80  1315.36  1320.78  1338.50
eigval :     1341.59  1349.34  1354.82  1373.06  1403.28  1409.93
eigval :     1429.10  1447.79  1465.18  1659.28  1672.05  1682.48
eigval :     1692.43  2885.64  2921.48  2934.07  2952.31  2964.08
eigval :     2971.84  2981.51  2982.42  3002.62  3010.68  3015.52
eigval :     3027.28  3030.08  3040.63  3044.19  3059.59  3063.25
eigval :     3079.59  3088.18  3096.94  3425.07  3455.30  3490.91

   temp. (K)  partition function   enthalpy   heat capacity  entropy
                                   cal/mol     cal/K/mol   cal/K/mol   J/K/mol
 298.15  VIB  0.193E+08            12976.678     94.420     74.457
         ROT  0.126E+08              888.752      2.981     35.472
         INT  0.243E+15            13865.430     97.401    109.929
         TR   0.861E+28             1481.254      4.968     44.043
         TOT                       15346.6838   102.3689   153.9718   644.2178

       T/K    H(0)-H(T)+PV         H(T)/Eh          T*S/Eh         G(T)/Eh
   ------------------------------------------------------------------------
    298.15    0.244565E-01    0.445924E+00    0.731570E-01    0.372767E+00
   ------------------------------------------------------------------------

         :::::::::::::::::::::::::::::::::::::::::::::::::::::
         ::                  THERMODYNAMIC                  ::
         :::::::::::::::::::::::::::::::::::::::::::::::::::::
         :: total free energy         -84.785497068220 Eh   ::
         ::.................................................::
         :: total energy              -85.158264084173 Eh   ::
         :: zero point energy           0.421467470035 Eh   ::
         :: G(RRHO) w/o ZPVE           -0.048700454083 Eh   ::
         :: G(RRHO) contrib.            0.372767015952 Eh   ::
         :::::::::::::::::::::::::::::::::::::::::::::::::::::

           -------------------------------------------------
          | TOTAL ENERGY              -85.158264084173 Eh   |
          | TOTAL ENTHALPY            -84.712340116730 Eh   |
          | TOTAL FREE ENERGY         -84.785497068220 Eh   |
          | GRADIENT NORM               0.000093451230 Eh/α |
          | HOMO-LUMO GAP               2.406769844997 eV   |
           -------------------------------------------------

 * finished run on 2025/07/16 at 14:00:05.421
