   * xtb version 6.7.1 (edcfbbe) compiled by 'albert@albert-system' on 2024-07-22

   ID    Z sym.   atoms
    1    6 C      1-5, 7-9, 11-13, 15, 16, 20-31
    2    7 N      6, 10, 14
    3    8 O      17, 19
    4   16 S      18
    5    1 H      32-54

          program call               : xtb data2507/toluene/DMDHNP-DPS/DMDHNP-DPS_toluene_T1_crest.xyz --gfn 2 --uhf 2 --gbsa toluene --ohess vtight --parallel 40 --molden --ceasefiles --namespace data2507/toluene/DMDHNP-DPS/DMDHNP-DPS_toluene_T1_finalOpt
      * Solvation model:               GBSA
        Solvent                        toluene
        Solvent mass                       9.2140E+01 g/mol
          :  Hamiltonian                  GFN2-xTB          :
 * total energy  :   -85.1226195 Eh     change       -0.3846779E-08 Eh
 * total energy  :   -85.1231929 Eh     change       -0.5734025E-03 Eh
 * total energy  :   -85.1235335 Eh     change       -0.3406136E-03 Eh
 * total energy  :   -85.1236751 Eh     change       -0.1415949E-03 Eh
 * total energy  :   -85.1237584 Eh     change       -0.8325203E-04 Eh
 * total energy  :   -85.1238270 Eh     change       -0.6869537E-04 Eh
 * total energy  :   -85.1239143 Eh     change       -0.8722063E-04 Eh
 * total energy  :   -85.1247823 Eh     change       -0.8680635E-03 Eh
 * total energy  :   -85.1205291 Eh     change        0.4253278E-02 Eh
 * total energy  :   -85.1283810 Eh     change       -0.7851945E-02 Eh
 * total energy  :   -85.1602725 Eh     change       -0.4842529E-05 Eh
 * total energy  :   -85.1602770 Eh     change       -0.4556665E-05 Eh
 * total energy  :   -85.1602792 Eh     change       -0.2237841E-05 Eh
 * total energy  :   -85.1602791 Eh     change        0.1847244E-06 Eh
 * total energy  :   -85.1602805 Eh     change       -0.1404328E-05 Eh
 * total energy  :   -85.1602808 Eh     change       -0.3034608E-06 Eh
 * total energy  :   -85.1602810 Eh     change       -0.2310979E-06 Eh
 * total energy  :   -85.1602812 Eh     change       -0.1701887E-06 Eh
 * total energy  :   -85.1602813 Eh     change       -0.8573062E-07 Eh
   *** GEOMETRY OPTIMIZATION CONVERGED AFTER 41 ITERATIONS ***

 final structure:
================
54
 xtb: 6.7.1 (edcfbbe)
C           -0.88424792934929        3.46463507290029        1.05948890143707
C            0.61130801559642        0.22293877808663        0.01349959099673
C           -2.44967010597131        2.77867684644210       -1.58204302740840
C            1.54808346258593       -0.17300929304321       -1.02503389596662
C            2.66448191262234        1.46035849070246        0.22728459208703
N            4.05677606327208        0.94403609084684        0.29352941140508
C            4.24598464396216       -0.97735205351752       -0.77399512403204
C            3.20304785098794       -1.93250231066670       -1.17357625429365
C            1.87590414845806       -1.52653778192808       -1.01825199625332
N            0.86289336848594       -2.40629998545441       -0.70892448654569
C           -0.42057125653291       -2.00715623019229       -0.36666146497498
C           -1.44078599988729       -2.86016949992634       -0.51957871737342
C           -3.24530665281866       -1.97212354971609        1.03586636329565
N           -3.43863051701301       -0.60125285771583        1.48037212354788
C           -2.41579891407494        0.35436425540090        0.97414589568842
C           -0.60311093146861       -0.61432460452400        0.18860040478663
O           -3.55060029353077        2.82904217698024       -0.75141977166619
S           -0.97007664996314        1.82446175557605       -0.88665591136382
O           -0.64875395332355        2.85535238543704        2.08307941907757
C            1.53787911881831        0.82213407969986        1.07366940146110
C            2.02473224168560       -0.33991113604732        1.88414151515806
C            3.18422158970150       -0.95609709098813        1.66867447149724
C            4.21588489323732       -0.45652857534798        0.73776521109739
C            4.00143785220652        0.50262341447920       -1.12319493418517
C            2.53571676215873        0.91614285240742       -1.21608176004906
C           -1.81044714184812        0.23545309390915       -0.43651772008949
C           -1.27367002292589       -0.45300942841920        1.57629424622345
C           -2.33883865611048       -1.43207012862569        2.06065023666081
C           -2.88832225661651       -2.49149760884169       -0.34414660637346
C           -3.18654562608990       -1.52549985053213       -1.46042666107420
C           -2.65388295728177       -0.31161940738225       -1.51626877701740
H           -1.90590779623184        3.75489245890848        0.78431290315715
H            1.03481676962413        1.55242668446318        1.70863342558656
H           -0.08602039662946        3.93250664197859        0.46529015269156
H           -3.98999424534087        1.96814906021056       -0.72645985933951
H           -2.06331854272053        3.79134036770284       -1.69572074360979
H           -2.67044749077150        2.36059735905013       -2.56720630826685
H            2.68709405715103        2.54488685067951        0.33962692279929
H            5.24086652483568       -1.32739905099856       -1.04625569439352
H            3.45952415567378       -2.96607942646394       -1.34042943147143
H            1.03426081075113       -3.39539576482983       -0.81043234906252
H           -1.24398683612548       -3.83950144498850       -0.93176581944152
H           -4.04372393007864       -2.55663033846166        1.49063600057016
H           -2.66270613516647        1.35372506295764        1.32086331363913
H            1.35113989824690       -0.72132245956234        2.63711930667805
H            3.44790366933211       -1.83573713902479        2.23962000754219
H            5.20682808383920       -0.57306158595426        1.18899934065152
H            4.69595376921451        0.96832737599472       -1.81990950244152
H            2.26206627326903        1.61452793144843       -2.00473166180225
H           -0.66305171615943       -0.03305923663315        2.36602390368024
H           -2.37095941627248       -1.77703597763004        3.08430320461527
H           -3.48782230690980       -3.39193173245735       -0.49558790990140
H           -3.79298284909557       -1.88684347972824       -2.27728489317980
H           -2.81451495650834        0.30345037123495       -2.38893206536022

          :  Hamiltonian                  GFN2-xTB          :
         :: gradient norm              0.000056520573 Eh/a0 ::
         :: HOMO-LUMO gap              1.206574796986 eV    ::
         :: SCC energy               -86.261034332483 Eh    ::
         :: -> dispersion             -0.084629296905 Eh    ::
         :: -> Gsolv                  -0.031332715772 Eh    ::
         :: repulsion energy           1.100753072097 Eh    ::

    * Orbital Energies and Occupations

         #    Occupation            Energy/Eh            Energy/eV
      -------------------------------------------------------------
         1        2.0000           -0.7239057             -19.6985
       ...           ...                  ...                  ...
        67        2.0000           -0.4252013             -11.5703
        68        2.0000           -0.4174195             -11.3586
        69        2.0000           -0.4164529             -11.3323
        70        2.0000           -0.4112369             -11.1903
        71        2.0000           -0.4074307             -11.0868
        72        2.0000           -0.4024660             -10.9517
        73        2.0000           -0.3973426             -10.8122
        74        2.0000           -0.3837534             -10.4425
        75        2.0000           -0.3734950             -10.1633
        76        2.0000           -0.3707958             -10.0899
        77        1.9992           -0.3564576              -9.6997
        78        1.0008           -0.3428664              -9.3299
        79        1.0000           -0.3032225              -8.2511 (HOMO)
        80                         -0.2588819              -7.0445 (LUMO)
        81                         -0.2378418              -6.4720
        82                         -0.2210367              -6.0147
        83                         -0.2160405              -5.8788
        84                         -0.1979246              -5.3858
        85                         -0.1748273              -4.7573
        86                         -0.1605596              -4.3691
        87                         -0.1277826              -3.4771
        88                         -0.0581292              -1.5818
        89                         -0.0513967              -1.3986
        90                         -0.0494214              -1.3448
       ...                                ...                  ...
       152                          0.6114379              16.6381
      -------------------------------------------------------------
                  HL-Gap            0.0443406 Eh            1.2066 eV

     #   Z          covCN         q      C6AA      α(0)
     1   6 C        2.899     0.184    24.059     8.042
     2   6 C        3.390    -0.012    24.605     7.693
     3   6 C        3.660     0.108    19.064     6.265
     4   6 C        3.044    -0.031    28.733     8.792
     5   6 C        4.074     0.051    19.645     6.296
     6   7 N        2.918    -0.232    26.058     7.582
     7   6 C        3.923    -0.021    20.885     6.495
     8   6 C        2.903    -0.069    29.728     8.940
     9   6 C        2.910     0.072    26.396     8.425
    10   7 N        2.708    -0.144    24.112     7.293
    11   6 C        2.885     0.054    26.776     8.483
    12   6 C        2.919    -0.082    30.048     8.989
    13   6 C        3.798     0.050    19.733     6.325
    14   7 N        2.816    -0.267    26.909     7.704
    15   6 C        4.263     0.062    19.458     6.265
    16   6 C        4.108     0.024    20.087     6.366
    17   8 O        1.659    -0.422    21.288     6.229
    18  16 S        2.623    -0.238   151.256    20.699
    19   8 O        0.856    -0.407    21.829     6.264
    20   6 C        3.900    -0.015    20.781     6.480
    21   6 C        2.906    -0.033    28.811     8.801
    22   6 C        2.890    -0.052    29.284     8.872
    23   6 C        4.065     0.054    19.585     6.286
    24   6 C        4.310     0.052    19.623     6.291
    25   6 C        4.007    -0.022    20.893     6.494
    26   6 C        4.044     0.058    19.528     6.277
    27   6 C        4.101    -0.024    20.919     6.496
    28   6 C        4.090     0.035    19.897     6.336
    29   6 C        3.861    -0.016    20.826     6.490
    30   6 C        2.911    -0.032    28.797     8.800
    31   6 C        2.916    -0.052    29.292     8.875
    32   1 H        0.924     0.035     2.518     2.481
    33   1 H        0.924     0.060     2.195     2.317
    34   1 H        0.923     0.026     2.644     2.543
    35   1 H        0.805     0.312     0.687     1.302
    36   1 H        0.925     0.065     2.143     2.289
    37   1 H        0.924     0.044     2.395     2.420
    38   1 H        0.924     0.034     2.525     2.485
    39   1 H        0.925     0.045     2.379     2.412
    40   1 H        0.926     0.043     2.408     2.426
    41   1 H        0.860     0.173     1.256     1.755
    42   1 H        0.926     0.039     2.467     2.456
    43   1 H        0.925     0.045     2.381     2.413
    44   1 H        0.925     0.039     2.462     2.454
    45   1 H        0.926     0.028     2.612     2.527
    46   1 H        0.925     0.034     2.534     2.489
    47   1 H        0.924     0.047     2.362     2.403
    48   1 H        0.925     0.039     2.462     2.454
    49   1 H        0.925     0.044     2.403     2.424
    50   1 H        0.925     0.038     2.470     2.458
    51   1 H        0.926     0.032     2.560     2.502
    52   1 H        0.924     0.051     2.306     2.375
    53   1 H        0.926     0.049     2.336     2.390
    54   1 H        0.926     0.045     2.388     2.417

molecular dipole:
                 x           y           z       tot (Debye)
 q only:        0.493      -2.306      -1.753
   full:        0.248      -2.702      -1.882       8.394

 projected vibrational frequencies (cm⁻¹)
eigval :       -0.00    -0.00     0.00     0.00     0.00     0.00
eigval :       51.01    56.60    60.72    65.43    81.50    89.75
eigval :      105.54   120.34   130.38   142.81   155.41   177.22
eigval :      198.07   221.01   233.58   241.47   261.82   267.74
eigval :      291.90   298.43   300.25   325.52   350.79   357.02
eigval :      379.50   391.04   413.06   417.44   427.55   436.88
eigval :      450.26   466.74   480.53   501.87   514.97   533.58
eigval :      546.60   552.38   568.01   576.90   600.82   615.15
eigval :      617.08   626.86   643.76   688.28   701.88   711.96
eigval :      732.23   747.69   761.87   768.11   777.83   796.72
eigval :      797.55   815.29   820.11   823.58   849.92   851.93
eigval :      858.26   880.76   889.86   895.90   909.53   913.20
eigval :      918.93   923.79   955.28   962.89   971.42   973.51
eigval :      985.06   987.26  1005.14  1026.11  1034.27  1041.15
eigval :     1046.78  1054.99  1063.61  1069.42  1077.21  1092.32
eigval :     1109.62  1114.19  1121.87  1128.04  1132.51  1137.83
eigval :     1144.10  1152.05  1158.72  1166.10  1169.84  1176.21
eigval :     1179.62  1185.33  1186.64  1194.06  1197.45  1205.28
eigval :     1215.10  1215.38  1216.84  1231.34  1234.44  1238.52
eigval :     1247.24  1254.93  1262.61  1270.92  1276.20  1286.43
eigval :     1290.77  1296.61  1309.04  1318.62  1322.72  1332.37
eigval :     1339.50  1340.18  1350.53  1354.78  1435.58  1441.84
eigval :     1450.26  1461.17  1478.64  1653.82  1664.45  1669.34
eigval :     1686.38  2823.29  2876.16  2911.40  2926.68  2962.96
eigval :     2967.00  2974.55  2980.42  2982.74  2989.76  2991.25
eigval :     3004.06  3023.23  3049.48  3055.17  3058.56  3065.86
eigval :     3071.00  3077.12  3085.59  3088.64  3433.14  3490.54

   temp. (K)  partition function   enthalpy   heat capacity  entropy
                                   cal/mol     cal/K/mol   cal/K/mol   J/K/mol
 298.15  VIB  0.133E+09            13683.267     96.190     81.219
         ROT  0.124E+08              888.752      2.981     35.445
         INT  0.165E+16            14572.019     99.171    116.664
         TR   0.861E+28             1481.254      4.968     44.043
         TOT                       16053.2733   104.1393   160.7067   672.3969

       T/K    H(0)-H(T)+PV         H(T)/Eh          T*S/Eh         G(T)/Eh
   ------------------------------------------------------------------------
    298.15    0.255825E-01    0.443447E+00    0.763569E-01    0.367091E+00
   ------------------------------------------------------------------------

         :::::::::::::::::::::::::::::::::::::::::::::::::::::
         ::                  THERMODYNAMIC                  ::
         :::::::::::::::::::::::::::::::::::::::::::::::::::::
         :: total free energy         -84.793190743460 Eh   ::
         ::.................................................::
         :: total energy              -85.160281263486 Eh   ::
         :: zero point energy           0.417864949973 Eh   ::
         :: G(RRHO) w/o ZPVE           -0.050774429946 Eh   ::
         :: G(RRHO) contrib.            0.367090520026 Eh   ::
         :::::::::::::::::::::::::::::::::::::::::::::::::::::

           -------------------------------------------------
          | TOTAL ENERGY              -85.160281263486 Eh   |
          | TOTAL ENTHALPY            -84.716833794057 Eh   |
          | TOTAL FREE ENERGY         -84.793190743460 Eh   |
          | GRADIENT NORM               0.000056348593 Eh/α |
          | HOMO-LUMO GAP               1.206569063926 eV   |
           -------------------------------------------------

 * finished run on 2025/07/16 at 14:09:18.211
