   * xtb version 6.7.1 (edcfbbe) compiled by 'albert@albert-system' on 2024-07-22

   ID    Z sym.   atoms
    1    6 C      1-5, 7-9, 11-13, 15, 16, 20-31
    2    7 N      6, 10, 14
    3    8 O      17, 19
    4   16 S      18
    5    1 H      32-54

          program call               : xtb data2507/toluene/DMDHNP-DPS/DMDHNP-DPS_toluene_S0_finalOpt.xtbopt.xyz --gfn 2 --uhf 2 --gbsa toluene --ohess vtight --parallel 40 --molden --ceasefiles --namespace data2507/toluene/DMDHNP-DPS/DMDHNP-DPS_toluene_T1_preOpt
      * Solvation model:               GBSA
        Solvent                        toluene
        Solvent mass                       9.2140E+01 g/mol
          :  Hamiltonian                  GFN2-xTB          :
 * total energy  :   -85.0703592 Eh     change       -0.4068099E-08 Eh
 * total energy  :   -85.0808393 Eh     change       -0.1048008E-01 Eh
 * total energy  :   -85.0856405 Eh     change       -0.4801204E-02 Eh
 * total energy  :   -85.0897798 Eh     change       -0.4139341E-02 Eh
 * total energy  :   -85.0921350 Eh     change       -0.2355213E-02 Eh
 * total energy  :   -85.0993905 Eh     change       -0.7255469E-02 Eh
 * total energy  :   -85.1049488 Eh     change       -0.5558331E-02 Eh
 * total energy  :   -85.1121014 Eh     change       -0.7152572E-02 Eh
 * total energy  :   -85.1142063 Eh     change       -0.2104872E-02 Eh
 * total energy  :   -85.1175729 Eh     change       -0.3366645E-02 Eh
 * total energy  :   -85.1194397 Eh     change       -0.1418325E-05 Eh
 * total energy  :   -85.1194407 Eh     change       -0.9590147E-06 Eh
 * total energy  :   -85.1194413 Eh     change       -0.5870441E-06 Eh
 * total energy  :   -85.1194418 Eh     change       -0.4721605E-06 Eh
 * total energy  :   -85.1194422 Eh     change       -0.3907962E-06 Eh
 * total energy  :   -85.1194425 Eh     change       -0.3046775E-06 Eh
 * total energy  :   -85.1194427 Eh     change       -0.2629756E-06 Eh
 * total energy  :   -85.1194429 Eh     change       -0.1672808E-06 Eh
 * total energy  :   -85.1194430 Eh     change       -0.6228315E-07 Eh
   *** GEOMETRY OPTIMIZATION CONVERGED AFTER 30 ITERATIONS ***

 final structure:
================
54
 xtb: 6.7.1 (edcfbbe)
C           -2.43618850629772        2.73581650125903       -1.35274439090916
C            0.56242058054957        0.23042377548447       -0.06937713293449
C           -0.62157106536862        2.81571264333713        0.70598053864976
C            1.52553669936198       -0.14311711981014       -1.12200609638752
C            2.53591000097744        1.57845098130378        0.11757093855304
N            3.98919691173325        1.29602652269337        0.21099554127794
C            4.30023211765708       -0.71997419704952       -0.58148115129368
C            3.30181651576812       -1.78321563938776       -0.83117267408696
C            1.97993906485776       -1.48242520586729       -0.98225434002277
N            0.98032646420266       -2.43196184216166       -0.80084091228784
C           -0.32267974959512       -2.09926393672734       -0.49835118791717
C           -1.32034559098026       -2.96644965081817       -0.71723328696791
C           -3.11674100291694       -2.24833088797487        0.92004961970452
N           -3.33999332377780       -0.92545260527640        1.48313344266773
C           -2.35615048524808        0.10526919537252        1.04828714280129
C           -0.56246602969495       -0.75590269076826        0.13122136578603
O           -1.71850032732900        3.03472062516192        1.48406258461442
S           -0.84986948584707        1.66105930984234       -0.78573184388650
O           -3.55473321824521        2.72396662079357       -0.52560297832224
C            1.55615870468631        0.72076885703725        0.90393793431279
C            2.09149125182030       -0.08899881057231        1.93586280690809
C            3.41116453885856       -0.40704586013609        1.94094022078825
C            4.32029624799317        0.00461448383622        0.85431410807244
C            3.97246061585148        0.66921040354339       -1.13677366947757
C            2.48359151639126        0.98658587294898       -1.30469304184737
C           -1.79427221649603        0.09078429743733       -0.38298687064556
C           -1.17783157299613       -0.72071034385551        1.55163780084374
C           -2.20600572157468       -1.76820144201401        1.97109185647274
C           -2.77549646798641       -2.64406964953414       -0.50743440060391
C           -3.15020068521017       -1.59689331056853       -1.52295837444656
C           -2.67495920893104       -0.36006782002565       -1.47881103632598
H           -2.64665339839232        2.40038495814097       -2.36852412632204
H           -4.00763108341580        1.87433565030166       -0.59268088304931
H           -2.05651560747912        3.75600122508438       -1.39171473332902
H           -2.44119510209897        3.43198476731732        0.96755183893260
H            0.14959404376346        2.32826026641742        1.31144019990961
H           -0.23104532238724        3.72178027934441        0.23053918402032
H            2.36567853586182        2.65073266239420        0.25015867147097
H            5.30591936336949       -1.06069987111368       -0.83728903679661
H            3.60394947690577       -2.80620513908670       -0.65658071291061
H            1.19238724626274       -3.40073166864664       -0.97768477813607
H           -1.09410537353920       -3.92748918983919       -1.15564992852212
H           -3.88785038468560       -2.89242086598518        1.34046768796601
H           -2.63952195521909        1.05691732428240        1.48486285114735
H            1.44859341933868       -0.53098560698926        2.68556788020714
H            3.82165206216013       -1.02918352143390        2.72266488100276
H            5.35263374256375        0.04958263708370        1.21871974452214
H            4.65181974427078        1.08234045467741       -1.88216430649672
H            2.23221051050434        1.64450462579539       -2.13603272597692
H           -0.54474642708812       -0.37070577018559        2.35670962004358
H           -2.20688219911975       -2.20175195580403        2.96111518437668
H           -3.35232852139245       -3.54801287180799       -0.71757268872331
H           -3.78024957447678       -1.90640510843170       -2.34314355426320
H           -2.90273410276120        0.33705977631221       -2.26920921116086

          :  Hamiltonian                  GFN2-xTB          :
         :: gradient norm              0.000052873282 Eh/a0 ::
         :: HOMO-LUMO gap              1.542596752576 eV    ::
         :: SCC energy               -86.202343550442 Eh    ::
         :: -> dispersion             -0.085491447834 Eh    ::
         :: -> Gsolv                  -0.028247539460 Eh    ::
         :: repulsion energy           1.082900578083 Eh    ::

    * Orbital Energies and Occupations

         #    Occupation            Energy/Eh            Energy/eV
      -------------------------------------------------------------
         1        2.0000           -0.7529214             -20.4880
       ...           ...                  ...                  ...
        67        2.0000           -0.4237049             -11.5296
        68        2.0000           -0.4212175             -11.4619
        69        2.0000           -0.4148795             -11.2894
        70        2.0000           -0.4055293             -11.0350
        71        2.0000           -0.4052850             -11.0284
        72        2.0000           -0.3978399             -10.8258
        73        2.0000           -0.3906692             -10.6306
        74        2.0000           -0.3726365             -10.1400
        75        2.0000           -0.3575444              -9.7293
        76        2.0000           -0.3525626              -9.5937
        77        2.0000           -0.3355590              -9.1310
        78        1.0000           -0.3024863              -8.2311
        79        1.0000           -0.2909528              -7.9172 (HOMO)
        80                         -0.2342635              -6.3746 (LUMO)
        81                         -0.2270035              -6.1771
        82                         -0.2082994              -5.6681
        83                         -0.1930156              -5.2522
        84                         -0.1835055              -4.9934
        85                         -0.1623798              -4.4186
        86                         -0.1532179              -4.1693
        87                         -0.1252739              -3.4089
        88                         -0.0587525              -1.5987
        89                         -0.0483133              -1.3147
        90                         -0.0434562              -1.1825
       ...                                ...                  ...
       152                          0.6294283              17.1276
      -------------------------------------------------------------
                  HL-Gap            0.0566893 Eh            1.5426 eV

     #   Z          covCN         q      C6AA      α(0)
     1   6 C        3.626     0.034    20.414     6.509
     2   6 C        3.833    -0.032    21.124     6.539
     3   6 C        3.658     0.100    19.206     6.289
     4   6 C        3.131    -0.052    29.071     8.827
     5   6 C        4.104     0.051    19.637     6.294
     6   7 N        2.916    -0.247    26.410     7.633
     7   6 C        3.931    -0.019    20.852     6.489
     8   6 C        2.901    -0.100    30.508     9.056
     9   6 C        2.904     0.062    26.607     8.458
    10   7 N        2.706    -0.169    24.645     7.373
    11   6 C        2.884     0.060    26.658     8.465
    12   6 C        2.913    -0.096    30.414     9.043
    13   6 C        3.798     0.050    19.736     6.326
    14   7 N        2.815    -0.261    26.763     7.683
    15   6 C        4.257     0.051    19.643     6.294
    16   6 C        4.194     0.019    20.175     6.379
    17   8 O        1.659    -0.408    21.012     6.188
    18  16 S        3.848     0.011   140.594    19.957
    19   8 O        1.657    -0.427    21.387     6.243
    20   6 C        3.103    -0.052    29.162     8.849
    21   6 C        2.897    -0.039    28.970     8.825
    22   6 C        2.901    -0.065    29.620     8.924
    23   6 C        4.024     0.053    19.608     6.290
    24   6 C        4.295     0.053    19.600     6.287
    25   6 C        3.996    -0.026    20.952     6.503
    26   6 C        4.070     0.033    19.931     6.341
    27   6 C        4.109    -0.025    20.943     6.500
    28   6 C        4.087     0.036    19.892     6.335
    29   6 C        3.861    -0.015    20.806     6.487
    30   6 C        2.906    -0.030    28.750     8.792
    31   6 C        2.912    -0.053    29.306     8.877
    32   1 H        0.925     0.037     2.489     2.467
    33   1 H        0.805     0.311     0.689     1.304
    34   1 H        0.925     0.055     2.255     2.348
    35   1 H        0.804     0.340     0.612     1.229
    36   1 H        0.924     0.086     1.914     2.164
    37   1 H        0.924     0.063     2.167     2.302
    38   1 H        0.924     0.019     2.753     2.595
    39   1 H        0.924     0.017     2.777     2.606
    40   1 H        0.926     0.007     2.933     2.678
    41   1 H        0.860     0.158     1.347     1.818
    42   1 H        0.926     0.022     2.699     2.569
    43   1 H        0.925     0.041     2.436     2.441
    44   1 H        0.925     0.060     2.204     2.322
    45   1 H        0.925     0.010     2.887     2.657
    46   1 H        0.926     0.009     2.905     2.665
    47   1 H        0.924     0.020     2.726     2.582
    48   1 H        0.925     0.017     2.778     2.607
    49   1 H        0.925     0.026     2.639     2.540
    50   1 H        0.925     0.037     2.491     2.468
    51   1 H        0.926     0.028     2.608     2.525
    52   1 H        0.924     0.043     2.409     2.427
    53   1 H        0.926     0.046     2.373     2.409
    54   1 H        0.926     0.049     2.334     2.389

molecular dipole:
                 x           y           z       tot (Debye)
 q only:       -1.907       0.317      -1.030
   full:       -1.808      -0.275      -1.109       5.435

 projected vibrational frequencies (cm⁻¹)
eigval :       -0.00    -0.00    -0.00     0.00     0.00     0.00
eigval :       50.66    68.70    78.09    87.10   112.87   128.72
eigval :      146.34   152.02   167.85   197.08   198.45   210.52
eigval :      232.01   236.43   254.83   265.15   284.96   291.78
eigval :      294.41   312.87   328.21   347.83   360.86   372.14
eigval :      396.29   409.85   424.20   438.52   441.83   444.66
eigval :      453.96   475.05   481.60   494.17   514.74   518.49
eigval :      546.00   554.53   574.22   580.35   582.96   601.92
eigval :      616.97   637.55   671.00   680.67   686.08   713.28
eigval :      727.66   734.81   746.27   755.47   773.60   776.81
eigval :      781.75   792.34   799.54   813.92   826.14   830.29
eigval :      849.88   857.84   879.64   889.98   896.24   909.68
eigval :      911.49   917.47   952.10   961.44   965.13   980.07
eigval :      986.49   993.34  1018.65  1026.02  1046.91  1051.56
eigval :     1056.39  1059.13  1068.94  1075.14  1092.86  1094.96
eigval :     1097.22  1099.52  1112.36  1123.68  1136.09  1137.74
eigval :     1147.27  1149.53  1151.08  1162.48  1167.65  1174.52
eigval :     1179.33  1185.22  1189.98  1191.72  1196.48  1202.70
eigval :     1210.16  1217.96  1222.70  1226.69  1232.06  1236.24
eigval :     1245.95  1252.07  1255.35  1273.02  1277.70  1281.85
eigval :     1288.93  1291.53  1301.62  1308.43  1318.94  1321.28
eigval :     1334.87  1343.03  1344.41  1374.14  1391.08  1398.38
eigval :     1422.57  1447.90  1460.86  1519.79  1541.16  1675.65
eigval :     1691.85  2889.95  2903.16  2907.64  2911.30  2941.55
eigval :     2956.94  2962.35  2962.55  2966.70  2989.39  3001.38
eigval :     3033.91  3043.12  3049.62  3056.56  3063.60  3065.22
eigval :     3066.90  3076.17  3096.49  3374.75  3448.80  3516.52

   temp. (K)  partition function   enthalpy   heat capacity  entropy
                                   cal/mol     cal/K/mol   cal/K/mol   J/K/mol
 298.15  VIB  0.947E+07            13084.069     96.456     74.761
         ROT  0.122E+08              888.752      2.981     35.404
         INT  0.115E+15            13972.821     99.437    110.166
         TR   0.861E+28             1481.254      4.968     44.043
         TOT                       15454.0751   104.4050   154.2084   645.2079

       T/K    H(0)-H(T)+PV         H(T)/Eh          T*S/Eh         G(T)/Eh
   ------------------------------------------------------------------------
    298.15    0.246276E-01    0.443391E+00    0.732694E-01    0.370122E+00
   ------------------------------------------------------------------------

         :::::::::::::::::::::::::::::::::::::::::::::::::::::
         ::                  THERMODYNAMIC                  ::
         :::::::::::::::::::::::::::::::::::::::::::::::::::::
         :: total free energy         -84.749321016587 Eh   ::
         ::.................................................::
         :: total energy              -85.119442976077 Eh   ::
         :: zero point energy           0.418763710396 Eh   ::
         :: G(RRHO) w/o ZPVE           -0.048641750906 Eh   ::
         :: G(RRHO) contrib.            0.370121959490 Eh   ::
         :::::::::::::::::::::::::::::::::::::::::::::::::::::

           -------------------------------------------------
          | TOTAL ENERGY              -85.119442976077 Eh   |
          | TOTAL ENTHALPY            -84.676051629431 Eh   |
          | TOTAL FREE ENERGY         -84.749321016587 Eh   |
          | GRADIENT NORM               0.000052823267 Eh/α |
          | HOMO-LUMO GAP               1.542594564990 eV   |
           -------------------------------------------------

 * finished run on 2025/07/16 at 14:07:33.393
