   * xtb version 6.7.1 (edcfbbe) compiled by 'albert@albert-system' on 2024-07-22

   ID    Z sym.   atoms
    1    6 C      1-4, 6-19, 22-28, 30-41, 43
    2    7 N      5, 20, 21, 29
    3    8 O      42
    4    1 H      44-67

          program call               : xtb data2507/gas/o-CzOXD/o-CzOXD_gas_S0_crest.xyz --gfn 2 --ohess vtight --parallel 40 --molden --ceasefiles --namespace data2507/gas/o-CzOXD/o-CzOXD_gas_S0_finalOpt
          :  Hamiltonian                  GFN2-xTB          :
 * total energy  :  -109.4425609 Eh     change       -0.1031893E-08 Eh
 * total energy  :  -109.4425628 Eh     change       -0.1865994E-05 Eh
 * total energy  :  -109.4425643 Eh     change       -0.1558023E-05 Eh
 * total energy  :  -109.4425673 Eh     change       -0.2949874E-05 Eh
 * total energy  :  -109.4425703 Eh     change       -0.2960486E-05 Eh
 * total energy  :  -109.4425728 Eh     change       -0.2570758E-05 Eh
 * total energy  :  -109.4425746 Eh     change       -0.1725030E-05 Eh
 * total energy  :  -109.4425760 Eh     change       -0.1430651E-05 Eh
 * total energy  :  -109.4425780 Eh     change       -0.1973863E-05 Eh
 * total energy  :  -109.4425806 Eh     change       -0.2665379E-05 Eh
 * total energy  :  -109.4425868 Eh     change       -0.1102697E-05 Eh
 * total energy  :  -109.4425880 Eh     change       -0.1243807E-05 Eh
 * total energy  :  -109.4425891 Eh     change       -0.1103228E-05 Eh
 * total energy  :  -109.4425900 Eh     change       -0.9268552E-06 Eh
 * total energy  :  -109.4425909 Eh     change       -0.8423563E-06 Eh
 * total energy  :  -109.4425918 Eh     change       -0.8922203E-06 Eh
 * total energy  :  -109.4425928 Eh     change       -0.9898558E-06 Eh
 * total energy  :  -109.4425937 Eh     change       -0.9726007E-06 Eh
 * total energy  :  -109.4425937 Eh     change       -0.7721212E-08 Eh
   *** GEOMETRY OPTIMIZATION CONVERGED AFTER 22 ITERATIONS ***

 final structure:
================
67
 xtb: 6.7.1 (edcfbbe)
C           -0.35164708954330        3.46471872168954       -1.29894691781101
C           -1.69996810996130        3.77135226099940       -1.40913883036003
C           -2.65510134793304        2.80691183468540       -1.14954404427463
C           -2.28328881485215        1.52431067465111       -0.75525860547714
N           -3.26467172279491        0.55545637018804       -0.55035190166592
C           -4.35145082640672        0.67610152344366        0.29409585626537
C           -4.70322431465492        1.72094104678631        1.13465662361239
C           -5.84730989599557        1.57737473767531        1.89737908551264
C           -6.62121606990030        0.42139186871813        1.83538173993525
C           -6.26271716947273       -0.63053231006428        1.01524991281728
C           -5.11872078458529       -0.50880680548725        0.23857372116545
C           -4.45773334629467       -1.38007254221128       -0.69351614808775
C           -4.73973155835429       -2.64998540529450       -1.17783600810348
C           -3.89018029168030       -3.20494743593180       -2.11395924142402
C           -2.78251073042176       -2.50227587070379       -2.58136434936526
C           -2.48421688975039       -1.23615545319797       -2.11552769670916
C           -3.31629558051904       -0.68683697705430       -1.15208550088382
C           -0.91863890256612        1.22909513239073       -0.59981143103357
C           -0.47802788693751       -0.04035645944952       -0.06942871588691
N           -1.16897034981273       -0.92886014541634        0.58429330815205
N           -0.32851465364688       -1.90381009190120        0.94361606556542
C            0.85238732500772       -1.57865783855108        0.50460112198163
C            2.06736474693373       -2.35011833774486        0.66107475829050
C            1.95827894956959       -3.72481163510259        0.86676909678900
C            3.09013821448390       -4.50925807482768        0.95985205775131
C            4.34587076097312       -3.92956302537907        0.84976044033068
C            4.46872013321258       -2.56341539160721        0.67927273241071
C            3.33786374029151       -1.75791034023810        0.59452212309130
N            3.48206850905802       -0.37057802718621        0.47061508481581
C            2.90528014883058        0.57639030002306        1.29523497977211
C            2.14847021904059        0.40079474389347        2.44478922463417
C            1.67407964107386        1.53175669176013        3.08082031434733
C            1.95689725596101        2.80896936280885        2.60079111804126
C            2.73664384414321        2.98958217967717        1.47639944244776
C            3.21890876007021        1.86742670733183        0.81425769964997
C            4.02650614242800        1.68049027776731       -0.35969960198574
C            4.61237040597978        2.55421838059519       -1.26615384329440
C            5.32178285873178        2.02817690730473       -2.32741285122996
C            5.44025314456764        0.65070644392009       -2.49858561028672
C            4.86387865318790       -0.23905021092682       -1.61191876114195
C            4.16652187125402        0.28473821243687       -0.53385146167420
O            0.82308245241554       -0.40087545474023       -0.15763108665213
C            0.03518797956683        2.20240527987437       -0.89840369450154
H            0.39631572861516        4.21039340218290       -1.51940273068830
H           -2.00722890494641        4.76003244964258       -1.71546320662554
H           -3.70474199535873        3.03025363303041       -1.26922537809598
H           -4.09938359743623        2.61374970777893        1.20163142291112
H           -6.14526200867734        2.37803349804919        2.55846880370569
H           -7.50898643974786        0.34774045733317        2.44594476641093
H           -6.85483491026520       -1.53248489649975        0.97950624232656
H           -5.60773479190281       -3.18849375180112       -0.82846814929357
H           -4.08718980543250       -4.19457968450271       -2.49899276102013
H           -2.14369141401451       -2.95592478381167       -3.32535961950356
H           -1.63022433503461       -0.69323181049058       -2.49544892765504
H            0.97013786011049       -4.15114114727688        0.93605293766933
H            2.99693017285519       -5.57332150937025        1.11202744656538
H            5.23287064069572       -4.54162742791514        0.91365280448955
H            5.44353773366596       -2.10148823465133        0.62866798856457
H            1.92886608886041       -0.58516985948718        2.82859924891417
H            1.07033448472672        1.42154363288130        3.96916669853024
H            1.56297364676966        3.66729785229872        3.12405938661457
H            2.96668940172936        3.97973063679320        1.11261338766792
H            4.51022521918422        3.62171485446177       -1.14042463352784
H            5.78760406463616        2.69029729767818       -3.04194787012652
H            5.99181512070116        0.26935169839356       -3.34518056112020
H            4.94703889215878       -1.30551619864019       -1.75975990503606
H            1.08166052541276        1.96179708790732       -0.79085722440844

          :  Hamiltonian                  GFN2-xTB          :
         :: gradient norm              0.000062528916 Eh/a0 ::
         :: HOMO-LUMO gap              2.009065200426 eV    ::
         :: SCC energy              -111.396562756591 Eh    ::
         :: -> dispersion             -0.101676285402 Eh    ::
         :: repulsion energy           1.953969007950 Eh    ::

    * Orbital Energies and Occupations

         #    Occupation            Energy/Eh            Energy/eV
      -------------------------------------------------------------
         1        2.0000           -0.7694891             -20.9389
       ...           ...                  ...                  ...
        89        2.0000           -0.4206231             -11.4457
        90        2.0000           -0.4185697             -11.3899
        91        2.0000           -0.4151628             -11.2972
        92        2.0000           -0.4126492             -11.2288
        93        2.0000           -0.4115537             -11.1989
        94        2.0000           -0.4090105             -11.1297
        95        2.0000           -0.4011982             -10.9172
        96        2.0000           -0.3965703             -10.7912
        97        2.0000           -0.3862829             -10.5113
        98        2.0000           -0.3826185             -10.4116
        99        2.0000           -0.3712682             -10.1027
       100        2.0000           -0.3684596             -10.0263
       101        2.0000           -0.3583901              -9.7523 (HOMO)
       102                         -0.2845583              -7.7432 (LUMO)
       103                         -0.2616470              -7.1198
       104                         -0.2507553              -6.8234
       105                         -0.2445456              -6.6544
       106                         -0.2434848              -6.6256
       107                         -0.2359495              -6.4205
       108                         -0.2257866              -6.1440
       109                         -0.2146968              -5.8422
       110                         -0.1970704              -5.3626
       111                         -0.1963975              -5.3442
       112                         -0.1900741              -5.1722
       ...                                ...                  ...
       196                          0.7547100              20.5367
      -------------------------------------------------------------
                  HL-Gap            0.0738318 Eh            2.0091 eV

     #   Z          covCN         q      C6AA      α(0)
     1   6 C        2.918    -0.031    28.777     8.797
     2   6 C        2.918    -0.024    28.611     8.771
     3   6 C        2.923    -0.040    29.003     8.832
     4   6 C        2.914     0.070    26.432     8.431
     5   7 N        2.804    -0.034    21.890     6.949
     6   6 C        3.076     0.050    26.801     8.488
     7   6 C        2.910    -0.049    29.228     8.865
     8   6 C        2.924    -0.033    28.823     8.804
     9   6 C        2.920    -0.040    29.005     8.832
    10   6 C        2.913    -0.031    28.777     8.797
    11   6 C        3.069    -0.011    28.225     8.711
    12   6 C        3.069    -0.009    28.173     8.703
    13   6 C        2.913    -0.030    28.748     8.792
    14   6 C        2.920    -0.039    28.969     8.826
    15   6 C        2.924    -0.031    28.785     8.798
    16   6 C        2.910    -0.045    29.118     8.848
    17   6 C        3.076     0.053    26.735     8.477
    18   6 C        2.974    -0.017    28.440     8.748
    19   6 C        3.175     0.220    23.035     7.838
    20   7 N        2.051    -0.196    25.981     7.561
    21   7 N        2.050    -0.199    26.032     7.568
    22   6 C        3.177     0.220    23.030     7.836
    23   6 C        2.975    -0.016    28.397     8.741
    24   6 C        2.926    -0.027    28.671     8.781
    25   6 C        2.918    -0.028    28.711     8.787
    26   6 C        2.919    -0.024    28.614     8.772
    27   6 C        2.922    -0.041    29.007     8.832
    28   6 C        2.913     0.069    26.461     8.435
    29   7 N        2.803    -0.043    22.076     6.978
    30   6 C        3.076     0.051    26.771     8.483
    31   6 C        2.909    -0.048    29.197     8.860
    32   6 C        2.924    -0.032    28.789     8.799
    33   6 C        2.920    -0.040    29.001     8.831
    34   6 C        2.913    -0.033    28.827     8.804
    35   6 C        3.067    -0.017    28.356     8.732
    36   6 C        3.068    -0.017    28.357     8.732
    37   6 C        2.913    -0.033    28.824     8.804
    38   6 C        2.920    -0.040    29.004     8.832
    39   6 C        2.924    -0.033    28.810     8.802
    40   6 C        2.910    -0.050    29.251     8.869
    41   6 C        3.075     0.049    26.823     8.491
    42   8 O        1.723    -0.226    17.743     5.687
    43   6 C        2.926    -0.026    28.642     8.777
    44   1 H        0.926     0.044     2.397     2.421
    45   1 H        0.926     0.045     2.381     2.413
    46   1 H        0.926     0.051     2.310     2.377
    47   1 H        0.926     0.025     2.653     2.547
    48   1 H        0.926     0.029     2.595     2.519
    49   1 H        0.926     0.029     2.601     2.522
    50   1 H        0.926     0.033     2.541     2.493
    51   1 H        0.926     0.034     2.529     2.487
    52   1 H        0.926     0.029     2.595     2.519
    53   1 H        0.926     0.028     2.621     2.532
    54   1 H        0.926     0.014     2.821     2.626
    55   1 H        0.926     0.065     2.145     2.290
    56   1 H        0.926     0.048     2.344     2.394
    57   1 H        0.926     0.046     2.370     2.407
    58   1 H        0.926     0.049     2.333     2.389
    59   1 H        0.926     0.023     2.684     2.562
    60   1 H        0.926     0.032     2.555     2.499
    61   1 H        0.926     0.029     2.598     2.521
    62   1 H        0.926     0.031     2.575     2.510
    63   1 H        0.926     0.031     2.575     2.509
    64   1 H        0.926     0.029     2.599     2.521
    65   1 H        0.926     0.030     2.582     2.513
    66   1 H        0.926     0.026     2.643     2.542
    67   1 H        0.926     0.051     2.303     2.373

molecular dipole:
                 x           y           z       tot (Debye)
 q only:        0.672       0.197      -0.349
   full:        1.271       0.458      -0.576       3.734

 projected vibrational frequencies (cm⁻¹)
eigval :       -0.00    -0.00    -0.00     0.00     0.00     0.00
eigval :        4.83    13.35    21.09    23.81    35.89    51.18
eigval :       62.22    66.64    72.98    86.22   100.77   102.50
eigval :      106.95   122.87   143.57   146.65   154.82   180.86
eigval :      184.44   203.45   220.23   228.17   266.15   272.60
eigval :      273.40   278.71   293.34   324.57   339.15   342.48
eigval :      392.65   396.23   400.90   417.86   424.69   429.41
eigval :      435.75   436.36   445.58   459.19   464.10   495.64
eigval :      498.49   518.34   518.65   521.72   541.22   541.66
eigval :      542.35   548.36   582.67   583.93   600.96   601.76
eigval :      608.65   608.87   650.82   671.31   673.65   674.71
eigval :      686.39   690.87   707.53   708.17   721.79   722.80
eigval :      727.76   733.14   756.96   757.79   769.37   769.56
eigval :      780.08   780.55   786.35   789.11   869.44   870.19
eigval :      873.20   874.03   886.04   889.51   897.41   897.59
eigval :      901.68   902.56   902.88   903.87   917.81   921.05
eigval :      921.31   921.57   922.12   922.94   923.21   924.41
eigval :      930.48   930.77   973.35   975.13  1011.76  1012.60
eigval :     1047.36  1068.75  1069.86  1070.36  1073.74  1074.36
eigval :     1086.76  1093.73  1114.17  1119.00  1140.86  1150.59
eigval :     1152.23  1152.37  1174.72  1177.62  1177.98  1178.94
eigval :     1181.17  1181.75  1185.62  1195.76  1196.74  1230.86
eigval :     1236.75  1237.23  1243.61  1246.45  1249.09  1274.33
eigval :     1298.90  1299.69  1302.66  1304.43  1306.19  1316.10
eigval :     1323.67  1355.46  1357.46  1360.94  1362.44  1362.88
eigval :     1365.09  1417.01  1422.71  1427.44  1429.11  1431.47
eigval :     1434.05  1464.49  1475.55  1475.98  1477.77  1487.83
eigval :     1488.24  1532.91  1540.79  1563.69  1565.30  1574.85
eigval :     1576.84  1585.96  1586.91  1589.88  1592.13  1599.44
eigval :     1599.85  1614.42  1615.15  3065.05  3074.20  3075.98
eigval :     3076.04  3077.00  3079.87  3080.29  3081.61  3083.62
eigval :     3084.80  3085.56  3087.46  3087.77  3089.41  3093.15
eigval :     3094.33  3094.36  3095.44  3096.29  3098.40  3099.66
eigval :     3101.45  3107.94  3113.76

   temp. (K)  partition function   enthalpy   heat capacity  entropy
                                   cal/mol     cal/K/mol   cal/K/mol   J/K/mol
 298.15  VIB  0.279E+15            18615.012    120.837    115.650
         ROT  0.407E+08              888.752      2.981     37.801
         INT  0.113E+23            19503.765    123.817    153.450
         TR   0.126E+29             1481.254      4.968     44.793
         TOT                       20985.0185   128.7856   198.2439   829.4523

       T/K    H(0)-H(T)+PV         H(T)/Eh          T*S/Eh         G(T)/Eh
   ------------------------------------------------------------------------
    298.15    0.334418E-01    0.539121E+00    0.941921E-01    0.444929E+00
   ------------------------------------------------------------------------

         :::::::::::::::::::::::::::::::::::::::::::::::::::::
         ::                  THERMODYNAMIC                  ::
         :::::::::::::::::::::::::::::::::::::::::::::::::::::
         :: total free energy        -108.997664981761 Eh   ::
         ::.................................................::
         :: total energy             -109.442593748641 Eh   ::
         :: zero point energy           0.505679062897 Eh   ::
         :: G(RRHO) w/o ZPVE           -0.060750296017 Eh   ::
         :: G(RRHO) contrib.            0.444928766880 Eh   ::
         :::::::::::::::::::::::::::::::::::::::::::::::::::::

           -------------------------------------------------
          | TOTAL ENERGY             -109.442593748641 Eh   |
          | TOTAL ENTHALPY           -108.903472930095 Eh   |
          | TOTAL FREE ENERGY        -108.997664981761 Eh   |
          | GRADIENT NORM               0.000062535181 Eh/α |
          | HOMO-LUMO GAP               2.009065735212 eV   |
           -------------------------------------------------

 * finished run on 2025/08/25 at 08:39:26.540
