   * xtb version 6.7.1 (edcfbbe) compiled by 'albert@albert-system' on 2024-07-22

   ID    Z sym.   atoms
    1    6 C      1-4, 6-19, 22-28, 30-41, 43
    2    7 N      5, 20, 21, 29
    3    8 O      42
    4    1 H      44-67

          program call               : xtb data2507/gas/o-CzOXD/o-CzOXD.xyz --gfn 2 --ohess vtight --parallel 40 --molden --ceasefiles --namespace data2507/gas/o-CzOXD/o-CzOXD_gas_S0_preOpt
          :  Hamiltonian                  GFN2-xTB          :
 * total energy  :  -109.4158858 Eh     change       -0.2099625E-08 Eh
 * total energy  :  -109.4309677 Eh     change       -0.1508191E-01 Eh
 * total energy  :  -109.4346444 Eh     change       -0.3676681E-02 Eh
 * total energy  :  -109.4358197 Eh     change       -0.1175267E-02 Eh
 * total energy  :  -109.4368986 Eh     change       -0.1078929E-02 Eh
 * total energy  :  -109.4374578 Eh     change       -0.5591610E-03 Eh
 * total energy  :  -109.4378985 Eh     change       -0.4407310E-03 Eh
 * total energy  :  -109.4382225 Eh     change       -0.3240313E-03 Eh
 * total energy  :  -109.4384293 Eh     change       -0.2067786E-03 Eh
 * total energy  :  -109.4385220 Eh     change       -0.9263703E-04 Eh
 * total energy  :  -109.4394298 Eh     change       -0.7650090E-05 Eh
 * total energy  :  -109.4394340 Eh     change       -0.4147123E-05 Eh
 * total energy  :  -109.4394362 Eh     change       -0.2239767E-05 Eh
 * total energy  :  -109.4394368 Eh     change       -0.5803400E-06 Eh
 * total energy  :  -109.4394376 Eh     change       -0.8062124E-06 Eh
 * total energy  :  -109.4394382 Eh     change       -0.5850904E-06 Eh
 * total energy  :  -109.4394385 Eh     change       -0.3033789E-06 Eh
 * total energy  :  -109.4394386 Eh     change       -0.1102608E-06 Eh
 * total energy  :  -109.4394386 Eh     change       -0.1087895E-07 Eh
   *** GEOMETRY OPTIMIZATION CONVERGED AFTER 49 ITERATIONS ***

 final structure:
================
67
 xtb: 6.7.1 (edcfbbe)
C           -3.94915588474815       -4.12975201195722       -0.50962994119253
C           -5.03203977001163       -3.27356988279448       -0.37158984044785
C           -4.82574519845369       -1.91849422248061       -0.19848137738524
C           -3.53753013320400       -1.39221386803511       -0.14723688937910
N           -3.36814793999111       -0.01512840935208       -0.01269305116403
C           -2.67169103448547        0.80756819396450       -0.87644915861170
C           -2.06507833480875        0.50210913960023       -2.08440065936066
C           -1.48262961571460        1.53514152954061       -2.79221863354340
C           -1.49809818600290        2.84196719388097       -2.31296322808107
C           -2.11986641963798        3.15475555835508       -1.12111883030465
C           -2.72310043923052        2.13469802101886       -0.39855884475029
C           -3.48451740846084        2.10219339481417        0.81990406997539
C           -3.86433339556121        3.07119150717786        1.73813904031916
C           -4.61612420355660        2.68914507496696        2.83230885456471
C           -4.97913189646954        1.35862903613701        3.02350368334033
C           -4.61042434941567        0.37507371129922        2.12436393774304
C           -3.87126612891244        0.75754228889398        1.01589940242351
C           -2.43972017741591       -2.26553433716298       -0.24124619748011
C           -1.08656928962474       -1.79804232277570       -0.05374482936381
N           -0.68406417806099       -0.61713946716432        0.31733330899174
N            0.64478135168242       -0.66095816463678        0.42665912416764
C            1.02163329702149       -1.86911002059415        0.12390829614921
C            2.35648738518496       -2.41989829332108        0.18439120421699
C            2.52434101395887       -3.80137851764773        0.27492403033408
C            3.77895562994558       -4.34653046783109        0.45932856464561
C            4.88441203058967       -3.51508216081331        0.56210726164254
C            4.73760359716757       -2.14587494277413        0.44308192178781
C            3.48236221783537       -1.58091971899696        0.23759563243869
N            3.36399678669263       -0.20437837466388        0.05242108913151
C            3.80407367923587        0.77398958220463        0.92168376693923
C            4.42056565569788        0.64272340459392        2.15620187189926
C            4.75059169581696        1.79965502012634        2.83722768326244
C            4.46888753452435        3.05745747556676        2.31032570439181
C            3.83885085634812        3.19202507102803        1.08853222529056
C            3.49995130125015        2.04482902700881        0.38447943627491
C            2.85767544287896        1.81163540871574       -0.87976062950920
C            2.38423151330484        2.64874412354984       -1.88065340807270
C            1.86798870779183        2.08182426380794       -3.02820855660558
C            1.82138340883622        0.69935099690620       -3.18642017035543
C            2.27701329043545       -0.15335730780121       -2.19994607212441
C            2.78609203181791        0.41102377937384       -1.04088878404018
O           -0.03919395480668       -2.65018806311660       -0.19039133518556
C           -2.66575805572093       -3.62863396507928       -0.44112935299272
H           -4.10791887271426       -5.18635754229296       -0.66138877957050
H           -6.03824316678031       -3.66237007650308       -0.41407671229998
H           -5.66427597286056       -1.24283004564089       -0.11872994432200
H           -2.05380962720157       -0.50906378193266       -2.46554864148483
H           -1.00875564242873        1.32512451519812       -3.73886159818775
H           -1.02390689880327        3.62091598438588       -2.89093465899382
H           -2.14610707698564        4.17133499364497       -0.75863876085157
H           -3.57265570466630        4.10109007750779        1.59843511140325
H           -4.92364641928612        3.42853990109241        3.55694503578976
H           -5.55844996436959        1.08824829907554        3.89424595396308
H           -4.88389119037339       -0.65722077033204        2.28673950230581
H            1.65449340838183       -4.43878310373252        0.21993355606229
H            3.89576580950730       -5.41680664129054        0.53313510398445
H            5.86554709924781       -3.93740473556247        0.71850553222581
H            5.59901697315195       -1.49642901651486        0.48805695963958
H            4.62841833245275       -0.32953342933591        2.57802902507034
H            5.23428500203576        1.72616995486926        3.80030605628917
H            4.74295398060065        3.93775182116016        2.87276531592496
H            3.60949830937612        4.16764069291114        0.68741027122851
H            2.43068673244492        3.72088295923537       -1.76430190314558
H            1.50357401282055        2.71548554108264       -3.82298694893560
H            1.42841521400648        0.28271858160373       -4.10264131432001
H            2.24861184409235       -1.22529266361853       -2.33678960801226
H           -1.81729761534969       -4.29089479852869       -0.52620087376594

          :  Hamiltonian                  GFN2-xTB          :
         :: gradient norm              0.000120070795 Eh/a0 ::
         :: HOMO-LUMO gap              1.917891204316 eV    ::
         :: SCC energy              -111.395296697258 Eh    ::
         :: -> dispersion             -0.101002041286 Eh    ::
         :: repulsion energy           1.955858098427 Eh    ::

    * Orbital Energies and Occupations

         #    Occupation            Energy/Eh            Energy/eV
      -------------------------------------------------------------
         1        2.0000           -0.7687540             -20.9189
       ...           ...                  ...                  ...
        89        2.0000           -0.4129360             -11.2366
        90        2.0000           -0.4120624             -11.2128
        91        2.0000           -0.4111646             -11.1884
        92        2.0000           -0.4108829             -11.1807
        93        2.0000           -0.4093185             -11.1381
        94        2.0000           -0.4003002             -10.8927
        95        2.0000           -0.3964546             -10.7881
        96        2.0000           -0.3950913             -10.7510
        97        2.0000           -0.3837199             -10.4416
        98        2.0000           -0.3710408             -10.0965
        99        2.0000           -0.3683635             -10.0237
       100        2.0000           -0.3582604              -9.7488
       101        2.0000           -0.3565687              -9.7027 (HOMO)
       102                         -0.2860875              -7.7848 (LUMO)
       103                         -0.2623454              -7.1388
       104                         -0.2454919              -6.6802
       105                         -0.2448587              -6.6629
       106                         -0.2362092              -6.4276
       107                         -0.2340983              -6.3701
       108                         -0.2141112              -5.8263
       109                         -0.2124662              -5.7815
       110                         -0.1953478              -5.3157
       111                         -0.1869497              -5.0872
       112                         -0.1850461              -5.0354
       ...                                ...                  ...
       196                          0.7573385              20.6082
      -------------------------------------------------------------
                  HL-Gap            0.0704812 Eh            1.9179 eV

     #   Z          covCN         q      C6AA      α(0)
     1   6 C        2.917    -0.032    28.802     8.801
     2   6 C        2.918    -0.024    28.615     8.772
     3   6 C        2.923    -0.039    28.975     8.827
     4   6 C        2.914     0.071    26.422     8.429
     5   7 N        2.804    -0.035    21.909     6.952
     6   6 C        3.076     0.054    26.710     8.473
     7   6 C        2.910    -0.044    29.091     8.844
     8   6 C        2.925    -0.030    28.751     8.793
     9   6 C        2.921    -0.038    28.937     8.821
    10   6 C        2.913    -0.030    28.741     8.791
    11   6 C        3.069    -0.009    28.173     8.703
    12   6 C        3.068    -0.011    28.215     8.710
    13   6 C        2.913    -0.031    28.778     8.797
    14   6 C        2.920    -0.041    29.011     8.833
    15   6 C        2.924    -0.034    28.836     8.806
    16   6 C        2.910    -0.050    29.247     8.868
    17   6 C        3.076     0.049    26.817     8.490
    18   6 C        2.973    -0.017    28.425     8.745
    19   6 C        3.168     0.218    23.111     7.855
    20   7 N        2.051    -0.194    25.935     7.554
    21   7 N        2.049    -0.196    25.981     7.561
    22   6 C        3.170     0.220    23.057     7.845
    23   6 C        2.974    -0.017    28.419     8.744
    24   6 C        2.925    -0.026    28.658     8.779
    25   6 C        2.917    -0.032    28.802     8.801
    26   6 C        2.919    -0.024    28.614     8.772
    27   6 C        2.922    -0.039    28.982     8.828
    28   6 C        2.915     0.071    26.415     8.428
    29   7 N        2.804    -0.034    21.905     6.951
    30   6 C        3.076     0.050    26.788     8.486
    31   6 C        2.910    -0.049    29.225     8.865
    32   6 C        2.924    -0.033    28.820     8.804
    33   6 C        2.920    -0.040    29.002     8.831
    34   6 C        2.913    -0.031    28.768     8.795
    35   6 C        3.069    -0.011    28.214     8.709
    36   6 C        3.069    -0.009    28.174     8.703
    37   6 C        2.913    -0.030    28.740     8.791
    38   6 C        2.921    -0.038    28.933     8.821
    39   6 C        2.925    -0.031    28.762     8.795
    40   6 C        2.910    -0.047    29.160     8.855
    41   6 C        3.078     0.052    26.748     8.479
    42   8 O        1.722    -0.232    17.843     5.703
    43   6 C        2.926    -0.027    28.669     8.781
    44   1 H        0.926     0.043     2.410     2.428
    45   1 H        0.926     0.045     2.384     2.414
    46   1 H        0.926     0.051     2.309     2.376
    47   1 H        0.926     0.015     2.812     2.622
    48   1 H        0.926     0.031     2.577     2.510
    49   1 H        0.926     0.030     2.588     2.516
    50   1 H        0.926     0.034     2.532     2.488
    51   1 H        0.926     0.033     2.540     2.492
    52   1 H        0.926     0.029     2.607     2.525
    53   1 H        0.926     0.029     2.606     2.525
    54   1 H        0.926     0.023     2.685     2.562
    55   1 H        0.926     0.048     2.346     2.395
    56   1 H        0.926     0.043     2.405     2.425
    57   1 H        0.926     0.045     2.381     2.413
    58   1 H        0.926     0.051     2.308     2.376
    59   1 H        0.926     0.025     2.665     2.553
    60   1 H        0.926     0.029     2.596     2.519
    61   1 H        0.926     0.029     2.600     2.522
    62   1 H        0.926     0.033     2.538     2.491
    63   1 H        0.926     0.034     2.528     2.487
    64   1 H        0.926     0.030     2.591     2.517
    65   1 H        0.926     0.027     2.630     2.536
    66   1 H        0.926     0.014     2.823     2.628
    67   1 H        0.926     0.049     2.333     2.389

molecular dipole:
                 x           y           z       tot (Debye)
 q only:        0.015      -1.067      -0.191
   full:        0.007      -1.969      -0.314       5.069

 projected vibrational frequencies (cm⁻¹)
eigval :       -0.00    -0.00    -0.00    -0.00     0.00     0.00
eigval :       11.04    16.06    22.36    30.65    43.48    57.91
eigval :       64.78    66.43    71.28    91.64    95.62   101.75
eigval :      115.62   125.67   143.92   145.95   150.45   173.97
eigval :      177.38   186.19   219.96   246.37   264.60   271.21
eigval :      274.80   276.28   299.06   307.29   332.00   363.56
eigval :      393.09   395.19   399.19   420.13   423.28   430.72
eigval :      432.27   443.19   445.20   450.00   463.03   494.78
eigval :      502.65   518.04   518.42   518.62   540.41   541.68
eigval :      543.30   549.03   582.53   583.84   599.29   601.81
eigval :      608.13   608.78   648.66   671.14   672.97   674.50
eigval :      683.24   693.03   706.88   707.23   721.68   723.79
eigval :      727.42   733.34   757.64   757.82   766.25   770.78
eigval :      778.24   782.53   784.97   786.90   867.86   868.74
eigval :      869.80   871.52   884.85   885.67   897.35   897.62
eigval :      898.70   901.19   901.36   903.39   916.99   917.55
eigval :      918.03   920.84   920.89   921.70   923.67   924.79
eigval :      929.91   930.13   970.41   972.14  1012.69  1013.11
eigval :     1041.38  1062.40  1070.01  1070.04  1073.74  1074.10
eigval :     1091.40  1093.19  1113.42  1117.55  1148.58  1151.60
eigval :     1151.99  1152.67  1176.51  1178.38  1179.09  1179.87
eigval :     1180.93  1183.59  1189.88  1195.33  1197.08  1236.70
eigval :     1237.32  1240.93  1244.18  1247.30  1248.75  1269.31
eigval :     1296.55  1299.31  1299.81  1304.09  1305.64  1319.22
eigval :     1324.83  1357.57  1358.08  1363.59  1364.12  1364.75
eigval :     1366.82  1416.49  1418.18  1429.45  1429.91  1430.96
eigval :     1432.29  1474.20  1476.33  1477.16  1478.91  1488.51
eigval :     1488.76  1530.75  1535.11  1562.55  1564.45  1577.31
eigval :     1577.58  1585.86  1586.11  1592.98  1593.30  1600.45
eigval :     1600.74  1615.41  1615.97  3063.80  3068.17  3072.76
eigval :     3073.78  3075.45  3078.62  3079.42  3079.99  3083.45
eigval :     3085.23  3085.36  3086.40  3087.17  3089.41  3089.56
eigval :     3090.36  3093.50  3094.89  3095.70  3096.73  3096.99
eigval :     3099.49  3103.02  3103.36

   temp. (K)  partition function   enthalpy   heat capacity  entropy
                                   cal/mol     cal/K/mol   cal/K/mol   J/K/mol
 298.15  VIB  0.589E+14            18592.214    121.309    114.550
         ROT  0.406E+08              888.752      2.981     37.795
         INT  0.239E+22            19480.966    124.289    152.345
         TR   0.126E+29             1481.254      4.968     44.793
         TOT                       20962.2200   129.2576   197.1381   824.8256

       T/K    H(0)-H(T)+PV         H(T)/Eh          T*S/Eh         G(T)/Eh
   ------------------------------------------------------------------------
    298.15    0.334054E-01    0.538971E+00    0.936667E-01    0.445305E+00
   ------------------------------------------------------------------------

         :::::::::::::::::::::::::::::::::::::::::::::::::::::
         ::                  THERMODYNAMIC                  ::
         :::::::::::::::::::::::::::::::::::::::::::::::::::::
         :: total free energy        -108.994134054640 Eh   ::
         ::.................................................::
         :: total energy             -109.439438598832 Eh   ::
         :: zero point energy           0.505565773326 Eh   ::
         :: G(RRHO) w/o ZPVE           -0.060261229135 Eh   ::
         :: G(RRHO) contrib.            0.445304544192 Eh   ::
         :::::::::::::::::::::::::::::::::::::::::::::::::::::

           -------------------------------------------------
          | TOTAL ENERGY             -109.439438598832 Eh   |
          | TOTAL ENTHALPY           -108.900467401641 Eh   |
          | TOTAL FREE ENERGY        -108.994134054640 Eh   |
          | GRADIENT NORM               0.000120058246 Eh/α |
          | HOMO-LUMO GAP               1.917891202395 eV   |
           -------------------------------------------------

 * finished run on 2025/08/25 at 08:36:05.752
