   * xtb version 6.7.1 (edcfbbe) compiled by 'albert@albert-system' on 2024-07-22

   ID    Z sym.   atoms
    1    6 C      1-4, 6-19, 22-28, 30-41, 43
    2    7 N      5, 20, 21, 29
    3    8 O      42
    4    1 H      44-67

          program call               : xtb data2507/gas/o-CzOXD/o-CzOXD_gas_S0_finalOpt.xtbopt.xyz --gfn 2 --spinpol --tblite --uhf 2 --ohess vtight --parallel 40 --molden --ceasefiles --namespace data2507/gas/o-CzOXD/o-CzOXD_gas_T1_preOpt
 * total energy  :  -109.3495933 Eh     change        0.2936204E-08 Eh
 * total energy  :  -109.3547519 Eh     change       -0.5158623E-02 Eh
 * total energy  :  -109.3571325 Eh     change       -0.2380622E-02 Eh
 * total energy  :  -109.3574099 Eh     change       -0.2773789E-03 Eh
 * total energy  :  -109.3577239 Eh     change       -0.3139818E-03 Eh
 * total energy  :  -109.3578129 Eh     change       -0.8897554E-04 Eh
 * total energy  :  -109.3579151 Eh     change       -0.1022650E-03 Eh
 * total energy  :  -109.3579712 Eh     change       -0.5607348E-04 Eh
 * total energy  :  -109.3580145 Eh     change       -0.4324699E-04 Eh
 * total energy  :  -109.3580570 Eh     change       -0.4258587E-04 Eh
 * total energy  :  -109.3588262 Eh     change       -0.3717329E-06 Eh
 * total energy  :  -109.3588265 Eh     change       -0.2838992E-06 Eh
 * total energy  :  -109.3588267 Eh     change       -0.2168315E-06 Eh
 * total energy  :  -109.3588270 Eh     change       -0.2676656E-06 Eh
 * total energy  :  -109.3588275 Eh     change       -0.5101206E-06 Eh
 * total energy  :  -109.3588277 Eh     change       -0.1532806E-06 Eh
 * total energy  :  -109.3588278 Eh     change       -0.1321683E-06 Eh
 * total energy  :  -109.3588279 Eh     change       -0.1037596E-06 Eh
 * total energy  :  -109.3588279 Eh     change       -0.4233181E-07 Eh
   *** GEOMETRY OPTIMIZATION CONVERGED AFTER 63 ITERATIONS ***

 final structure:
================
67
 xtb: 6.7.1 (edcfbbe)
C           -0.53084763646459        3.61862147164386       -0.96275845872966
C           -1.90285498448226        3.89515960058062       -0.98978007906061
C           -2.81494400571887        2.86503833435376       -0.82596705392823
C           -2.38762486801030        1.56395827555443       -0.62444095851490
N           -3.31955405729930        0.52843265682296       -0.53625933871281
C           -4.37657245574401        0.47170610989968        0.33906433087618
C           -4.72607840799178        1.35365963880635        1.35437257000563
C           -5.83670475276323        1.04864997911875        2.11770735421974
C           -6.58047371133028       -0.10658984912209        1.88632193935817
C           -6.22549027226208       -0.99864833078691        0.88864282982994
C           -5.11697008229589       -0.71371201099785        0.10845826261689
C           -4.46523072408535       -1.39171413832359       -0.98141883950094
C           -4.73023251556963       -2.56372119029676       -1.67213158151683
C           -3.89964431131208       -2.91418109568240       -2.72192019912803
C           -2.83108970235472       -2.10314570768486       -3.09340646362372
C           -2.54992923023257       -0.92893473179617       -2.41978721963227
C           -3.36035848372573       -0.59052077113195       -1.34652950517510
C           -0.99020652158486        1.28335799968539       -0.51774875448944
C           -0.53022813672472        0.02495741344028       -0.10857386503743
N           -1.24740786152623       -0.99502146552283        0.37592455054071
N           -0.44223927015148       -1.93587174637417        0.74197285233699
C            0.81490445374839       -1.53302191618839        0.51553204105201
C            1.97453572998404       -2.24796925318766        0.84988841729294
C            1.84595197015381       -3.61011788042890        1.22282958360189
C            2.94684397968274       -4.39794656396481        1.40751671061611
C            4.23494179103566       -3.87077791830064        1.24099036145580
C            4.39234921989382       -2.53447426498009        0.92184873467281
C            3.29439202746239       -1.70454893566992        0.75371457618592
N            3.49541424650349       -0.34595396851134        0.50013505030818
C            2.95344561543282        0.69819770145779        1.21923080420886
C            2.15680436917174        0.66590756686967        2.35652436997342
C            1.73368850582223        1.87235622847190        2.88009379523406
C            2.10840823510079        3.08499814272310        2.30564535191692
C            2.93640071809564        3.12430719961974        1.19817140512288
C            3.36732493598038        1.92581941761951        0.64987255096066
C            4.20912256399547        1.59141516073246       -0.46793073828529
C            4.88858341909553        2.34486821833045       -1.41247939126264
C            5.60671631807740        1.68464173697355       -2.39380897724196
C            5.63707410383323        0.29347328786465       -2.44852841375742
C            4.96498578481146       -0.47924200184264       -1.51941162751494
C            4.26253698795109        0.17781698457418       -0.51880653679296
O            0.81570089838607       -0.26461972824513       -0.02747023448432
C           -0.08026429013391        2.34731040456378       -0.73600363628361
H            0.17668209044126        4.41945178137465       -1.11737681379502
H           -2.25062336230753        4.90066127816847       -1.16653237464363
H           -3.87541349047733        3.06144438016369       -0.89436167107566
H           -4.14212833730642        2.24115210769196        1.54515025679112
H           -6.13278045854110        1.71672753200940        2.91272253143344
H           -7.44285728945490       -0.31038571866510        2.50335821498909
H           -6.79629731844320       -1.89982184628288        0.72418565011567
H           -5.56836609925025       -3.18602903351696       -1.39747926693021
H           -4.08440140899222       -3.82670841744750       -3.26885406833913
H           -2.20930902251334       -2.39650870814660       -3.92624406906880
H           -1.72393265881679       -0.29974354014944       -2.71548456598899
H            0.84551956369118       -3.99655066002824        1.33485304829187
H            2.82928280675540       -5.43516603550310        1.68276891893574
H            5.10124294332563       -4.49488813748104        1.39345464598298
H            5.38193881458941       -2.10698043588851        0.84393997105168
H            1.86663628871157       -0.27086526426834        2.80873573095078
H            1.09883194380239        1.87482129360301        3.75347908344293
H            1.75103993802134        4.00683719770877        2.73941398492900
H            3.23958179279018        4.06584648350853        0.76550039566276
H            4.85313834180186        3.42343062260332       -1.38269619600170
H            6.14589564696253        2.25392697694685       -3.13614519247307
H            6.19410843147465       -0.19238996800578       -3.23565585765671
H            4.97774615650888       -1.55703188425822       -1.57668172138678
H            0.97544172122493        2.13023043199521       -0.69791759672421

 projected vibrational frequencies (cm⁻¹)
eigval :       -0.00    -0.00    -0.00    -0.00     0.00     0.00
eigval :        9.15    15.04    23.81    25.58    36.85    52.99
eigval :       62.64    68.73    76.29    85.82   101.16   103.07
eigval :      112.44   127.10   140.79   142.89   154.14   169.05
eigval :      181.23   200.90   214.32   228.55   256.07   266.25
eigval :      269.30   274.48   291.51   308.05   331.93   348.25
eigval :      387.82   392.37   402.23   404.34   418.54   421.21
eigval :      427.89   432.25   438.72   443.30   456.39   469.85
eigval :      477.03   514.76   515.04   516.95   535.85   536.56
eigval :      549.90   553.37   579.33   582.08   582.56   595.57
eigval :      597.55   602.90   605.94   634.64   660.10   662.41
eigval :      673.44   673.89   677.68   681.54   708.24   708.96
eigval :      719.50   730.83   750.05   755.92   756.17   756.66
eigval :      768.20   768.44   776.90   777.11   847.22   855.72
eigval :      868.10   868.71   869.59   870.73   891.02   891.53
eigval :      895.28   898.92   899.68   900.32   902.77   903.03
eigval :      905.62   907.69   911.40   912.64   915.54   918.31
eigval :      919.38   920.12   920.30   921.43  1010.37  1011.19
eigval :     1013.35  1025.59  1064.08  1066.08  1067.57  1070.14
eigval :     1070.50  1072.93  1092.21  1099.92  1134.13  1139.90
eigval :     1143.43  1145.64  1159.99  1171.48  1174.02  1174.82
eigval :     1178.44  1178.88  1181.55  1186.79  1197.45  1212.42
eigval :     1225.95  1228.82  1231.34  1234.34  1243.88  1247.74
eigval :     1280.20  1285.43  1290.85  1291.88  1298.65  1317.96
eigval :     1329.71  1336.58  1342.44  1349.87  1357.03  1358.73
eigval :     1363.72  1365.81  1388.52  1389.36  1410.23  1411.57
eigval :     1413.92  1417.46  1427.14  1427.79  1461.52  1462.59
eigval :     1482.55  1483.04  1483.64  1488.20  1529.74  1548.03
eigval :     1565.18  1566.40  1568.00  1577.24  1579.26  1581.67
eigval :     1583.29  1600.10  1601.74  3076.58  3078.09  3079.05
eigval :     3080.10  3080.47  3080.68  3083.41  3084.09  3084.16
eigval :     3085.88  3086.39  3086.71  3090.64  3091.04  3093.15
eigval :     3093.77  3097.21  3098.07  3098.32  3099.41  3101.25
eigval :     3101.30  3111.32  3111.41

   temp. (K)  partition function   enthalpy   heat capacity  entropy
                                   cal/mol     cal/K/mol   cal/K/mol   J/K/mol
 298.15  VIB  0.132E+15            18886.688    123.071    116.264
         ROT  0.417E+08              888.752      2.981     37.850
         INT  0.550E+22            19775.441    126.051    154.115
         TR   0.126E+29             1481.254      4.968     44.793
         TOT                       21256.6947   131.0196   198.9079   832.2308

       T/K    H(0)-H(T)+PV         H(T)/Eh          T*S/Eh         G(T)/Eh
   ------------------------------------------------------------------------
    298.15    0.338747E-01    0.534887E+00    0.945076E-01    0.440379E+00
   ------------------------------------------------------------------------

         :::::::::::::::::::::::::::::::::::::::::::::::::::::
         ::                  THERMODYNAMIC                  ::
         :::::::::::::::::::::::::::::::::::::::::::::::::::::
         :: total free energy        -108.918448761815 Eh   ::
         ::.................................................::
         :: total energy             -109.358827969315 Eh   ::
         :: zero point energy           0.501012085397 Eh   ::
         :: G(RRHO) w/o ZPVE           -0.060632877896 Eh   ::
         :: G(RRHO) contrib.            0.440379207501 Eh   ::
         :::::::::::::::::::::::::::::::::::::::::::::::::::::

           -------------------------------------------------
          | TOTAL ENERGY             -109.358827969315 Eh   |
          | TOTAL ENTHALPY           -108.823941184620 Eh   |
          | TOTAL FREE ENERGY        -108.918448761815 Eh   |
          | GRADIENT NORM               0.000032980051 Eh/α |
           -------------------------------------------------

 * finished run on 2025/08/25 at 08:39:36.385
