   * xtb version 6.7.1 (edcfbbe) compiled by 'albert@albert-system' on 2024-07-22

   ID    Z sym.   atoms
    1    6 C      1-4, 6-19, 22-28, 30-41, 43
    2    7 N      5, 20, 21, 29
    3    8 O      42
    4    1 H      44-67

          program call               : xtb data2507/gas/o-CzOXD/o-CzOXD_gas_T1_crest.xyz --gfn 2 --spinpol --tblite --uhf 2 --ohess vtight --parallel 40 --molden --ceasefiles --namespace data2507/gas/o-CzOXD/o-CzOXD_gas_T1_finalOpt
 * total energy  :  -109.3597952 Eh     change       -0.2062265E-08 Eh
 * total energy  :  -109.3598020 Eh     change       -0.6734250E-05 Eh
 * total energy  :  -109.3598066 Eh     change       -0.4652366E-05 Eh
 * total energy  :  -109.3598077 Eh     change       -0.1112040E-05 Eh
 * total energy  :  -109.3598091 Eh     change       -0.1380389E-05 Eh
 * total energy  :  -109.3598103 Eh     change       -0.1222139E-05 Eh
 * total energy  :  -109.3598114 Eh     change       -0.1060453E-05 Eh
 * total energy  :  -109.3598123 Eh     change       -0.9293221E-06 Eh
 * total energy  :  -109.3598133 Eh     change       -0.9525688E-06 Eh
 * total energy  :  -109.3598143 Eh     change       -0.1043445E-05 Eh
 * total energy  :  -109.3598152 Eh     change       -0.9009851E-06 Eh
 * total energy  :  -109.3598159 Eh     change       -0.6760400E-06 Eh
 * total energy  :  -109.3598162 Eh     change       -0.3247561E-06 Eh
 * total energy  :  -109.3598165 Eh     change       -0.2323393E-06 Eh
 * total energy  :  -109.3598165 Eh     change       -0.4297404E-07 Eh
 * total energy  :  -109.3598166 Eh     change       -0.8201633E-07 Eh
   *** GEOMETRY OPTIMIZATION CONVERGED AFTER 16 ITERATIONS ***

 final structure:
================
67
 xtb: 6.7.1 (edcfbbe)
C           -0.41489460135918        3.78431563961932       -0.37564537339353
C           -1.78397639652672        4.07698146068148       -0.32561920241680
C           -2.70502660852072        3.04522895256391       -0.25337945338332
C           -2.29255378128174        1.72322653434176       -0.24456220880046
N           -3.22485739295019        0.70272634691514       -0.06271671494564
C           -3.17588021859983       -0.25831568472691        0.92818483116147
C           -2.26547182175086       -0.40745302990937        1.96481214808634
C           -2.46829935260964       -1.44770048552881        2.85196665502248
C           -3.55511034813860       -2.30860151630800        2.72655011977791
C           -4.48393488251870       -2.14202550614304        1.71447041033136
C           -4.29913135375350       -1.10757378180499        0.81121226778905
C           -5.05737065358478       -0.62690407857234       -0.31462044143287
C           -6.22831728373668       -1.04078358466873       -0.92745259814602
C           -6.68506659644457       -0.33557383149436       -2.02843452609815
C           -5.98068422320585        0.75847241103002       -2.52517163383560
C           -4.80860434107261        1.18883355158172       -1.93215848458718
C           -4.35702003878598        0.49762501052400       -0.81506404544384
C           -0.90349121364988        1.41197407390256       -0.38682285345495
C           -0.45726217780778        0.10210213191711       -0.60320015616480
N           -1.17469062612027       -1.01092145331497       -0.79868967598474
N           -0.36452819391370       -2.01200541122614       -0.91363734144747
C            0.89003321018480       -1.56333869625744       -0.78171421630681
C            2.05567880860822       -2.34475795070590       -0.75877619702222
C            1.98785263031842       -3.70307551598409       -1.15536120664273
C            3.12497382658743       -4.44889818078087       -1.29657494585052
C            4.38303593505745       -3.88741290755171       -1.03983657085268
C            4.47510553338522       -2.57875587298582       -0.59946542568458
C            3.33771348042322       -1.80809520394935       -0.42251076645345
N            3.44497746020127       -0.51722684684705        0.10361758234704
C            2.75222639844923       -0.03859702399363        1.19585333594370
C            1.91131059626524       -0.71466865409189        2.07082439359081
C            1.32688373787691        0.01234473931385        3.08983829047104
C            1.57838681869088        1.37349744591146        3.24931757148321
C            2.44425795162541        2.04273405639299        2.40339619040323
C            3.04367007781256        1.33443587468875        1.37336333806820
C            3.97102916113058        1.68919723444687        0.33166627192824
C            4.59854583328664        2.87161956134702       -0.02833942624813
C            5.43369321410326        2.86839182229135       -1.13163722176487
C            5.63252513999551        1.71039853068340       -1.87928604053752
C            5.01485901416457        0.52013508692768       -1.54226295551662
C            4.19287317285495        0.51285558956359       -0.42410917907227
O            0.88993069581412       -0.19540103086905       -0.61973061178251
C            0.01943555623760        2.48827069902613       -0.40003168854584
H            0.30111346352840        4.59222049282337       -0.39880851563294
H           -2.11897973185261        5.10192980405671       -0.30544141271785
H           -3.75861725952565        3.26331983540536       -0.15241749344728
H           -1.42264963699028        0.25960007406411        2.07037364608941
H           -1.77019752589105       -1.59645748930485        3.66241969512588
H           -3.67562693880513       -3.11331216780358        3.43644870950154
H           -5.33502553772059       -2.80051075318708        1.62990074964451
H           -6.76928160151966       -1.89814846353112       -0.55697988906819
H           -7.59749213917288       -0.64154997037475       -2.51807717819342
H           -6.35621678647902        1.27826817926831       -3.39392744373986
H           -4.25606432319582        2.02650532776568       -2.32951835024793
H            1.01101233876634       -4.11018092210356       -1.36179948596445
H            3.05904037755177       -5.47917121299755       -1.61234983502169
H            5.27562045095846       -4.48230481901414       -1.15266119723505
H            5.43651045345333       -2.15526618879765       -0.34573859228447
H            1.70888711824316       -1.76863222962042        1.94991707200052
H            0.66154806456441       -0.48609984598302        3.77900873576740
H            1.09319756364061        1.90918892461345        4.05168614127811
H            2.64833780653282        3.09412908599591        2.53840631442417
H            4.43330644890437        3.77492200517346        0.53934885288183
H            5.93417474444229        3.77878049919129       -1.42590959422390
H            6.27936287955050        1.74381053713960       -2.74320945699681
H            5.15839460054890       -0.37076321879290       -2.13449629513642
H            1.07177447722663        2.25551610355729       -0.45408879249268

 projected vibrational frequencies (cm⁻¹)
eigval :       -0.00    -0.00     0.00     0.00     0.00     0.00
eigval :       14.91    20.23    22.44    25.84    36.26    52.94
eigval :       62.95    66.90    75.07    92.78   101.82   104.18
eigval :      115.88   123.63   138.74   144.20   156.34   168.78
eigval :      182.56   201.28   215.12   222.20   264.01   265.01
eigval :      269.84   274.83   285.12   310.21   332.15   350.93
eigval :      385.72   392.72   397.17   414.03   417.89   421.00
eigval :      421.68   427.29   435.64   441.77   461.07   464.06
eigval :      476.69   514.38   514.87   516.21   532.74   535.82
eigval :      537.36   552.19   560.02   580.89   582.34   595.09
eigval :      595.42   602.88   606.16   635.38   652.30   670.97
eigval :      673.40   674.01   674.24   682.09   708.35   708.97
eigval :      719.32   730.05   748.99   754.65   756.07   756.21
eigval :      768.27   768.97   776.69   777.63   846.52   855.67
eigval :      868.16   868.86   869.31   870.42   888.59   891.43
eigval :      894.36   898.65   899.65   900.53   902.36   903.39
eigval :      905.62   906.39   911.52   912.98   915.18   917.46
eigval :      918.70   920.18   920.65   921.63  1010.11  1011.03
eigval :     1013.24  1026.23  1062.25  1066.49  1067.27  1069.95
eigval :     1071.67  1072.00  1091.72  1099.66  1133.82  1140.53
eigval :     1143.08  1145.50  1158.01  1171.39  1174.17  1174.72
eigval :     1178.42  1178.66  1180.81  1186.27  1196.98  1205.40
eigval :     1224.97  1228.97  1231.34  1233.20  1243.05  1246.64
eigval :     1278.79  1285.66  1289.40  1291.26  1294.74  1315.13
eigval :     1328.94  1335.43  1342.60  1349.06  1356.17  1358.91
eigval :     1363.34  1366.04  1387.72  1388.24  1410.93  1412.55
eigval :     1413.91  1416.21  1425.81  1427.93  1461.52  1463.09
eigval :     1482.57  1483.47  1485.48  1486.41  1526.16  1546.60
eigval :     1563.02  1566.69  1567.68  1577.01  1579.60  1581.94
eigval :     1582.36  1600.68  1601.96  3076.91  3077.18  3078.15
eigval :     3079.16  3080.55  3081.01  3082.76  3083.26  3083.51
eigval :     3085.69  3086.44  3086.74  3089.33  3090.86  3092.98
eigval :     3094.06  3096.84  3097.54  3098.80  3099.14  3099.60
eigval :     3101.09  3104.00  3112.18

   temp. (K)  partition function   enthalpy   heat capacity  entropy
                                   cal/mol     cal/K/mol   cal/K/mol   J/K/mol
 298.15  VIB  0.640E+14            18891.822    123.234    115.583
         ROT  0.394E+08              888.752      2.981     37.734
         INT  0.252E+22            19780.574    126.215    153.317
         TR   0.126E+29             1481.254      4.968     44.793
         TOT                       21261.8278   131.1831   198.1104   828.8938

       T/K    H(0)-H(T)+PV         H(T)/Eh          T*S/Eh         G(T)/Eh
   ------------------------------------------------------------------------
    298.15    0.338829E-01    0.534659E+00    0.941286E-01    0.440530E+00
   ------------------------------------------------------------------------

         :::::::::::::::::::::::::::::::::::::::::::::::::::::
         ::                  THERMODYNAMIC                  ::
         :::::::::::::::::::::::::::::::::::::::::::::::::::::
         :: total free energy        -108.919286222663 Eh   ::
         ::.................................................::
         :: total energy             -109.359816577512 Eh   ::
         :: zero point energy           0.500776106274 Eh   ::
         :: G(RRHO) w/o ZPVE           -0.060245751425 Eh   ::
         :: G(RRHO) contrib.            0.440530354849 Eh   ::
         :::::::::::::::::::::::::::::::::::::::::::::::::::::

           -------------------------------------------------
          | TOTAL ENERGY             -109.359816577512 Eh   |
          | TOTAL ENTHALPY           -108.825157591919 Eh   |
          | TOTAL FREE ENERGY        -108.919286222663 Eh   |
          | GRADIENT NORM               0.000198211863 Eh/α |
           -------------------------------------------------

 * finished run on 2025/08/25 at 08:43:45.130
