   * xtb version 6.7.1 (edcfbbe) compiled by 'albert@albert-system' on 2024-07-22

   ID    Z sym.   atoms
    1    6 C      1, 2, 4-8, 10-28, 30-44
    2    7 N      3, 9, 29
    3    1 H      45-71

          program call               : xtb data2507/gas/CBPPY/CBPPY.xyz --gfn 2 --ohess vtight --parallel 40 --molden --ceasefiles --namespace data2507/gas/CBPPY/CBPPY_gas_S0_preOpt
          :  Hamiltonian                  GFN2-xTB          :
 * total energy  :  -110.3756767 Eh     change       -0.2840537E-08 Eh
 * total energy  :  -110.3902988 Eh     change       -0.1462216E-01 Eh
 * total energy  :  -110.3933027 Eh     change       -0.3003894E-02 Eh
 * total energy  :  -110.3939677 Eh     change       -0.6649807E-03 Eh
 * total energy  :  -110.3947480 Eh     change       -0.7803061E-03 Eh
 * total energy  :  -110.3951927 Eh     change       -0.4446765E-03 Eh
 * total energy  :  -110.3955730 Eh     change       -0.3803352E-03 Eh
 * total energy  :  -110.3958942 Eh     change       -0.3212090E-03 Eh
 * total energy  :  -110.3961604 Eh     change       -0.2661157E-03 Eh
 * total energy  :  -110.3963933 Eh     change       -0.2328867E-03 Eh
 * total energy  :  -110.3974343 Eh     change       -0.3744492E-06 Eh
 * total energy  :  -110.3974346 Eh     change       -0.3652202E-06 Eh
 * total energy  :  -110.3974350 Eh     change       -0.3537010E-06 Eh
 * total energy  :  -110.3974353 Eh     change       -0.3721963E-06 Eh
 * total energy  :  -110.3974358 Eh     change       -0.4232506E-06 Eh
 * total energy  :  -110.3974363 Eh     change       -0.4840114E-06 Eh
 * total energy  :  -110.3974368 Eh     change       -0.4987498E-06 Eh
 * total energy  :  -110.3974372 Eh     change       -0.4296896E-06 Eh
 * total energy  :  -110.3974372 Eh     change       -0.1729106E-08 Eh
   *** GEOMETRY OPTIMIZATION CONVERGED AFTER 68 ITERATIONS ***

 final structure:
================
71
 xtb: 6.7.1 (edcfbbe)
C            0.77884933151736        2.80617844073856        2.48451680731006
C            0.34816784391590        4.04980111538748        2.04508099414739
N           -0.59983709237822        4.20503098141981        1.13748978794190
C           -1.15777935347255        3.12585321512255        0.62452475038937
C           -0.80436188696507        1.82414431263837        0.98036316402269
C           -1.47355306879991        0.66594516497389        0.36901451796965
C           -2.86150778023596        0.63368481541825        0.33576352177440
C           -3.53944991851094       -0.45576971356216       -0.19923150644217
N           -4.93783656170791       -0.46590287728292       -0.23265723891870
C           -5.74132924490882        0.55578048484658       -0.70222648189701
C           -5.38642173417446        1.76754212454530       -1.27697141920902
C           -6.40211670802100        2.60757284166636       -1.69159135016531
C           -7.74197559322946        2.25369740277328       -1.55038735082501
C           -8.10096474214894        1.03805595512048       -1.00359853997594
C           -7.09755046265982        0.17720161421153       -0.57899773748367
C           -7.10409905650273       -1.13727679698709       -0.00019517781804
C           -8.11697201783106       -2.01158199619929        0.37082829905115
C           -7.77146647640493       -3.22243175897797        0.93671421057319
C           -6.43640909603078       -3.55818950952541        1.14918325539646
C           -5.41119384778876       -2.70477894672440        0.78854172365121
C           -5.75121688520385       -1.49780906605839        0.19485354621209
C           -2.81291308801191       -1.53393779663660       -0.69851452454906
C           -1.43385117789334       -1.50808655338667       -0.66015766112221
C           -0.74345051881838       -0.41591754359029       -0.14261189677306
C            0.72801858194725       -0.40950635354263       -0.17665501856844
C            1.44671640251005       -1.49797793162626        0.31112786751587
C            2.82664199874993       -1.50559208310833        0.27991010597944
C            3.51909996830772       -0.41840955461267       -0.24596215414885
N            4.91919856067043       -0.42151092977509       -0.27311981475018
C            5.74630811092896       -0.69693618196487        0.79785312173611
C            5.42085619649285       -0.96569548348057        2.11955481975096
C            6.45677801295260       -1.18146190581002        3.00806775175555
C            7.78791714410791       -1.12450371092079        2.60119110855711
C            8.11840558505173       -0.83394806382518        1.29271433106128
C            7.09460432196360       -0.61308679678337        0.38097589696626
C            7.06977951555758       -0.27649624712953       -1.01496668760051
C            8.06060207080686       -0.07953596726564       -1.96775790986083
C            7.68376842746775        0.21657762873656       -3.26231448924503
C            6.33875901613136        0.30302106113295       -3.61488957396619
C            5.33493182089559        0.11143846390225       -2.68497957729309
C            5.70793692234059       -0.16358187066179       -1.37727086445476
C            2.80711716886570        0.66845246311914       -0.74705348396619
C            1.42773232653226        0.66850939266331       -0.71431542326387
C            0.19046203406945        1.67683253758249        1.94504841950735
H            1.55132986588715        2.72432123292237        3.23337959952931
H            0.77527182586618        4.96355016391808        2.43638548966182
H           -1.91914281531904        3.30500325522719       -0.12452242844526
H           -3.42276495472317        1.45130199621626        0.76353510770613
H           -4.35117354227226        2.04301914988481       -1.41050104932251
H           -6.15104347744028        3.55825240199168       -2.13832805845365
H           -8.50661153891696        2.93925547478751       -1.88398459965950
H           -9.13870206027484        0.75568235212854       -0.90985722141336
H           -9.15195627709628       -1.74321381000382        0.22191382019790
H           -8.54351432018033       -3.91820390260791        1.22970549925437
H           -6.19681688214519       -4.50537293777443        1.60970097505268
H           -4.38086999513600       -2.96716964582009        0.97609904688590
H           -3.33224161959046       -2.37467353350641       -1.13242940174977
H           -0.87274826781548       -2.33652632449620       -1.06746405332360
H            0.91556431558346       -2.34075238948874        0.72974633448511
H            3.37624411110806       -2.35810854710340        0.65026195983640
H            4.39271143025432       -0.99515116578310        2.44821339439396
H            6.22939247421213       -1.39577442507349        4.04204135383471
H            8.56882626217337       -1.30197385020753        3.32557751147234
H            9.15014388651613       -0.77406121055457        0.98067549388108
H            9.10253271421052       -0.16235096682923       -1.69757411228580
H            8.43839480711865        0.37524221958108       -4.01822210270319
H            6.07427723880734        0.52100935294095       -4.63914881662724
H            4.29542211509057        0.16312684593873       -2.97211349493488
H            3.34171676223136        1.51617917557887       -1.14838140560968
H            0.88391325410492        1.51174783560287       -1.11410836479473
H            0.48544763767106        0.69024787597098        2.27250840415593

          :  Hamiltonian                  GFN2-xTB          :
         :: gradient norm              0.000031344455 Eh/a0 ::
         :: HOMO-LUMO gap              2.613552443494 eV    ::
         :: SCC energy              -112.486960475454 Eh    ::
         :: -> dispersion             -0.099935091529 Eh    ::
         :: repulsion energy           2.089523293289 Eh    ::

    * Orbital Energies and Occupations

         #    Occupation            Energy/Eh            Energy/eV
      -------------------------------------------------------------
         1        2.0000           -0.6775754             -18.4378
       ...           ...                  ...                  ...
        91        2.0000           -0.4190364             -11.4026
        92        2.0000           -0.4185821             -11.3902
        93        2.0000           -0.4180885             -11.3768
        94        2.0000           -0.4168978             -11.3444
        95        2.0000           -0.4102680             -11.1640
        96        2.0000           -0.4054991             -11.0342
        97        2.0000           -0.4052381             -11.0271
        98        2.0000           -0.3997543             -10.8779
        99        2.0000           -0.3788835             -10.3099
       100        2.0000           -0.3786387             -10.3033
       101        2.0000           -0.3717433             -10.1156
       102        2.0000           -0.3650338              -9.9331
       103        2.0000           -0.3611517              -9.8274 (HOMO)
       104                         -0.2651054              -7.2139 (LUMO)
       105                         -0.2553826              -6.9493
       106                         -0.2494328              -6.7874
       107                         -0.2454592              -6.6793
       108                         -0.2435414              -6.6271
       109                         -0.2368406              -6.4448
       110                         -0.2260672              -6.1516
       111                         -0.2221523              -6.0451
       112                         -0.2218750              -6.0375
       113                         -0.2201565              -5.9908
       114                         -0.1927973              -5.2463
       ...                                ...                  ...
       203                          0.7460628              20.3014
      -------------------------------------------------------------
                  HL-Gap            0.0960463 Eh            2.6136 eV

     #   Z          covCN         q      C6AA      α(0)
     1   6 C        2.912    -0.038    28.956     8.824
     2   6 C        2.914     0.058    26.695     8.472
     3   7 N        1.835    -0.217    26.576     7.640
     4   6 C        2.919     0.055    26.758     8.483
     5   6 C        2.974     0.004    27.940     8.670
     6   6 C        2.979     0.005    27.906     8.665
     7   6 C        2.928    -0.049    29.222     8.865
     8   6 C        2.911     0.064    26.560     8.451
     9   7 N        2.803    -0.044    22.083     6.979
    10   6 C        3.074     0.046    26.881     8.501
    11   6 C        2.910    -0.050    29.246     8.868
    12   6 C        2.924    -0.033    28.820     8.804
    13   6 C        2.920    -0.040    29.001     8.831
    14   6 C        2.913    -0.033    28.810     8.802
    15   6 C        3.068    -0.017    28.353     8.731
    16   6 C        3.068    -0.016    28.350     8.731
    17   6 C        2.913    -0.033    28.811     8.802
    18   6 C        2.920    -0.041    29.008     8.832
    19   6 C        2.924    -0.033    28.833     8.806
    20   6 C        2.910    -0.051    29.268     8.871
    21   6 C        3.074     0.046    26.881     8.501
    22   6 C        2.920    -0.045    29.122     8.849
    23   6 C        2.925    -0.034    28.845     8.808
    24   6 C        2.979     0.002    27.971     8.675
    25   6 C        2.977     0.009    27.822     8.652
    26   6 C        2.925    -0.035    28.861     8.810
    27   6 C        2.921    -0.043    29.078     8.843
    28   6 C        2.913     0.064    26.576     8.453
    29   7 N        2.803    -0.045    22.099     6.982
    30   6 C        3.076     0.046    26.879     8.500
    31   6 C        2.910    -0.051    29.268     8.871
    32   6 C        2.924    -0.034    28.837     8.806
    33   6 C        2.920    -0.041    29.015     8.833
    34   6 C        2.913    -0.033    28.813     8.802
    35   6 C        3.068    -0.017    28.359     8.732
    36   6 C        3.068    -0.017    28.361     8.732
    37   6 C        2.913    -0.033    28.814     8.802
    38   6 C        2.920    -0.041    29.010     8.833
    39   6 C        2.924    -0.033    28.827     8.805
    40   6 C        2.910    -0.051    29.263     8.870
    41   6 C        3.075     0.047    26.876     8.500
    42   6 C        2.921    -0.043    29.067     8.841
    43   6 C        2.924    -0.032    28.787     8.799
    44   6 C        2.933    -0.014    28.359     8.733
    45   1 H        0.926     0.036     2.496     2.471
    46   1 H        0.925     0.040     2.445     2.445
    47   1 H        0.925     0.038     2.478     2.462
    48   1 H        0.926     0.044     2.400     2.423
    49   1 H        0.926     0.026     2.648     2.545
    50   1 H        0.926     0.030     2.580     2.512
    51   1 H        0.926     0.029     2.601     2.522
    52   1 H        0.926     0.031     2.566     2.505
    53   1 H        0.926     0.031     2.565     2.505
    54   1 H        0.926     0.028     2.609     2.526
    55   1 H        0.926     0.029     2.601     2.522
    56   1 H        0.926     0.026     2.639     2.540
    57   1 H        0.926     0.044     2.399     2.422
    58   1 H        0.926     0.039     2.461     2.453
    59   1 H        0.926     0.036     2.499     2.472
    60   1 H        0.926     0.042     2.421     2.433
    61   1 H        0.926     0.025     2.659     2.550
    62   1 H        0.926     0.028     2.608     2.525
    63   1 H        0.926     0.028     2.613     2.528
    64   1 H        0.926     0.031     2.569     2.507
    65   1 H        0.926     0.031     2.570     2.507
    66   1 H        0.926     0.028     2.610     2.526
    67   1 H        0.926     0.029     2.598     2.520
    68   1 H        0.926     0.027     2.635     2.539
    69   1 H        0.926     0.042     2.421     2.433
    70   1 H        0.926     0.034     2.535     2.490
    71   1 H        0.926     0.033     2.548     2.496

molecular dipole:
                 x           y           z       tot (Debye)
 q only:        0.044      -0.395       0.088
   full:        0.168      -0.749       0.209       2.022

 projected vibrational frequencies (cm⁻¹)
eigval :       -0.00    -0.00    -0.00     0.00     0.00     0.00
eigval :       11.81    14.73    16.73    26.66    33.86    38.90
eigval :       47.38    62.10    82.32    84.23    93.65   103.49
eigval :      104.72   108.49   112.93   144.74   145.12   174.33
eigval :      182.32   197.20   213.43   233.49   257.96   270.28
eigval :      271.70   274.48   287.37   297.05   327.71   363.01
eigval :      366.88   381.01   384.01   393.03   394.96   410.36
eigval :      418.87   423.23   424.52   434.44   437.31   463.10
eigval :      496.84   510.90   517.82   519.09   529.26   532.71
eigval :      541.14   541.22   542.87   566.68   583.47   588.67
eigval :      594.28   596.71   611.51   616.72   620.71   636.29
eigval :      671.27   673.69   673.85   686.49   694.05   700.38
eigval :      708.60   709.29   712.26   748.77   755.55   759.91
eigval :      769.41   769.51   780.74   780.83   788.71   806.04
eigval :      820.53   841.48   867.23   868.29   873.38   874.44
eigval :      881.80   893.07   898.00   898.61   901.42   902.35
eigval :      902.90   903.11   908.15   915.08   919.20   920.77
eigval :      921.48   923.54   925.76   926.52   929.68   930.31
eigval :      935.05   957.78  1000.56  1005.46  1012.15  1012.88
eigval :     1035.24  1070.24  1070.65  1073.80  1074.19  1088.63
eigval :     1097.10  1117.84  1119.50  1135.97  1140.72  1151.14
eigval :     1152.74  1156.23  1176.18  1176.72  1181.33  1181.41
eigval :     1183.58  1187.90  1197.35  1202.49  1234.30  1236.74
eigval :     1236.82  1243.42  1245.80  1265.46  1267.28  1269.74
eigval :     1279.43  1288.83  1300.12  1302.28  1303.81  1304.95
eigval :     1313.23  1314.83  1356.10  1357.97  1360.64  1362.41
eigval :     1363.87  1376.74  1396.45  1402.81  1411.19  1427.99
eigval :     1428.40  1429.18  1436.58  1461.75  1476.26  1476.61
eigval :     1480.82  1488.16  1488.37  1507.38  1549.40  1561.65
eigval :     1562.92  1574.36  1575.25  1575.47  1586.78  1589.43
eigval :     1589.68  1599.18  1599.44  1599.67  1615.12  1615.52
eigval :     3049.64  3062.01  3075.22  3075.40  3076.35  3076.54
eigval :     3077.36  3077.42  3080.86  3081.47  3081.98  3082.11
eigval :     3082.80  3083.64  3087.60  3088.38  3089.49  3089.99
eigval :     3091.08  3093.52  3094.42  3095.25  3095.80  3096.73
eigval :     3097.16  3097.51  3099.02

   temp. (K)  partition function   enthalpy   heat capacity  entropy
                                   cal/mol     cal/K/mol   cal/K/mol   J/K/mol
 298.15  VIB  0.510E+15            19350.256    125.805    119.098
         ROT  0.722E+08              888.752      2.981     38.940
         INT  0.368E+23            20239.008    128.786    158.038
         TR   0.129E+29             1481.254      4.968     44.842
         TOT                       21720.2619   133.7538   202.8793   848.8469

       T/K    H(0)-H(T)+PV         H(T)/Eh          T*S/Eh         G(T)/Eh
   ------------------------------------------------------------------------
    298.15    0.346134E-01    0.580602E+00    0.963945E-01    0.484208E+00
   ------------------------------------------------------------------------

         :::::::::::::::::::::::::::::::::::::::::::::::::::::
         ::                  THERMODYNAMIC                  ::
         :::::::::::::::::::::::::::::::::::::::::::::::::::::
         :: total free energy        -109.913229491292 Eh   ::
         ::.................................................::
         :: total energy             -110.397437182164 Eh   ::
         :: zero point energy           0.545988738012 Eh   ::
         :: G(RRHO) w/o ZPVE           -0.061781047139 Eh   ::
         :: G(RRHO) contrib.            0.484207690873 Eh   ::
         :::::::::::::::::::::::::::::::::::::::::::::::::::::

           -------------------------------------------------
          | TOTAL ENERGY             -110.397437182164 Eh   |
          | TOTAL ENTHALPY           -109.816835003622 Eh   |
          | TOTAL FREE ENERGY        -109.913229491292 Eh   |
          | GRADIENT NORM               0.000031342789 Eh/α |
          | HOMO-LUMO GAP               2.613552151547 eV   |
           -------------------------------------------------

 * finished run on 2025/08/22 at 08:16:29.601
