   * xtb version 6.7.1 (edcfbbe) compiled by 'albert@albert-system' on 2024-07-22

   ID    Z sym.   atoms
    1    6 C      1, 2, 4-8, 10-28, 30-44
    2    7 N      3, 9, 29
    3    1 H      45-71

          program call               : xtb data2507/gas/CBPPY/CBPPY_gas_S0_crest.xyz --gfn 2 --ohess vtight --parallel 40 --molden --ceasefiles --namespace data2507/gas/CBPPY/CBPPY_gas_S0_finalOpt
          :  Hamiltonian                  GFN2-xTB          :
 * total energy  :  -110.3978255 Eh     change       -0.1720039E-08 Eh
 * total energy  :  -110.3978268 Eh     change       -0.1268006E-05 Eh
 * total energy  :  -110.3978290 Eh     change       -0.2187375E-05 Eh
 * total energy  :  -110.3978328 Eh     change       -0.3762765E-05 Eh
 * total energy  :  -110.3978379 Eh     change       -0.5161982E-05 Eh
 * total energy  :  -110.3978425 Eh     change       -0.4605477E-05 Eh
 * total energy  :  -110.3978458 Eh     change       -0.3236611E-05 Eh
 * total energy  :  -110.3978485 Eh     change       -0.2717242E-05 Eh
 * total energy  :  -110.3978514 Eh     change       -0.2942325E-05 Eh
 * total energy  :  -110.3978535 Eh     change       -0.2068416E-05 Eh
 * total energy  :  -110.3978562 Eh     change       -0.5308276E-06 Eh
 * total energy  :  -110.3978564 Eh     change       -0.2381732E-06 Eh
 * total energy  :  -110.3978568 Eh     change       -0.4107214E-06 Eh
 * total energy  :  -110.3978578 Eh     change       -0.9502232E-06 Eh
 * total energy  :  -110.3978591 Eh     change       -0.1300743E-05 Eh
 * total energy  :  -110.3978600 Eh     change       -0.8863120E-06 Eh
 * total energy  :  -110.3978605 Eh     change       -0.5237878E-06 Eh
 * total energy  :  -110.3978609 Eh     change       -0.4267235E-06 Eh
 * total energy  :  -110.3978609 Eh     change       -0.3315094E-08 Eh
   *** GEOMETRY OPTIMIZATION CONVERGED AFTER 22 ITERATIONS ***

 final structure:
================
71
 xtb: 6.7.1 (edcfbbe)
C           -0.29701820677470        3.86897136180906        1.69795425294345
C            0.71579980394531        4.17954464541536        0.80377480789741
N            1.00751930082066        3.42821297646042       -0.24524310335794
C            0.31764738236314        2.32217989012448       -0.43587417444008
C           -0.70019464169942        1.88613792706359        0.41542950585040
C           -1.42198424938819        0.62849539780281        0.16671181699571
C           -2.81048228894939        0.63686727717267        0.16547361738993
C           -3.53174258907077       -0.51730979266305       -0.11709965134728
N           -4.93123411326666       -0.48533193629174       -0.12745767808849
C           -5.71357853009225        0.43095690123028       -0.80375833314462
C           -5.33489572762818        1.46696703548186       -1.64545593874408
C           -6.33425859164063        2.22577318209929       -2.22409912780289
C           -7.68069729840768        1.96164860162972       -1.98337780825732
C           -8.06386790964719        0.91699104163322       -1.16637853198285
C           -7.07763260278157        0.13984006112383       -0.57337468347786
C           -7.11060460792545       -1.00703557128738        0.29051004975117
C           -8.14007659455323       -1.73639526828958        0.87049322932133
C           -7.81742730035040       -2.79878768135998        1.69081565010412
C           -6.48826937715102       -3.12758741125403        1.94741382678212
C           -5.44673228199044       -2.41690640748439        1.38220844229635
C           -5.76505370402541       -1.36322549564540        0.53760294813573
C           -2.84978470958893       -1.69914421451553       -0.39392616891078
C           -1.46965568144762       -1.71539696092006       -0.37500578176646
C           -0.73643965295343       -0.56674241144301       -0.09443044240379
C            0.73338207552717       -0.61958572528125       -0.05744308808881
C            1.43840801139739       -0.09122510420598        1.02213088980052
C            2.81689515939530       -0.08802286511543        1.02930178867378
C            3.52359427140507       -0.60998424653769       -0.05148637138894
N            4.92140437320891       -0.55006097234906       -0.06588200592337
C            5.67074178512752        0.58847953247227        0.16124629592097
C            5.24903226774698        1.89049119763436        0.39041639361531
C            6.21981587807552        2.85915413986900        0.55882822628878
C            7.57689702172383        2.55006165126138        0.49365128231701
C            8.00063356689922        1.26125269865937        0.23868503962767
C            7.04428121363547        0.26932599771426        0.06470584660892
C            7.11771298313437       -1.13378345025003       -0.23388301902838
C            8.17241841814708       -2.01576193174922       -0.42788263988533
C            7.88747373403424       -3.34158875139506       -0.68682795278652
C            6.57114370347881       -3.79461769258047       -0.73886745962533
C            5.50477347106129       -2.93672330535157       -0.54872215081244
C            5.78447094925337       -1.59870150261394       -0.31144278529399
C            2.82716438717091       -1.17557417588704       -1.11541381000322
C            1.44664096736545       -1.18531144351817       -1.11073253542065
C           -1.01519374222520        2.70232383441696        1.49872495978586
H           -0.51380746316480        4.51786347955532        2.53249389028325
H            1.31934506041749        5.06936478015910        0.92388922303352
H            0.58069456821898        1.75230442939824       -1.31756569574339
H           -3.33911706516995        1.55461708685851        0.37817622197089
H           -4.29508949402659        1.66940072866797       -1.85451763350790
H           -6.06461671075456        3.03959059706008       -2.88100168183222
H           -8.43155289727216        2.57968823770675       -2.45268259535865
H           -9.10729799523296        0.70130311557072       -0.99271213989783
H           -9.16979436198953       -1.47108206816159        0.68413798246169
H           -8.60280048874702       -3.38059082623536        2.14984779129657
H           -6.26640182705811       -3.95450324122124        2.60588654783713
H           -4.42011801939627       -2.66893240297327        1.60201627835471
H           -3.40484666101878       -2.59334017788776       -0.63341647558893
H           -0.94320549171227       -2.63779932481411       -0.57220303614526
H            0.89876820714856        0.30794802183617        1.86838051459069
H            3.35724688813933        0.31460495462381        1.87275472665075
H            4.20000495074127        2.14511743375714        0.41974768967653
H            5.91854832802846        3.88033522638959        0.73970703357567
H            8.30426716693698        3.33593384023214        0.63381365384069
H            9.05187907474598        1.02530856754434        0.16902243626453
H            9.19290713000358       -1.66774880273238       -0.37254099858938
H            8.69328013391411       -4.04324718147223       -0.84346435890979
H            6.37987115119338       -4.84062823966097       -0.92873655238982
H            4.48839148986046       -3.30032270121218       -0.57339987419907
H            3.37270844420383       -1.57902744548786       -1.95525644738397
H            0.91112681917552       -1.59997956111666       -1.95257302303045
H           -1.79849422564546        2.41177574602498        2.18526595351859

          :  Hamiltonian                  GFN2-xTB          :
         :: gradient norm              0.000042834005 Eh/a0 ::
         :: HOMO-LUMO gap              2.556691956057 eV    ::
         :: SCC energy              -112.487238909698 Eh    ::
         :: -> dispersion             -0.100595100250 Eh    ::
         :: repulsion energy           2.089377992871 Eh    ::

    * Orbital Energies and Occupations

         #    Occupation            Energy/Eh            Energy/eV
      -------------------------------------------------------------
         1        2.0000           -0.6780552             -18.4508
       ...           ...                  ...                  ...
        91        2.0000           -0.4184146             -11.3856
        92        2.0000           -0.4177761             -11.3683
        93        2.0000           -0.4153971             -11.3035
        94        2.0000           -0.4134661             -11.2510
        95        2.0000           -0.4102470             -11.1634
        96        2.0000           -0.4059904             -11.0476
        97        2.0000           -0.4017738             -10.9328
        98        2.0000           -0.3970159             -10.8034
        99        2.0000           -0.3793712             -10.3232
       100        2.0000           -0.3751613             -10.2087
       101        2.0000           -0.3725001             -10.1362
       102        2.0000           -0.3643325              -9.9140
       103        2.0000           -0.3588491              -9.7648 (HOMO)
       104                         -0.2648925              -7.2081 (LUMO)
       105                         -0.2540982              -6.9144
       106                         -0.2505208              -6.8170
       107                         -0.2452215              -6.6728
       108                         -0.2408832              -6.5548
       109                         -0.2337877              -6.3617
       110                         -0.2253835              -6.1330
       111                         -0.2226189              -6.0578
       112                         -0.2194422              -5.9713
       113                         -0.2183538              -5.9417
       114                         -0.1922080              -5.2302
       ...                                ...                  ...
       203                          0.7494272              20.3930
      -------------------------------------------------------------
                  HL-Gap            0.0939567 Eh            2.5567 eV

     #   Z          covCN         q      C6AA      α(0)
     1   6 C        2.912    -0.039    28.966     8.825
     2   6 C        2.914     0.058    26.704     8.474
     3   7 N        1.835    -0.219    26.615     7.645
     4   6 C        2.917     0.059    26.687     8.471
     5   6 C        2.974     0.004    27.933     8.669
     6   6 C        2.979     0.005    27.913     8.666
     7   6 C        2.928    -0.048    29.203     8.862
     8   6 C        2.911     0.063    26.579     8.454
     9   7 N        2.803    -0.044    22.098     6.982
    10   6 C        3.075     0.046    26.881     8.501
    11   6 C        2.910    -0.051    29.263     8.870
    12   6 C        2.924    -0.033    28.828     8.805
    13   6 C        2.920    -0.041    29.007     8.832
    14   6 C        2.913    -0.033    28.814     8.802
    15   6 C        3.068    -0.017    28.358     8.732
    16   6 C        3.068    -0.017    28.358     8.732
    17   6 C        2.913    -0.033    28.814     8.802
    18   6 C        2.920    -0.041    29.010     8.832
    19   6 C        2.924    -0.033    28.831     8.805
    20   6 C        2.910    -0.051    29.270     8.871
    21   6 C        3.075     0.046    26.880     8.500
    22   6 C        2.920    -0.045    29.115     8.848
    23   6 C        2.924    -0.034    28.839     8.807
    24   6 C        2.979     0.002    27.968     8.675
    25   6 C        2.977     0.007    27.856     8.657
    26   6 C        2.924    -0.031    28.774     8.797
    27   6 C        2.921    -0.042    29.038     8.837
    28   6 C        2.914     0.065    26.540     8.448
    29   7 N        2.803    -0.043    22.079     6.979
    30   6 C        3.076     0.047    26.877     8.500
    31   6 C        2.909    -0.050    29.243     8.867
    32   6 C        2.925    -0.033    28.814     8.803
    33   6 C        2.920    -0.041    29.014     8.833
    34   6 C        2.913    -0.033    28.825     8.804
    35   6 C        3.068    -0.017    28.366     8.733
    36   6 C        3.068    -0.017    28.359     8.732
    37   6 C        2.913    -0.033    28.818     8.803
    38   6 C        2.920    -0.041    29.023     8.834
    39   6 C        2.924    -0.034    28.841     8.807
    40   6 C        2.910    -0.051    29.273     8.872
    41   6 C        3.074     0.046    26.882     8.501
    42   6 C        2.920    -0.043    29.056     8.840
    43   6 C        2.925    -0.034    28.842     8.807
    44   6 C        2.933    -0.017    28.433     8.745
    45   1 H        0.926     0.037     2.490     2.467
    46   1 H        0.925     0.040     2.449     2.447
    47   1 H        0.925     0.036     2.498     2.472
    48   1 H        0.926     0.042     2.421     2.433
    49   1 H        0.926     0.026     2.642     2.542
    50   1 H        0.926     0.029     2.596     2.520
    51   1 H        0.926     0.029     2.608     2.525
    52   1 H        0.926     0.031     2.567     2.506
    53   1 H        0.926     0.031     2.568     2.506
    54   1 H        0.926     0.028     2.610     2.526
    55   1 H        0.926     0.029     2.599     2.521
    56   1 H        0.926     0.027     2.636     2.539
    57   1 H        0.926     0.044     2.402     2.424
    58   1 H        0.926     0.040     2.454     2.449
    59   1 H        0.926     0.031     2.571     2.508
    60   1 H        0.926     0.042     2.425     2.435
    61   1 H        0.926     0.031     2.568     2.506
    62   1 H        0.926     0.030     2.584     2.514
    63   1 H        0.926     0.028     2.620     2.531
    64   1 H        0.926     0.030     2.582     2.513
    65   1 H        0.926     0.031     2.577     2.511
    66   1 H        0.926     0.027     2.624     2.533
    67   1 H        0.926     0.028     2.614     2.528
    68   1 H        0.926     0.026     2.650     2.546
    69   1 H        0.926     0.043     2.405     2.425
    70   1 H        0.926     0.037     2.487     2.466
    71   1 H        0.925     0.035     2.516     2.481

molecular dipole:
                 x           y           z       tot (Debye)
 q only:       -0.292      -0.148       0.245
   full:       -0.590      -0.236       0.490       2.040

 projected vibrational frequencies (cm⁻¹)
eigval :       -0.00    -0.00     0.00     0.00     0.00     0.00
eigval :       10.25    15.35    16.57    27.06    33.85    38.35
eigval :       49.25    61.71    78.14    87.84    91.67   104.14
eigval :      106.39   108.01   115.11   145.06   145.43   172.14
eigval :      180.21   201.36   220.92   237.49   252.17   263.84
eigval :      271.72   272.29   288.45   305.72   329.97   359.32
eigval :      370.17   377.50   385.73   393.39   395.61   408.56
eigval :      417.50   421.05   423.67   434.74   437.24   466.30
eigval :      496.92   511.50   517.98   519.20   528.65   534.24
eigval :      541.18   541.33   548.63   561.73   583.06   588.67
eigval :      590.57   598.41   611.76   615.83   620.51   637.33
eigval :      671.08   673.73   673.90   686.39   695.09   700.04
eigval :      708.76   709.37   712.90   748.46   755.45   759.67
eigval :      769.76   770.18   781.06   781.42   789.64   805.55
eigval :      819.87   841.77   867.63   869.26   874.12   875.13
eigval :      880.88   894.26   898.41   898.72   902.15   902.92
eigval :      904.17   905.29   906.22   915.11   918.93   920.81
eigval :      921.95   923.79   925.42   926.36   929.16   931.04
eigval :      934.65   957.66  1000.75  1005.14  1012.08  1012.75
eigval :     1035.43  1070.36  1070.68  1073.96  1074.15  1088.67
eigval :     1097.01  1118.06  1119.57  1136.15  1138.76  1151.13
eigval :     1152.98  1155.44  1176.38  1176.76  1181.35  1181.36
eigval :     1184.00  1187.96  1197.33  1202.73  1234.33  1237.17
eigval :     1237.68  1243.39  1245.46  1266.79  1267.36  1268.32
eigval :     1280.66  1289.38  1300.00  1302.96  1304.11  1305.21
eigval :     1313.30  1316.12  1356.24  1357.73  1360.46  1361.97
eigval :     1364.75  1377.59  1385.81  1407.05  1420.96  1427.69
eigval :     1428.30  1429.22  1436.26  1457.43  1476.19  1476.65
eigval :     1480.92  1488.20  1488.24  1507.66  1549.75  1561.34
eigval :     1564.25  1573.68  1575.09  1575.36  1587.19  1589.20
eigval :     1589.48  1599.03  1599.14  1599.54  1614.96  1615.26
eigval :     3059.15  3061.96  3066.46  3075.19  3076.26  3076.49
eigval :     3076.64  3078.27  3080.52  3081.11  3081.28  3082.11
eigval :     3082.45  3082.92  3087.21  3087.39  3088.43  3089.17
eigval :     3089.75  3092.49  3094.56  3095.01  3095.52  3096.18
eigval :     3096.68  3097.16  3098.24

   temp. (K)  partition function   enthalpy   heat capacity  entropy
                                   cal/mol     cal/K/mol   cal/K/mol   J/K/mol
 298.15  VIB  0.541E+15            19341.084    125.795    119.119
         ROT  0.704E+08              888.752      2.981     38.890
         INT  0.381E+23            20229.836    128.776    158.009
         TR   0.129E+29             1481.254      4.968     44.842
         TOT                       21711.0904   133.7443   202.8509   848.7284

       T/K    H(0)-H(T)+PV         H(T)/Eh          T*S/Eh         G(T)/Eh
   ------------------------------------------------------------------------
    298.15    0.345988E-01    0.580610E+00    0.963810E-01    0.484229E+00
   ------------------------------------------------------------------------

         :::::::::::::::::::::::::::::::::::::::::::::::::::::
         ::                  THERMODYNAMIC                  ::
         :::::::::::::::::::::::::::::::::::::::::::::::::::::
         :: total free energy        -109.913631956522 Eh   ::
         ::.................................................::
         :: total energy             -110.397860916827 Eh   ::
         :: zero point energy           0.546011165511 Eh   ::
         :: G(RRHO) w/o ZPVE           -0.061782205206 Eh   ::
         :: G(RRHO) contrib.            0.484228960305 Eh   ::
         :::::::::::::::::::::::::::::::::::::::::::::::::::::

           -------------------------------------------------
          | TOTAL ENERGY             -110.397860916827 Eh   |
          | TOTAL ENTHALPY           -109.817250926445 Eh   |
          | TOTAL FREE ENERGY        -109.913631956522 Eh   |
          | GRADIENT NORM               0.000042833123 Eh/α |
          | HOMO-LUMO GAP               2.556691397335 eV   |
           -------------------------------------------------

 * finished run on 2025/08/22 at 08:19:27.016
