   * xtb version 6.7.1 (edcfbbe) compiled by 'albert@albert-system' on 2024-07-22

   ID    Z sym.   atoms
    1    6 C      1, 2, 4-8, 10-28, 30-44
    2    7 N      3, 9, 29
    3    1 H      45-71

          program call               : xtb data2507/gas/CBPPY/CBPPY_gas_S0_finalOpt.xtbopt.xyz --gfn 2 --spinpol --tblite --uhf 2 --ohess vtight --parallel 40 --molden --ceasefiles --namespace data2507/gas/CBPPY/CBPPY_gas_T1_preOpt
 * total energy  :  -110.2946568 Eh     change       -0.3917977E-07 Eh
 * total energy  :  -110.2987662 Eh     change       -0.4109349E-02 Eh
 * total energy  :  -110.3018929 Eh     change       -0.3126763E-02 Eh
 * total energy  :  -110.3028637 Eh     change       -0.9708041E-03 Eh
 * total energy  :  -110.3043442 Eh     change       -0.1480483E-02 Eh
 * total energy  :  -110.3049986 Eh     change       -0.6543482E-03 Eh
 * total energy  :  -110.3053514 Eh     change       -0.3528052E-03 Eh
 * total energy  :  -110.3055377 Eh     change       -0.1863435E-03 Eh
 * total energy  :  -110.3056425 Eh     change       -0.1047279E-03 Eh
 * total energy  :  -110.3057169 Eh     change       -0.7447202E-04 Eh
 * total energy  :  -110.3070248 Eh     change       -0.8909776E-06 Eh
 * total energy  :  -110.3070259 Eh     change       -0.1101070E-05 Eh
 * total energy  :  -110.3070270 Eh     change       -0.1066442E-05 Eh
 * total energy  :  -110.3070278 Eh     change       -0.7919507E-06 Eh
 * total energy  :  -110.3070282 Eh     change       -0.4138308E-06 Eh
 * total energy  :  -110.3070286 Eh     change       -0.4063246E-06 Eh
 * total energy  :  -110.3070289 Eh     change       -0.2842307E-06 Eh
 * total energy  :  -110.3070291 Eh     change       -0.1766313E-06 Eh
 * total energy  :  -110.3070291 Eh     change       -0.7441533E-07 Eh
   *** GEOMETRY OPTIMIZATION CONVERGED AFTER 59 ITERATIONS ***

 final structure:
================
71
 xtb: 6.7.1 (edcfbbe)
C           -0.35182879168802        4.04471273830263        1.42264395951907
C            0.83358199185517        4.18602188105709        0.70123693225367
N            1.20902562174539        3.30156376920261       -0.20978734593959
C            0.48218169101134        2.23018566377064       -0.40533438696083
C           -0.69315079233417        1.92036013719422        0.32864203700321
C           -1.40638549609179        0.69347563124299        0.11288429503799
C           -2.79589723223487        0.66336765948481        0.20694365039078
C           -3.53226956706743       -0.43236602112866       -0.19863338466632
N           -4.92449250453841       -0.43396731536926       -0.12851165496248
C           -5.76674883230849        0.58152126539415       -0.53928429641595
C           -5.46526375456274        1.78894999541142       -1.15505088623592
C           -6.51510790525314        2.62040301976824       -1.49650248144009
C           -7.83787814426569        2.26365191661796       -1.24477542532043
C           -8.14704699035601        1.04950897944722       -0.66187708014294
C           -7.10986286107835        0.19769134821146       -0.31101239508913
C           -7.06609085370847       -1.11645872256156        0.26869317000714
C           -8.04125396110403       -1.99362950955260        0.72032458060812
C           -7.64473076988932       -3.20092278981979        1.26361073443177
C           -6.29515355946183       -3.52741156051795        1.37631846266847
C           -5.30579318703163       -2.66891625776767        0.93581825277945
C           -5.69871789031365       -1.46814537467388        0.36010229699625
C           -2.86007240955613       -1.55588371071919       -0.76751044954958
C           -1.50408462275185       -1.56840942016438       -0.84494660231458
C           -0.70791574859703       -0.51501579982401       -0.32259298455552
C            0.68908245099776       -0.66199597038298       -0.15778499207239
C            1.40353992839546        0.05442221290153        0.85648306905124
C            2.76581439051603        0.04355574915653        0.91791986249552
C            3.51943600560832       -0.68928026415219       -0.01267660573250
N            4.90471236665915       -0.60643153526808       -0.01176962156303
C            5.62562981425297        0.57191217584154        0.06831273073391
C            5.17059584656197        1.88352184509679        0.09842662326092
C            6.11737492779899        2.88987768685823        0.14344299963215
C            7.48160763303334        2.60760469458857        0.14688131046037
C            7.93929487536548        1.30480569529032        0.08181450437379
C            7.00889663962282        0.27695706167564        0.03535724894491
C            7.11945581730464       -1.15274041800752       -0.06859987262530
C            8.19667784964826       -2.02438954725178       -0.12273665294152
C            7.94695269994979       -3.38232771643960       -0.19280138729320
C            6.64316627640207       -3.87247651528947       -0.18791086970519
C            5.55362985611487       -3.02344953767562       -0.13350149325925
C            5.79690259507368       -1.65718810786712       -0.09704322863859
C            2.83701049364710       -1.49484954830192       -0.94897153225868
C            1.47454100889595       -1.49451529213640       -1.00684740199664
C           -1.10775289019332        2.90925210072309        1.24314825419994
H           -0.64505938122147        4.79854696760491        2.13748543144219
H            1.49496685667859        5.02728582414612        0.85191203566099
H            0.79136697683022        1.59964823490463       -1.22834646488170
H           -3.31934873873478        1.53264490526842        0.57680046238000
H           -4.44660378884761        2.06669754684617       -1.37818481585303
H           -6.30446165526994        3.56595856355133       -1.97371411099476
H           -8.63009305881554        2.94270434380890       -1.52254266570785
H           -9.17304651882933        0.76271102773442       -0.48736797659482
H           -9.08647620206695       -1.73240492741563        0.65207334141747
H           -8.38810169546344       -3.89915311860165        1.61828247697218
H           -6.01531126175266       -4.46958381415355        1.82377148641514
H           -4.26239392412780       -2.92062614625162        1.04871680694177
H           -3.44817165571150       -2.37098529131631       -1.16032768673925
H           -1.01331086654507       -2.43846673331964       -1.25437995335161
H            0.84308464592102        0.54258781674420        1.63841168527541
H            3.27984871608742        0.57187398270772        1.70741708138139
H            4.11731313702172        2.11755457318963        0.06886345783023
H            5.78971146950403        3.91814727553643        0.16952118383678
H            8.18954019849911        3.42204236982342        0.18651634103344
H            8.99661604379591        1.08801780530445        0.05980792473196
H            9.20780677155965       -1.64680854386304       -0.10439823491419
H            8.77200311998758       -4.07731800236732       -0.23891044538627
H            6.47972456181972       -4.93939407918494       -0.22094857219513
H            4.54847692463915       -3.41488581711590       -0.10344050048475
H            3.41111877625864       -2.06365784264362       -1.66533960509733
H            0.98564507392408       -2.06853665188701       -1.77863914591420
H           -1.99352779095988        2.74967441664463        1.84150078849047

 projected vibrational frequencies (cm⁻¹)
eigval :       -0.00    -0.00    -0.00    -0.00     0.00     0.00
eigval :        7.97    16.43    19.03    29.75    33.17    41.22
eigval :       52.02    71.12    78.84    93.89    98.83   104.47
eigval :      109.00   115.45   125.50   145.90   147.91   167.29
eigval :      192.21   205.40   230.98   239.77   253.39   262.65
eigval :      271.57   272.59   291.66   307.04   323.67   333.93
eigval :      374.87   380.66   383.75   386.77   396.04   396.40
eigval :      408.74   418.29   421.05   434.36   437.90   443.15
eigval :      472.60   484.79   515.78   516.00   522.94   529.55
eigval :      537.70   538.34   541.97   550.30   570.50   577.17
eigval :      585.10   588.44   596.77   600.20   612.11   617.56
eigval :      647.52   663.61   673.39   673.70   675.26   677.24
eigval :      686.33   708.39   708.80   727.85   754.49   755.57
eigval :      760.52   768.94   769.95   778.94   780.00   794.10
eigval :      798.34   805.36   832.35   862.57   864.25   869.42
eigval :      870.81   871.98   877.04   886.03   894.97   895.48
eigval :      897.02   899.75   904.06   905.51   907.00   908.56
eigval :      909.55   912.21   918.11   922.07   922.85   922.94
eigval :      929.84   939.55   957.81   972.63   992.31  1010.35
eigval :     1010.84  1025.88  1069.73  1069.89  1072.89  1073.25
eigval :     1084.92  1110.60  1113.51  1132.37  1136.24  1147.98
eigval :     1148.48  1155.53  1169.06  1172.56  1178.90  1179.08
eigval :     1179.64  1184.43  1193.74  1207.00  1212.47  1232.02
eigval :     1233.26  1237.14  1242.44  1253.68  1255.69  1271.32
eigval :     1284.89  1287.16  1292.93  1293.95  1294.52  1306.40
eigval :     1319.02  1338.78  1346.25  1350.29  1352.13  1356.08
eigval :     1360.47  1361.53  1362.62  1383.54  1398.66  1413.05
eigval :     1417.06  1418.11  1423.38  1426.26  1440.92  1459.33
eigval :     1461.50  1465.99  1471.16  1475.56  1480.00  1484.11
eigval :     1485.49  1512.45  1541.71  1568.44  1569.77  1570.21
eigval :     1579.02  1581.34  1583.27  1586.37  1600.05  1604.05
eigval :     3052.98  3066.11  3068.71  3078.50  3078.83  3079.34
eigval :     3079.60  3079.81  3080.46  3082.64  3084.01  3084.88
eigval :     3085.55  3086.03  3087.21  3087.60  3091.97  3092.78
eigval :     3093.59  3094.36  3094.75  3096.33  3097.49  3098.05
eigval :     3098.82  3099.24  3100.42

   temp. (K)  partition function   enthalpy   heat capacity  entropy
                                   cal/mol     cal/K/mol   cal/K/mol   J/K/mol
 298.15  VIB  0.365E+15            19492.502    127.913    119.365
         ROT  0.702E+08              888.752      2.981     38.886
         INT  0.256E+23            20381.255    130.894    158.251
         TR   0.129E+29             1481.254      4.968     44.842
         TOT                       21862.5086   135.8619   203.0928   849.7401

       T/K    H(0)-H(T)+PV         H(T)/Eh          T*S/Eh         G(T)/Eh
   ------------------------------------------------------------------------
    298.15    0.348401E-01    0.576885E+00    0.964959E-01    0.480389E+00
   ------------------------------------------------------------------------

         :::::::::::::::::::::::::::::::::::::::::::::::::::::
         ::                  THERMODYNAMIC                  ::
         :::::::::::::::::::::::::::::::::::::::::::::::::::::
         :: total free energy        -109.826640136889 Eh   ::
         ::.................................................::
         :: total energy             -110.307029168680 Eh   ::
         :: zero point energy           0.542044834897 Eh   ::
         :: G(RRHO) w/o ZPVE           -0.061655803106 Eh   ::
         :: G(RRHO) contrib.            0.480389031791 Eh   ::
         :::::::::::::::::::::::::::::::::::::::::::::::::::::

           -------------------------------------------------
          | TOTAL ENERGY             -110.307029168680 Eh   |
          | TOTAL ENTHALPY           -109.730144208655 Eh   |
          | TOTAL FREE ENERGY        -109.826640136889 Eh   |
          | GRADIENT NORM               0.000061720726 Eh/α |
           -------------------------------------------------

 * finished run on 2025/08/22 at 08:19:36.196
