   * xtb version 6.7.1 (edcfbbe) compiled by 'albert@albert-system' on 2024-07-22

   ID    Z sym.   atoms
    1    6 C      1, 2, 4-8, 10-28, 30-44
    2    7 N      3, 9, 29
    3    1 H      45-71

          program call               : xtb data2507/gas/CBPPY/CBPPY_gas_T1_crest.xyz --gfn 2 --spinpol --tblite --uhf 2 --ohess vtight --parallel 40 --molden --ceasefiles --namespace data2507/gas/CBPPY/CBPPY_gas_T1_finalOpt
 * total energy  :  -110.3078146 Eh     change       -0.6329799E-08 Eh
 * total energy  :  -110.3078256 Eh     change       -0.1104541E-04 Eh
 * total energy  :  -110.3078307 Eh     change       -0.5114983E-05 Eh
 * total energy  :  -110.3078323 Eh     change       -0.1604086E-05 Eh
 * total energy  :  -110.3078343 Eh     change       -0.2009485E-05 Eh
 * total energy  :  -110.3078358 Eh     change       -0.1467016E-05 Eh
 * total energy  :  -110.3078369 Eh     change       -0.1096827E-05 Eh
 * total energy  :  -110.3078377 Eh     change       -0.7969823E-06 Eh
 * total energy  :  -110.3078383 Eh     change       -0.6271303E-06 Eh
 * total energy  :  -110.3078388 Eh     change       -0.4472327E-06 Eh
 * total energy  :  -110.3078399 Eh     change       -0.2636744E-06 Eh
 * total energy  :  -110.3078401 Eh     change       -0.2480575E-06 Eh
 * total energy  :  -110.3078403 Eh     change       -0.1392373E-06 Eh
 * total energy  :  -110.3078404 Eh     change       -0.1262782E-06 Eh
 * total energy  :  -110.3078406 Eh     change       -0.1941190E-06 Eh
 * total energy  :  -110.3078407 Eh     change       -0.1021146E-06 Eh
 * total energy  :  -110.3078409 Eh     change       -0.2408287E-06 Eh
 * total energy  :  -110.3078411 Eh     change       -0.1688514E-06 Eh
 * total energy  :  -110.3078411 Eh     change       -0.3110019E-07 Eh
   *** GEOMETRY OPTIMIZATION CONVERGED AFTER 22 ITERATIONS ***

 final structure:
================
71
 xtb: 6.7.1 (edcfbbe)
C           -0.34950610391235        4.23811642044249       -0.24209509586009
C            0.83555235615664        4.08459767782145       -0.96103006679990
N            1.20901120037384        2.91787237140396       -1.46428948135140
C            0.47358215839224        1.85784391527243       -1.23216144903217
C           -0.70093657462055        1.86000354918845       -0.43632229090135
C           -1.41172348325673        0.64722551818337       -0.14047905406054
C           -2.79920847881507        0.65574390002873       -0.04672731359694
C           -3.53826335278020       -0.51304812450275       -0.02579210828785
N           -4.92667014131490       -0.47652169134177        0.05608258473644
C           -5.80883389159038       -1.20200541187503       -0.72125416885175
C           -5.55392314436646       -2.05876987267509       -1.78359506656887
C           -6.63498942059346       -2.64395112174840       -2.41544035496130
C           -7.94269874517720       -2.37715946001257       -2.01648528369638
C           -8.20496395774676       -1.49737160309813       -0.98346854212855
C           -7.13584908060242       -0.89873068602217       -0.33321927139242
C           -7.04004819071694        0.06273551990297        0.73031089642036
C           -7.98056051308859        0.71654077627045        1.51307663821157
C           -7.53783497579188        1.58331982816423        2.49401104774656
C           -6.17648776273590        1.78448430173184        2.71126880333993
C           -5.22150476707908        1.14505299902783        1.94369784275582
C           -5.65974846891671        0.29724219044787        0.93574741028014
C           -2.86280989052859       -1.76787316823915       -0.11523285051777
C           -1.50590944229958       -1.80896188381662       -0.15513363172972
C           -0.71022085743630       -0.63431096316160       -0.07810115225679
C            0.68562797284514       -0.70114928358458        0.12971418018083
C            1.39740904899245        0.35893127457977        0.78054943765636
C            2.76008667020753        0.38647515899411        0.82350567928767
C            3.51623592672229       -0.64267941458914        0.24044272870003
N            4.89991119508015       -0.55068420377194        0.19022274928076
C            5.60224351040191        0.57505414172724       -0.20295070203845
C            5.12621804913266        1.78843768348066       -0.68202029167990
C            6.05717659607485        2.74440833916174       -1.04350278602493
C            7.42577877385959        2.50341001999704       -0.94501251701465
C            7.90393742365282        1.28437062258663       -0.50205043321767
C            6.98977874655574        0.30809799659819       -0.13389320575153
C            7.12277912185383       -1.04769463070861        0.32571751741335
C            8.21373961915582       -1.85757052111426        0.60325358720038
C            7.98580647488353       -3.13884874328253        1.06969374226447
C            6.69018402054198       -3.60530437917609        1.27906751777576
C            5.58729626284891       -2.81619715831688        1.01100511954841
C            5.80844284071193       -1.54039846483159        0.51041835434961
C            2.83807147141096       -1.75735805909876       -0.29796364050677
C            1.47558224133051       -1.79298969005287       -0.33505531691602
C           -1.11308550630976        3.12524270450153        0.02597844670103
H           -0.63921724805078        5.21065473026903        0.12609757235568
H            1.49917212255127        4.91752913009403       -1.14594340405336
H            0.77928939044605        0.95726564279464       -1.74817107913727
H           -3.32762980844469        1.59706328620916       -0.09664863970107
H           -4.54673874577057       -2.25100882188965       -2.11978060183218
H           -6.46181157730408       -3.31723517724905       -3.24178864303602
H           -8.76063862514794       -2.85588789347813       -2.53384195377600
H           -9.21921030259675       -1.27303531426222       -0.68964335373309
H           -9.03512264757886        0.54447537110700        1.35940135258546
H           -8.25360100500049        2.10505979251456        3.11153970805777
H           -5.86042353159035        2.45137599630164        3.49970433956461
H           -4.16915797622401        1.28920357681846        2.13504518046307
H           -3.44452282264620       -2.67601634962217       -0.08355750445336
H           -1.01326708597311       -2.76928206671255       -0.15353707659678
H            0.83606980539589        1.10741823567726        1.31768285559006
H            3.27315311267755        1.18573627607322        1.33784929655459
H            4.06926152442083        1.97923140342707       -0.78968356228238
H            5.71315790649062        3.69690299022049       -1.41734552235468
H            8.12081560363362        3.27775366972915       -1.23380728136393
H            8.96446157514836        1.08950719092995       -0.44950032468070
H            9.21866975032478       -1.48942247620111        0.46224181055524
H            8.82177821508987       -3.78623471472811        1.28855116615787
H            6.54384292824776       -4.60306674694573        1.66531878934839
H            4.58889532676631       -3.17826366332984        1.20222754536298
H            3.41472412553750       -2.55579248414016       -0.74095935779079
H            0.98824667291939       -2.62831742922565       -0.81346513025304
H           -2.00209242872624        3.21251339902499        0.63471262324357

 projected vibrational frequencies (cm⁻¹)
eigval :       -0.00    -0.00    -0.00     0.00     0.00     0.00
eigval :        8.83    16.23    19.16    30.14    33.51    41.10
eigval :       52.24    70.77    80.11    93.70    99.91   104.41
eigval :      105.20   120.41   126.36   145.31   146.79   174.55
eigval :      190.19   202.48   232.50   234.76   254.55   269.59
eigval :      271.87   278.19   287.76   307.15   316.85   339.61
eigval :      371.98   381.83   384.46   388.18   396.59   397.57
eigval :      410.75   417.97   421.09   434.76   437.65   443.47
eigval :      469.45   483.68   514.64   516.04   520.42   529.58
eigval :      537.81   538.02   541.72   552.38   576.68   578.20
eigval :      584.98   588.57   596.11   600.80   610.95   617.54
eigval :      648.10   663.50   673.44   673.56   675.67   677.76
eigval :      687.21   708.35   708.48   729.42   754.23   755.43
eigval :      760.22   768.69   770.09   778.56   780.28   795.36
eigval :      797.52   804.64   832.66   862.89   867.47   870.89
eigval :      871.53   872.26   877.70   885.72   895.06   896.02
eigval :      897.99   899.99   904.52   905.40   907.60   909.02
eigval :      910.81   912.48   918.25   921.98   922.48   923.03
eigval :      930.37   938.92   960.68   974.48   991.26  1010.41
eigval :     1011.14  1025.51  1069.60  1070.08  1072.98  1073.41
eigval :     1085.42  1110.31  1113.55  1132.40  1137.00  1147.82
eigval :     1148.83  1154.95  1168.81  1172.43  1178.83  1179.15
eigval :     1179.62  1185.59  1195.03  1207.09  1211.13  1232.06
eigval :     1232.66  1236.36  1242.26  1253.48  1256.33  1271.99
eigval :     1284.96  1287.81  1293.32  1294.17  1294.52  1306.55
eigval :     1319.59  1337.55  1346.79  1350.36  1352.09  1358.24
eigval :     1359.40  1361.50  1363.19  1384.92  1398.52  1412.35
eigval :     1417.07  1417.92  1423.04  1428.39  1441.62  1459.22
eigval :     1461.56  1465.33  1469.79  1476.85  1483.71  1485.02
eigval :     1486.65  1513.81  1540.40  1568.61  1569.10  1569.78
eigval :     1579.31  1580.51  1583.49  1585.76  1600.28  1601.64
eigval :     3052.89  3063.45  3066.89  3077.80  3079.05  3079.33
eigval :     3079.55  3079.74  3080.28  3080.97  3084.28  3084.61
eigval :     3085.58  3086.09  3086.78  3087.67  3092.12  3092.72
eigval :     3093.87  3094.47  3095.48  3096.16  3097.62  3098.65
eigval :     3098.75  3099.96  3100.73

   temp. (K)  partition function   enthalpy   heat capacity  entropy
                                   cal/mol     cal/K/mol   cal/K/mol   J/K/mol
 298.15  VIB  0.311E+15            19475.899    127.880    119.135
         ROT  0.699E+08              888.752      2.981     38.876
         INT  0.218E+23            20364.652    130.861    158.011
         TR   0.129E+29             1481.254      4.968     44.842
         TOT                       21845.9058   135.8295   202.8532   848.7377

       T/K    H(0)-H(T)+PV         H(T)/Eh          T*S/Eh         G(T)/Eh
   ------------------------------------------------------------------------
    298.15    0.348137E-01    0.576941E+00    0.963821E-01    0.480559E+00
   ------------------------------------------------------------------------

         :::::::::::::::::::::::::::::::::::::::::::::::::::::
         ::                  THERMODYNAMIC                  ::
         :::::::::::::::::::::::::::::::::::::::::::::::::::::
         :: total free energy        -109.827281948661 Eh   ::
         ::.................................................::
         :: total energy             -110.307841133868 Eh   ::
         :: zero point energy           0.542127605427 Eh   ::
         :: G(RRHO) w/o ZPVE           -0.061568420220 Eh   ::
         :: G(RRHO) contrib.            0.480559185207 Eh   ::
         :::::::::::::::::::::::::::::::::::::::::::::::::::::

           -------------------------------------------------
          | TOTAL ENERGY             -110.307841133868 Eh   |
          | TOTAL ENTHALPY           -109.730899861609 Eh   |
          | TOTAL FREE ENERGY        -109.827281948661 Eh   |
          | GRADIENT NORM               0.000044842189 Eh/α |
           -------------------------------------------------

 * finished run on 2025/08/22 at 08:23:43.709
