   * xtb version 6.7.1 (edcfbbe) compiled by 'albert@albert-system' on 2024-07-22

   ID    Z sym.   atoms
    1    8 O      1, 21, 25
    2   15 P      2, 24
    3    6 C      3-20, 22, 23, 26-48, 50-79
    4    7 N      49
    5    1 H      80-128

          program call               : xtb data2507/toluene/9CzFDBFDPO/9CzFDBFDPO_toluene_T1_crest.xyz --gfn 2 --uhf 2 --gbsa toluene --ohess vtight --parallel 40 --molden --ceasefiles --namespace data2507/toluene/9CzFDBFDPO/9CzFDBFDPO_toluene_T1_finalOpt
      * Solvation model:               GBSA
        Solvent                        toluene
        Solvent mass                       9.2140E+01 g/mol
          :  Hamiltonian                  GFN2-xTB          :
 * total energy  :  -201.6042996 Eh     change       -0.5164074E-07 Eh
 * total energy  :  -201.6045804 Eh     change       -0.2807844E-03 Eh
 * total energy  :  -201.6047463 Eh     change       -0.1659006E-03 Eh
 * total energy  :  -201.6047836 Eh     change       -0.3732922E-04 Eh
 * total energy  :  -201.6048418 Eh     change       -0.5822649E-04 Eh
 * total energy  :  -201.6048742 Eh     change       -0.3235839E-04 Eh
 * total energy  :  -201.6048953 Eh     change       -0.2112516E-04 Eh
 * total energy  :  -201.6049081 Eh     change       -0.1282045E-04 Eh
 * total energy  :  -201.6049178 Eh     change       -0.9658540E-05 Eh
 * total energy  :  -201.6049334 Eh     change       -0.1556085E-04 Eh
 * total energy  :  -201.6050313 Eh     change       -0.3833623E-06 Eh
 * total energy  :  -201.6050316 Eh     change       -0.3173831E-06 Eh
 * total energy  :  -201.6050320 Eh     change       -0.3538264E-06 Eh
 * total energy  :  -201.6050324 Eh     change       -0.4756462E-06 Eh
 * total energy  :  -201.6050331 Eh     change       -0.6179852E-06 Eh
 * total energy  :  -201.6050338 Eh     change       -0.7124653E-06 Eh
 * total energy  :  -201.6050344 Eh     change       -0.6575927E-06 Eh
 * total energy  :  -201.6050344 Eh     change        0.9540884E-08 Eh
 * total energy  :  -201.6050344 Eh     change       -0.2247197E-07 Eh
   *** GEOMETRY OPTIMIZATION CONVERGED AFTER 45 ITERATIONS ***

 final structure:
================
128
 xtb: 6.7.1 (edcfbbe)
O            9.04459557535549        0.77260728375587       -2.55420738146497
P            7.97917342033961        0.57445431330365       -1.55048417503468
C            8.42730857823038        1.23705943501863        0.08116555387677
C            7.53589156113545        1.23250443466028        1.14778186968075
C            7.90718083352033        1.79866257479426        2.35258831119782
C            9.16301155412087        2.36960896850009        2.49704160534521
C           10.05038998315639        2.38062506820556        1.43182597200706
C            9.68084380169525        1.81946656383455        0.22292678737420
C            7.60787570201257       -1.19557451147423       -1.33789357242671
C            8.46304460336247       -1.94755980909945       -0.54452891644667
C            8.29774671265394       -3.31840729250051       -0.45747216158222
C            7.28403393133948       -3.93629390278290       -1.17279330977500
C            6.44548118769013       -3.18826511373149       -1.98310954341915
C            6.60809043470910       -1.81651162455573       -2.07037983528071
C            6.44582694180501        1.43028656465359       -1.99569154530925
C            6.57665565781485        2.47635998048354       -2.91283846310642
C            5.51254813807361        3.28258765722156       -3.27324030980718
C            4.25343524690097        3.08270165365214       -2.71770913156026
C            4.09256322263137        2.04928298867199       -1.80926475431815
C            5.17992110953993        1.22628350370153       -1.44894382532456
O            4.80492822023974        0.26191225410251       -0.56291470379492
C            3.47665629854413        0.44187032916977       -0.32930688264919
C            2.61417295951444       -0.30932044540121        0.49589794351063
P            3.01938798583846       -1.81249885354595        1.42852398871318
O            1.90321217473595       -2.21314269770695        2.31103353911458
C            4.55548327842594       -1.54528080665177        2.36172215743011
C            5.81562291217573       -1.75157314385750        1.81831734298800
C            6.93557667614987       -1.58574150467220        2.61395806019006
C            6.80142833765460       -1.20266708601588        3.93894533310200
C            5.54274511552577       -0.98274017237749        4.47733601597948
C            4.42009899779012       -1.15773880723352        3.68936869421127
C            3.35772923577246       -3.11802390404222        0.20005421422456
C            3.98774138581428       -4.27625553989911        0.63503258517172
C            4.09982957139075       -5.36211338265843       -0.21389914293632
C            3.57440444783061       -5.29528156418260       -1.49499575318650
C            2.93879707378623       -4.14241128367178       -1.92691863543156
C            2.82544637369598       -3.05372866346095       -1.07869726135032
C            1.30397571669214        0.08817733064831        0.57544212754542
C            0.74448010811842        1.19921966014350       -0.13514756256746
C           -0.62335710589120        1.53589704720140       -0.03493791141639
C           -1.57218628448166        0.71367924261514        0.66029421663498
C           -2.89777584532479        1.02438498932197        0.70715305259625
C           -3.41059154968127        2.17495615742279        0.07371772945785
C           -4.87106127705362        2.52373341710289        0.17718266205090
C           -5.77757202769393        1.31466575313076        0.12095694097114
C           -5.48717421870464        0.26517115985342       -0.74630978597880
C           -6.32962014568746       -0.82331661939684       -0.84772720830648
C           -7.49488947270363       -0.87678344436603       -0.08639058530926
N           -8.35119116095029       -1.98195745189721       -0.18362562704105
C           -8.84552784415526       -2.71388489895648        0.87648361067110
C           -8.59894790740836       -2.57674047733934        2.23667293655291
C           -9.20779873479990       -3.47304911722282        3.09578639632127
C          -10.03476671185188       -4.48773069354888        2.62014835065087
C          -10.26431542525698       -4.64451874075084        1.26407455503893
C           -9.66446954207979       -3.75741883101744        0.38322358370782
C           -9.65973500957956       -3.63519595375272       -1.05139056568697
C          -10.27617358278662       -4.34283047560017       -2.07217630131229
C          -10.06919485873595       -3.93526119821029       -3.37879321028732
C           -9.27441618756518       -2.82879796684289       -3.66827468154238
C           -8.65069250114078       -2.10703834486238       -2.66719460527561
C           -8.83295261812373       -2.52766037439503       -1.35582316391710
C           -7.80069659307825        0.17786921193263        0.77004228671787
C           -6.94847776168238        1.26055663874278        0.86821320690635
C           -5.01596222096987        3.35230180400795        1.44356411995160
C           -4.72839474799591        2.99619537854804        2.74549187897985
C           -4.91640198562009        3.93606242225275        3.74870607612687
C           -5.36984596240441        5.21474949823542        3.45130552928671
C           -5.65036654169532        5.58127484441614        2.14549635476554
C           -5.47101741642460        4.64592589571835        1.13827386676768
C           -5.68372996311946        4.73801646516637       -0.29523410949022
C           -6.14302212236087        5.78380169187503       -1.08133182027871
C           -6.24437503511556        5.59140984415248       -2.44965288684611
C           -5.89680721278590        4.37738239074233       -3.02415212365881
C           -5.43803772802758        3.32518726608323       -2.24163105554476
C           -5.33091709412958        3.51256626563745       -0.88054160825583
C           -2.49181536874350        3.03103603514625       -0.56093267639472
C           -1.16395617240784        2.72791408849502       -0.62488294812793
C            1.65220838715706        1.92927634719310       -0.98270834088087
C            2.96428310438874        1.54752309194523       -1.06228447253059
H            6.56364673568038        0.77885311155586        1.03066617254439
H            7.21457827861848        1.79198302334769        3.18130465224126
H            9.44895241288627        2.80968740257939        3.44100588079396
H           11.02761584390984        2.82751963379553        1.54303958468960
H           10.35048501903276        1.81826426150145       -0.62630921839570
H            9.25610014405513       -1.44323497543415       -0.00649242962534
H            8.95891059561487       -3.90527113394565        0.16341586377158
H            7.15188026085091       -5.00559651889368       -1.10718221665385
H            5.66426771470072       -3.67413721887238       -2.54776618799943
H            5.96620185081739       -1.22418706771987       -2.70892654905231
H            7.55484601635632        2.63103083587084       -3.34627357998014
H            5.66333644585576        4.07636066574672       -3.98893759166682
H            3.41918368458973        3.71046586750664       -2.98789663948483
H            5.91288362908554       -2.04545287092515        0.78338050392590
H            7.91584561366387       -1.75487263385983        2.19533084188456
H            7.68084248900368       -1.07661882745074        4.55311083281366
H            5.43679632524213       -0.68291370668116        5.50981614684560
H            3.42510690565186       -1.01635317361850        4.08931672250871
H            4.37892746926256       -4.31637552399108        1.64352731160993
H            4.58733636862612       -6.26390484830017        0.12634988688559
H            3.65590445522281       -6.14558426577115       -2.15631166609652
H            2.52406772745984       -4.09184614906193       -2.92352169453161
H            2.32016750233266       -2.15355499294879       -1.40306327596067
H            0.68011492378358       -0.49374708763442        1.23554719734712
H           -1.23919152378602       -0.19000329834075        1.14404414926418
H           -3.57746973975643        0.36544214593471        1.22851336690240
H           -4.58080702606965        0.29209224490228       -1.33268838166346
H           -6.07810932338782       -1.64600196403011       -1.49998689658719
H           -7.94490155734450       -1.80526720724396        2.61277652121657
H           -9.03464517120750       -3.38657884597741        4.15822103063694
H          -10.49416220253907       -5.16741001931825        3.32230418816762
H          -10.89191076936116       -5.44253152041737        0.89770046926434
H          -10.90624984990724       -5.19053059403084       -1.85003370123403
H          -10.53782981434084       -4.47544261487897       -4.18789514565510
H           -9.14545488851529       -2.52523949827986       -4.69662278260754
H           -8.05230643991279       -1.23958759799280       -2.89929377509551
H           -8.71677356670852        0.15473370212387        1.34072505983016
H           -7.19889821301795        2.07547983358051        1.53072892222588
H           -4.36860572953782        2.00667387939280        2.98442652242987
H           -4.70480327365099        3.67005454698904        4.77414576389531
H           -5.50228590416201        5.93120584453191        4.24906727167210
H           -5.99900160597474        6.57736418075214        1.91660995154367
H           -6.41494406993939        6.72970270475929       -0.63715900719585
H           -6.59890848085195        6.39589015568737       -3.07788893810962
H           -5.98330336733756        4.24816399718614       -4.09320167000872
H           -5.16705340090980        2.38366749618105       -2.69540472156497
H           -2.85128358864679        3.94443603607679       -1.01288831290327
H           -0.50301241719111        3.42370651180050       -1.11455348919492
H            1.30858550849381        2.75605927883315       -1.57878066562876

          :  Hamiltonian                  GFN2-xTB          :
         :: gradient norm              0.000186136478 Eh/a0 ::
         :: HOMO-LUMO gap              0.158736363963 eV    ::
         :: SCC energy              -205.263640040463 Eh    ::
         :: -> dispersion             -0.206045440001 Eh    ::
         :: -> Gsolv                  -0.087952176286 Eh    ::
         :: repulsion energy           3.658605599247 Eh    ::

    * Orbital Energies and Occupations

         #    Occupation            Energy/Eh            Energy/eV
      -------------------------------------------------------------
         1        2.0000           -0.7469882             -20.3266
       ...           ...                  ...                  ...
       176        2.0000           -0.4086456             -11.1198
       177        2.0000           -0.4063504             -11.0574
       178        2.0000           -0.4052158             -11.0265
       179        2.0000           -0.4047220             -11.0130
       180        2.0000           -0.4025644             -10.9543
       181        2.0000           -0.4009332             -10.9099
       182        2.0000           -0.3984672             -10.8428
       183        2.0000           -0.3958642             -10.7720
       184        2.0000           -0.3890957             -10.5878
       185        2.0000           -0.3842956             -10.4572
       186        1.7720           -0.3720947             -10.1252
       187        1.2280           -0.3697772             -10.0621
       188        0.9556           -0.2700772              -7.3492 (HOMO)
       189        0.0444           -0.2642443              -7.1905 (LUMO)
       190        0.0000           -0.2568445              -6.9891
       191        0.0000           -0.2551355              -6.9426
       192        0.0000           -0.2523796              -6.8676
       193                         -0.2470200              -6.7218
       194                         -0.2447660              -6.6604
       195                         -0.2433965              -6.6232
       196                         -0.2426544              -6.6030
       197                         -0.2377288              -6.4689
       198                         -0.2370304              -6.4499
       199                         -0.2363561              -6.4316
       ...                                ...                  ...
       375                          1.1943293              32.4994
      -------------------------------------------------------------
                  HL-Gap            0.0058330 Eh            0.1587 eV

     #   Z          covCN         q      C6AA      α(0)
     1   8 O        0.808    -0.400    21.698     6.244
     2  15 P        4.074     0.041   158.430    22.610
     3   6 C        2.921     0.012    27.749     8.638
     4   6 C        2.981    -0.025    28.618     8.775
     5   6 C        2.919    -0.026    28.661     8.779
     6   6 C        2.920    -0.025    28.630     8.774
     7   6 C        2.918    -0.028    28.693     8.784
     8   6 C        3.018    -0.021    28.498     8.757
     9   6 C        2.921     0.020    27.561     8.609
    10   6 C        3.017    -0.019    28.449     8.749
    11   6 C        2.919    -0.025    28.634     8.775
    12   6 C        2.921    -0.025    28.619     8.773
    13   6 C        2.920    -0.027    28.666     8.780
    14   6 C        2.986    -0.016    28.410     8.743
    15   6 C        2.907    -0.018    28.466     8.748
    16   6 C        3.044    -0.027    28.640     8.777
    17   6 C        2.917    -0.041    29.013     8.833
    18   6 C        2.913    -0.036    28.905     8.816
    19   6 C        3.049    -0.022    28.502     8.756
    20   6 C        3.117     0.126    25.084     8.203
    21   8 O        1.714    -0.219    17.639     5.671
    22   6 C        3.110     0.109    25.459     8.266
    23   6 C        2.900    -0.015    28.375     8.734
    24  15 P        4.097     0.046   158.204    22.594
    25   8 O        0.808    -0.404    21.783     6.256
    26   6 C        2.921     0.015    27.674     8.627
    27   6 C        2.975    -0.020    28.503     8.757
    28   6 C        2.920    -0.024    28.615     8.772
    29   6 C        2.920    -0.023    28.587     8.768
    30   6 C        2.918    -0.027    28.680     8.782
    31   6 C        3.031    -0.020    28.467     8.752
    32   6 C        2.921     0.016    27.650     8.623
    33   6 C        3.013    -0.018    28.449     8.749
    34   6 C        2.919    -0.025    28.631     8.774
    35   6 C        2.920    -0.024    28.608     8.771
    36   6 C        2.920    -0.026    28.654     8.778
    37   6 C        2.986    -0.021    28.516     8.760
    38   6 C        3.070    -0.031    28.708     8.785
    39   6 C        2.963    -0.004    28.113     8.697
    40   6 C        2.965     0.008    27.831     8.653
    41   6 C        2.915    -0.038    28.936     8.821
    42   6 C        2.912    -0.033    28.822     8.803
    43   6 C        2.981     0.011    27.762     8.643
    44   6 C        3.946     0.012    20.302     6.403
    45   6 C        2.978     0.021    27.538     8.608
    46   6 C        2.923    -0.029    28.735     8.791
    47   6 C        2.920    -0.040    29.000     8.831
    48   6 C        2.913     0.060    26.648     8.465
    49   7 N        2.802    -0.019    21.622     6.906
    50   6 C        3.073     0.047    26.863     8.498
    51   6 C        2.909    -0.044    29.103     8.846
    52   6 C        2.923    -0.031    28.777     8.797
    53   6 C        2.920    -0.035    28.860     8.810
    54   6 C        2.912    -0.030    28.742     8.791
    55   6 C        3.065    -0.013    28.261     8.717
    56   6 C        3.065    -0.013    28.260     8.717
    57   6 C        2.912    -0.030    28.743     8.791
    58   6 C        2.920    -0.035    28.862     8.810
    59   6 C        2.923    -0.031    28.779     8.797
    60   6 C        2.909    -0.044    29.104     8.846
    61   6 C        3.073     0.047    26.864     8.498
    62   6 C        2.921    -0.040    28.992     8.830
    63   6 C        2.923    -0.032    28.786     8.798
    64   6 C        3.059     0.006    27.838     8.652
    65   6 C        2.913    -0.033    28.831     8.805
    66   6 C        2.922    -0.032    28.800     8.801
    67   6 C        2.920    -0.032    28.808     8.802
    68   6 C        2.914    -0.034    28.842     8.806
    69   6 C        3.033     0.001    27.963     8.674
    70   6 C        3.033     0.002    27.949     8.671
    71   6 C        2.914    -0.034    28.852     8.808
    72   6 C        2.920    -0.032    28.800     8.800
    73   6 C        2.922    -0.032    28.801     8.801
    74   6 C        2.914    -0.034    28.847     8.807
    75   6 C        3.056     0.005    27.857     8.656
    76   6 C        2.911    -0.034    28.849     8.807
    77   6 C        2.916    -0.039    28.957     8.824
    78   6 C        2.910    -0.050    29.235     8.866
    79   6 C        3.036    -0.020    28.472     8.752
    80   1 H        0.926     0.038     2.478     2.462
    81   1 H        0.926     0.039     2.457     2.451
    82   1 H        0.926     0.046     2.364     2.404
    83   1 H        0.926     0.045     2.387     2.416
    84   1 H        0.925     0.049     2.330     2.387
    85   1 H        0.925     0.037     2.493     2.469
    86   1 H        0.926     0.046     2.365     2.405
    87   1 H        0.926     0.047     2.357     2.401
    88   1 H        0.926     0.041     2.434     2.440
    89   1 H        0.925     0.030     2.580     2.512
    90   1 H        0.926     0.054     2.266     2.354
    91   1 H        0.926     0.046     2.364     2.404
    92   1 H        0.926     0.049     2.337     2.391
    93   1 H        0.926     0.037     2.488     2.466
    94   1 H        0.926     0.040     2.446     2.446
    95   1 H        0.926     0.047     2.362     2.403
    96   1 H        0.926     0.045     2.382     2.413
    97   1 H        0.925     0.047     2.352     2.398
    98   1 H        0.925     0.037     2.487     2.466
    99   1 H        0.926     0.047     2.362     2.403
   100   1 H        0.926     0.048     2.340     2.392
   101   1 H        0.926     0.044     2.395     2.420
   102   1 H        0.925     0.032     2.561     2.503
   103   1 H        0.926     0.063     2.167     2.302
   104   1 H        0.926     0.034     2.537     2.491
   105   1 H        0.926     0.034     2.534     2.489
   106   1 H        0.926     0.047     2.358     2.401
   107   1 H        0.926     0.049     2.328     2.386
   108   1 H        0.926     0.040     2.443     2.444
   109   1 H        0.926     0.039     2.460     2.452
   110   1 H        0.926     0.038     2.476     2.461
   111   1 H        0.926     0.040     2.443     2.444
   112   1 H        0.926     0.040     2.444     2.445
   113   1 H        0.926     0.038     2.476     2.461
   114   1 H        0.926     0.039     2.458     2.452
   115   1 H        0.926     0.041     2.438     2.442
   116   1 H        0.926     0.050     2.325     2.384
   117   1 H        0.926     0.045     2.378     2.412
   118   1 H        0.926     0.034     2.534     2.490
   119   1 H        0.926     0.034     2.531     2.488
   120   1 H        0.926     0.034     2.531     2.488
   121   1 H        0.926     0.036     2.507     2.476
   122   1 H        0.926     0.035     2.517     2.481
   123   1 H        0.926     0.034     2.532     2.489
   124   1 H        0.926     0.034     2.524     2.484
   125   1 H        0.926     0.034     2.534     2.489
   126   1 H        0.926     0.032     2.555     2.500
   127   1 H        0.926     0.035     2.517     2.481
   128   1 H        0.926     0.047     2.364     2.404

molecular dipole:
                 x           y           z       tot (Debye)
 q only:       -5.788      -0.322       0.504
   full:       -5.638      -0.213       0.519      14.401

 projected vibrational frequencies (cm⁻¹)
eigval :       -0.00     0.00     0.00     0.00     0.00     0.00
eigval :       -2.11     5.78    11.42    13.46    17.37    20.67
eigval :       24.50    25.14    26.54    27.49    28.93    32.79
eigval :       36.38    41.39    45.46    48.23    51.58    52.73
eigval :       62.37    63.87    67.36    73.70    75.65    84.03
eigval :       86.99    89.89    95.55   100.32   102.89   106.82
eigval :      128.66   131.24   135.60   143.49   148.91   150.11
eigval :      155.94   163.04   171.86   176.39   183.67   199.84
eigval :      202.82   205.84   220.81   226.19   236.28   237.34
eigval :      239.55   242.20   253.77   256.94   261.89   269.34
eigval :      270.28   273.79   279.94   280.95   284.46   321.33
eigval :      325.19   329.66   333.66   346.00   347.80   361.36
eigval :      365.94   366.22   369.10   369.98   384.58   385.66
eigval :      389.10   392.99   406.35   409.49   412.59   413.31
eigval :      418.64   422.61   432.56   435.95   437.04   448.18
eigval :      455.97   461.19   470.78   477.08   482.22   493.46
eigval :      500.73   505.37   506.65   512.62   515.15   523.04
eigval :      535.42   536.25   540.44   540.66   561.15   568.70
eigval :      579.25   584.36   584.98   585.32   585.44   586.01
eigval :      588.12   591.89   593.91   605.86   612.54   619.16
eigval :      627.39   640.87   654.42   655.95   657.26   658.06
eigval :      659.55   670.37   672.88   674.48   680.69   688.26
eigval :      689.53   691.69   708.92   709.97   717.63   718.73
eigval :      722.41   727.28   738.23   739.91   741.47   742.41
eigval :      752.29   753.68   755.23   763.40   768.55   776.46
eigval :      777.59   780.47   783.92   787.35   789.25   813.38
eigval :      820.06   821.02   837.70   865.74   867.00   870.58
eigval :      874.72   875.14   875.32   878.73   879.65   880.38
eigval :      881.16   888.94   890.55   896.73   897.51   898.43
eigval :      901.07   902.82   902.96   903.19   904.52   904.58
eigval :      905.51   908.63   910.18   910.75   916.41   920.93
eigval :      921.26   923.45   924.89   925.27   926.43   928.74
eigval :      928.91   930.29   931.39   932.64   933.38   936.23
eigval :      938.35   950.89   971.00   971.56   974.88   975.79
eigval :      978.73   998.13  1001.33  1010.25  1020.44  1028.16
eigval :     1061.73  1067.24  1070.16  1073.24  1075.53  1076.41
eigval :     1076.76  1077.27  1078.54  1094.09  1102.11  1110.13
eigval :     1111.49  1112.07  1112.38  1114.49  1115.64  1121.09
eigval :     1126.61  1127.33  1138.25  1139.90  1143.04  1143.53
eigval :     1159.26  1168.37  1170.76  1172.91  1174.14  1174.29
eigval :     1175.30  1176.47  1176.70  1177.01  1178.69  1180.67
eigval :     1186.22  1187.49  1188.36  1189.56  1190.26  1191.95
eigval :     1199.88  1201.62  1207.18  1210.83  1216.71  1224.59
eigval :     1227.15  1229.17  1235.03  1240.32  1244.31  1252.85
eigval :     1264.07  1266.02  1269.09  1269.55  1270.09  1272.20
eigval :     1280.71  1283.68  1286.14  1289.77  1296.49  1314.52
eigval :     1317.81  1319.25  1320.29  1322.11  1323.03  1325.08
eigval :     1338.94  1339.75  1353.22  1358.17  1359.95  1363.79
eigval :     1369.63  1374.11  1382.49  1403.95  1409.70  1411.97
eigval :     1417.44  1419.83  1421.35  1422.66  1423.39  1423.80
eigval :     1424.61  1442.00  1448.75  1451.12  1453.41  1453.92
eigval :     1455.07  1457.56  1461.11  1464.08  1470.39  1479.99
eigval :     1480.87  1490.36  1526.89  1545.92  1558.05  1561.24
eigval :     1565.65  1570.60  1572.44  1575.66  1577.91  1578.65
eigval :     1579.16  1579.78  1581.51  1583.03  1584.53  1585.89
eigval :     1586.40  1586.55  1590.14  1595.32  1602.98  3045.04
eigval :     3051.85  3055.87  3056.24  3064.04  3067.21  3070.94
eigval :     3071.22  3071.81  3073.84  3073.96  3074.97  3075.83
eigval :     3077.32  3077.67  3078.19  3078.42  3079.17  3079.53
eigval :     3079.55  3081.26  3083.96  3084.80  3084.96  3085.27
eigval :     3085.74  3086.32  3087.83  3088.44  3088.74  3088.77
eigval :     3090.40  3090.57  3091.40  3092.46  3092.78  3093.58
eigval :     3096.25  3096.54  3097.87  3098.93  3099.28  3099.39
eigval :     3099.63  3100.85  3101.45  3107.83  3110.16  3127.36

   temp. (K)  partition function   enthalpy   heat capacity  entropy
                                   cal/mol     cal/K/mol   cal/K/mol   J/K/mol
 298.15  VIB  0.271E+34            39647.553    242.082    251.872
         ROT  0.433E+09              888.752      2.981     42.501
         INT  0.117E+43            40536.305    245.063    294.373
         TR   0.329E+29             1481.254      4.968     46.706
         TOT                       42017.5591   250.0315   341.0795  1427.0768

       T/K    H(0)-H(T)+PV         H(T)/Eh          T*S/Eh         G(T)/Eh
   ------------------------------------------------------------------------
    298.15    0.669592E-01    0.103368E+01    0.162058E+00    0.871626E+00
   ------------------------------------------------------------------------

         :::::::::::::::::::::::::::::::::::::::::::::::::::::
         ::                  THERMODYNAMIC                  ::
         :::::::::::::::::::::::::::::::::::::::::::::::::::::
         :: total free energy        -200.733408831078 Eh   ::
         ::.................................................::
         :: total energy             -201.605034443732 Eh   ::
         :: zero point energy           0.966724268776 Eh   ::
         :: G(RRHO) w/o ZPVE           -0.095098656122 Eh   ::
         :: G(RRHO) contrib.            0.871625612654 Eh   ::
         :::::::::::::::::::::::::::::::::::::::::::::::::::::

           -------------------------------------------------
          | TOTAL ENERGY             -201.605034443732 Eh   |
          | TOTAL ENTHALPY           -200.571350932330 Eh   |
          | TOTAL FREE ENERGY        -200.733408831078 Eh   |
          | GRADIENT NORM               0.000187304168 Eh/α |
          | HOMO-LUMO GAP               0.158723686633 eV   |
           -------------------------------------------------

 * finished run on 2025/07/17 at 10:18:16.986
