   * xtb version 6.7.1 (edcfbbe) compiled by 'albert@albert-system' on 2024-07-22

   ID    Z sym.   atoms
    1    8 O      1, 21, 25
    2   15 P      2, 24
    3    6 C      3-20, 22, 23, 26-48, 50-79
    4    7 N      49
    5    1 H      80-128

          program call               : xtb data2507/toluene/9CzFDBFDPO/9CzFDBFDPO_toluene_S0_crest.xyz --gfn 2 --gbsa toluene --ohess vtight --parallel 40 --molden --ceasefiles --namespace data2507/toluene/9CzFDBFDPO/9CzFDBFDPO_toluene_S0_finalOpt
      * Solvation model:               GBSA
        Solvent                        toluene
        Solvent mass                       9.2140E+01 g/mol
          :  Hamiltonian                  GFN2-xTB          :
 * total energy  :  -201.7117580 Eh     change       -0.3628287E-08 Eh
 * total energy  :  -201.7119548 Eh     change       -0.1967801E-03 Eh
 * total energy  :  -201.7120625 Eh     change       -0.1076591E-03 Eh
 * total energy  :  -201.7121031 Eh     change       -0.4063195E-04 Eh
 * total energy  :  -201.7121455 Eh     change       -0.4242783E-04 Eh
 * total energy  :  -201.7121847 Eh     change       -0.3914397E-04 Eh
 * total energy  :  -201.7121994 Eh     change       -0.1474228E-04 Eh
 * total energy  :  -201.7122141 Eh     change       -0.1466171E-04 Eh
 * total energy  :  -201.7122347 Eh     change       -0.2068764E-04 Eh
 * total energy  :  -201.7122532 Eh     change       -0.1848311E-04 Eh
 * total energy  :  -201.7124779 Eh     change       -0.9156401E-06 Eh
 * total energy  :  -201.7124789 Eh     change       -0.1056200E-05 Eh
 * total energy  :  -201.7124801 Eh     change       -0.1208907E-05 Eh
 * total energy  :  -201.7124814 Eh     change       -0.1210263E-05 Eh
 * total energy  :  -201.7124823 Eh     change       -0.9782081E-06 Eh
 * total energy  :  -201.7124831 Eh     change       -0.7982441E-06 Eh
 * total energy  :  -201.7124839 Eh     change       -0.7171317E-06 Eh
 * total energy  :  -201.7124847 Eh     change       -0.8198118E-06 Eh
 * total energy  :  -201.7124847 Eh     change       -0.5318554E-08 Eh
   *** GEOMETRY OPTIMIZATION CONVERGED AFTER 94 ITERATIONS ***

 final structure:
================
128
 xtb: 6.7.1 (edcfbbe)
O            8.40118058904511       -1.23693312387756        3.43849472832855
P            7.56993144915651       -0.72521187118909        2.33142356362619
C            7.39737492250066       -1.96969026294489        1.01524742584889
C            6.32646213991754       -2.84953434650698        0.98093239322008
C            6.30391764869482       -3.86420461690544        0.03981481769321
C            7.35048720592701       -4.00290468369717       -0.85725439037813
C            8.43203259419543       -3.13757014145189       -0.80798069866099
C            8.45823738221807       -2.12391434787423        0.13319692994057
C            8.25646184052082        0.78535603994026        1.58705895514648
C            9.53336529184633        1.16685391289556        1.97782519843479
C           10.09945966478206        2.31934295953076        1.46208584819654
C            9.38314327101529        3.09659155914182        0.56565850846024
C            8.10500050616718        2.72030579799538        0.18212149802533
C            7.53982303406780        1.56387746320876        0.68755153327667
C            5.90023970286405       -0.26111230008290        2.89120097584923
C            5.76188707257208       -0.04584388389341        4.25777026766696
C            4.56481099622396        0.37158147256354        4.82596335925821
C            3.45337644559125        0.59680932362522        4.03733558068039
C            3.56300943039314        0.38329503986707        2.66928112477175
C            4.77879434744334       -0.04459647543254        2.10092153182076
O            4.66889809779124       -0.20550637517568        0.74990247896397
C            3.38506384821792        0.11933652680919        0.42772592179222
C            2.79196211311703        0.10666803859623       -0.82802871165437
P            3.53207414930445       -0.45013262849864       -2.39823023341205
O            2.65235807342050       -0.11983303482478       -3.53746155474488
C            3.75108738608319       -2.25342994474128       -2.24678866243137
C            4.60442900085341       -2.88775739564745       -3.13949611362469
C            4.66550777348761       -4.26901403600431       -3.17303988221041
C            3.86776333965886       -5.01761672204718       -2.32169851684583
C            3.00973361212907       -4.38488007682435       -1.43670240573134
C            2.94665970355327       -3.00215182161767       -1.40077023902029
C            5.18269339224313        0.28714233235893       -2.57574743641935
C            5.28091367754198        1.41569259532176       -3.38012457955365
C            6.51566872511201        1.99450484716999       -3.61171904813084
C            7.65220505901434        1.43832773353970       -3.04593645114447
C            7.55259024702038        0.31264559610568       -2.24369830833459
C            6.31886396132813       -0.26444508552353       -2.00079999894462
C            1.46506856110372        0.50763911794015       -0.90571460775343
C            0.71726056841231        0.89143503642372        0.21089367149053
C           -0.69173153088809        1.28366536774077        0.05334307776107
C           -1.65737843216033        0.84511079208665        0.95627255572248
C           -2.98389868862591        1.19118179560402        0.79312248817247
C           -3.38548509375977        1.99045353595569       -0.27229843503040
C           -4.83771167002862        2.40315577118107       -0.40631201152129
C           -5.79195020621370        1.27306026051668       -0.07395904816771
C           -5.50191555501007       -0.02620968774836       -0.47801854521805
C           -6.38724250209109       -1.05803183341845       -0.23617228494612
C           -7.59651714521735       -0.80542205653368        0.40436359775305
N           -8.49910920121888       -1.85279274219724        0.64937101057739
C           -9.06046446599868       -2.16733365676423        1.87013530960465
C           -8.86415192214986       -1.57782774523012        3.11139329816089
C           -9.53772555385453       -2.11143243554046        4.19342742474108
C          -10.38233003346003       -3.21143701644009        4.05460459947482
C          -10.56587204607164       -3.81498355467962        2.82633146027053
C           -9.90028335175239       -3.29610129688676        1.72272949976956
C           -9.84082089135726       -3.66964679483548        0.33704825433917
C          -10.44858394983563       -4.66951541263188       -0.41199793228558
C          -10.18112078276311       -4.73878492183189       -1.76484909047464
C           -9.32973879199563       -3.81931359958878       -2.37517347609637
C           -8.71377939826163       -2.81594300245846       -1.65195869347762
C           -8.96135214722338       -2.75458824657357       -0.28746322030018
C           -7.90012968001454        0.49387143730352        0.79654677288080
C           -7.00423321825237        1.51932795015490        0.55836105139655
C           -5.05070056462459        3.64647399535374        0.43865583160791
C           -4.86515759292731        3.80950037544175        1.79515068031389
C           -5.11253179701047        5.05516553528396        2.35734624094416
C           -5.53193207193157        6.11864380873327        1.57228778350031
C           -5.71349692506912        5.96297489553053        0.20729342450492
C           -5.46957578997707        4.72175907792513       -0.35807680089479
C           -5.57462324599378        4.26575027855405       -1.73513344910082
C           -5.96118303850036        4.93444668147846       -2.88545843181681
C           -5.97222887996332        4.24093836704302       -4.08513335850911
C           -5.60725073860925        2.90386583543715       -4.13461350468871
C           -5.22069268186055        2.22874136746905       -2.98420653442546
C           -5.20003933336882        2.91569809048041       -1.78887479459041
C           -2.41967813021122        2.45054648436744       -1.15848212854096
C           -1.09318370043940        2.09435388101391       -1.00460551416181
C            1.31687326959964        0.87778844137674        1.46418797857665
C            2.64712771984210        0.49973142961417        1.56594800954300
H            5.51928399221500       -2.74158935114862        1.69270476063269
H            5.46944499091741       -4.54800091857531        0.00654662423203
H            7.32593111314583       -4.79493310626177       -1.59004412725198
H            9.25335627045252       -3.25576394021184       -1.49940628439625
H            9.29948144215577       -1.44581837736811        0.20209492082299
H           10.06420879597411        0.54853689765658        2.68878718094877
H           11.09466660732979        2.61277996654594        1.76244417819343
H            9.82047863551235        3.99980257350476        0.16641677769783
H            7.54658484200515        3.32688247372035       -0.51536262432248
H            6.55161162012842        1.25955416075827        0.38045161881348
H            6.62857894517408       -0.22529073234555        4.87814870877876
H            4.50972396367054        0.52306599155672        5.89307659796656
H            2.51985564384897        0.92626404277786        4.46539528395026
H            5.20969879253834       -2.28917876675292       -3.80785092562961
H            5.32733696027129       -4.76199153362016       -3.86976047832769
H            3.91068033543602       -6.09654083101295       -2.35167494280822
H            2.38246585381371       -4.96825635463359       -0.77807871709829
H            2.27019623773178       -2.50071711839781       -0.72149896132322
H            4.38114431687448        1.81370606140459       -3.82913861411630
H            6.59219310548322        2.87106530304048       -4.23840794841899
H            8.61962841518157        1.88061604380400       -3.23242072727877
H            8.43901893799243       -0.11981268794962       -1.80597190832577
H            6.23274337804558       -1.14043691830232       -1.37532353286482
H            1.00286270589720        0.49302988823881       -1.88268822995529
H           -1.37029107970922        0.20508285793823        1.77777412898687
H           -3.71935389963455        0.82209059594233        1.49298926311859
H           -4.56472070041406       -0.23816385978981       -0.97116427363297
H           -6.14150105225688       -2.06674564540740       -0.53373449785179
H           -8.20026188066076       -0.73487364414708        3.23112910318738
H           -9.40414412534183       -1.66849382891511        5.16984438336291
H          -10.89240516676560       -3.59854706639250        4.92465908526732
H          -11.20944550491857       -4.67600933553684        2.72222446869677
H          -11.12004212697572       -5.37331108518393        0.05717690928711
H          -10.64212198797285       -5.51019256861202       -2.36444623832087
H           -9.15092301267418       -3.89046294782469       -3.43841142369606
H           -8.06815606469098       -2.09844807228036       -2.13584047367339
H           -8.84559343099072        0.69971888545224        1.27605217652858
H           -7.25684364700164        2.52383583351909        0.86372160992823
H           -4.53918379629793        2.98694661399339        2.41393965843051
H           -4.97627288022274        5.19701597829415        3.41971283284534
H           -5.71833958607077        7.07924054349928        2.03071711187519
H           -6.03790346991554        6.79308078315731       -0.40256413077587
H           -6.24899762618382        5.97473359007076       -2.84950753152280
H           -6.26998827185923        4.74606663334559       -4.99275945967276
H           -5.62349414410653        2.38021195982065       -5.07948398381332
H           -4.93719619773944        1.18777661114339       -3.03178216768837
H           -2.70579086292141        3.08907397115871       -1.98129484524467
H           -0.35681780549124        2.46231229509267       -1.70404935708959
H            0.76718780257063        1.17577878038977        2.34291995345634

          :  Hamiltonian                  GFN2-xTB          :
         :: gradient norm              0.000058463401 Eh/a0 ::
         :: HOMO-LUMO gap              2.322340477764 eV    ::
         :: SCC energy              -205.393937203119 Eh    ::
         :: -> dispersion             -0.206403098516 Eh    ::
         :: -> Gsolv                  -0.084359637561 Eh    ::
         :: repulsion energy           3.681452526184 Eh    ::

    * Orbital Energies and Occupations

         #    Occupation            Energy/Eh            Energy/eV
      -------------------------------------------------------------
         1        2.0000           -0.7555363             -20.5592
       ...           ...                  ...                  ...
       175        2.0000           -0.4110325             -11.1848
       176        2.0000           -0.4089547             -11.1282
       177        2.0000           -0.4088347             -11.1250
       178        2.0000           -0.4086256             -11.1193
       179        2.0000           -0.4047009             -11.0125
       180        2.0000           -0.4043489             -11.0029
       181        2.0000           -0.4039474             -10.9920
       182        2.0000           -0.4000886             -10.8870
       183        2.0000           -0.3969492             -10.8015
       184        2.0000           -0.3878721             -10.5545
       185        2.0000           -0.3807395             -10.3605
       186        2.0000           -0.3775573             -10.2739
       187        2.0000           -0.3607868              -9.8175 (HOMO)
       188                         -0.2754424              -7.4952 (LUMO)
       189                         -0.2659814              -7.2377
       190                         -0.2545411              -6.9264
       191                         -0.2529161              -6.8822
       192                         -0.2512046              -6.8356
       193                         -0.2478303              -6.7438
       194                         -0.2466674              -6.7122
       195                         -0.2450716              -6.6687
       196                         -0.2409863              -6.5576
       197                         -0.2388848              -6.5004
       198                         -0.2383150              -6.4849
       ...                                ...                  ...
       375                          1.1862079              32.2784
      -------------------------------------------------------------
                  HL-Gap            0.0853444 Eh            2.3223 eV

     #   Z          covCN         q      C6AA      α(0)
     1   8 O        0.808    -0.399    21.688     6.243
     2  15 P        4.075     0.068   157.230    22.525
     3   6 C        2.921     0.018    27.620     8.618
     4   6 C        2.984    -0.017    28.428     8.746
     5   6 C        2.920    -0.026    28.652     8.778
     6   6 C        2.921    -0.024    28.600     8.770
     7   6 C        2.919    -0.025    28.618     8.772
     8   6 C        3.020    -0.019    28.452     8.750
     9   6 C        2.921     0.011    27.765     8.641
    10   6 C        3.023    -0.019    28.464     8.751
    11   6 C        2.919    -0.026    28.656     8.778
    12   6 C        2.920    -0.022    28.561     8.764
    13   6 C        2.920    -0.025    28.631     8.775
    14   6 C        2.979    -0.024    28.596     8.772
    15   6 C        2.908    -0.013    28.341     8.729
    16   6 C        3.047    -0.024    28.545     8.763
    17   6 C        2.919    -0.035    28.865     8.810
    18   6 C        2.913    -0.028    28.703     8.785
    19   6 C        3.056    -0.018    28.396     8.739
    20   6 C        3.123     0.132    24.946     8.179
    21   8 O        1.714    -0.222    17.675     5.676
    22   6 C        3.122     0.129    25.019     8.191
    23   6 C        2.906    -0.015    28.383     8.736
    24  15 P        4.079     0.069   157.185    22.521
    25   8 O        0.808    -0.403    21.755     6.252
    26   6 C        2.921     0.014    27.702     8.631
    27   6 C        3.012    -0.019    28.456     8.750
    28   6 C        2.919    -0.024    28.614     8.772
    29   6 C        2.920    -0.023    28.590     8.768
    30   6 C        2.920    -0.026    28.641     8.776
    31   6 C        2.988    -0.021    28.526     8.761
    32   6 C        2.922     0.014    27.712     8.633
    33   6 C        3.031    -0.019    28.461     8.751
    34   6 C        2.919    -0.026    28.658     8.779
    35   6 C        2.920    -0.022    28.555     8.763
    36   6 C        2.920    -0.024    28.607     8.771
    37   6 C        2.976    -0.020    28.507     8.758
    38   6 C        3.057    -0.029    28.659     8.779
    39   6 C        2.975     0.008    27.826     8.653
    40   6 C        2.977     0.008    27.836     8.654
    41   6 C        2.924    -0.035    28.862     8.810
    42   6 C        2.923    -0.034    28.843     8.807
    43   6 C        2.979     0.018    27.602     8.618
    44   6 C        3.946     0.008    20.372     6.414
    45   6 C        2.979     0.016    27.653     8.626
    46   6 C        2.924    -0.033    28.816     8.803
    47   6 C        2.921    -0.043    29.072     8.842
    48   6 C        2.912     0.061    26.624     8.461
    49   7 N        2.802    -0.047    22.143     6.989
    50   6 C        3.076     0.048    26.854     8.496
    51   6 C        2.909    -0.052    29.293     8.875
    52   6 C        2.924    -0.035    28.880     8.813
    53   6 C        2.919    -0.043    29.073     8.842
    54   6 C        2.912    -0.035    28.874     8.811
    55   6 C        3.067    -0.019    28.415     8.741
    56   6 C        3.067    -0.019    28.416     8.741
    57   6 C        2.912    -0.035    28.876     8.812
    58   6 C        2.919    -0.043    29.071     8.842
    59   6 C        2.924    -0.035    28.877     8.812
    60   6 C        2.909    -0.052    29.289     8.874
    61   6 C        3.077     0.048    26.854     8.496
    62   6 C        2.921    -0.043    29.066     8.841
    63   6 C        2.923    -0.034    28.855     8.809
    64   6 C        3.055     0.003    27.893     8.661
    65   6 C        2.914    -0.035    28.861     8.809
    66   6 C        2.922    -0.033    28.824     8.804
    67   6 C        2.921    -0.033    28.828     8.805
    68   6 C        2.914    -0.035    28.862     8.810
    69   6 C        3.034     0.001    27.982     8.677
    70   6 C        3.034     0.000    27.986     8.677
    71   6 C        2.914    -0.035    28.863     8.810
    72   6 C        2.921    -0.033    28.827     8.805
    73   6 C        2.922    -0.033    28.818     8.803
    74   6 C        2.914    -0.034    28.853     8.808
    75   6 C        3.056     0.003    27.893     8.661
    76   6 C        2.922    -0.034    28.852     8.808
    77   6 C        2.924    -0.033    28.817     8.803
    78   6 C        2.918    -0.035    28.878     8.812
    79   6 C        3.053    -0.019    28.426     8.744
    80   1 H        0.925     0.032     2.553     2.499
    81   1 H        0.926     0.043     2.413     2.429
    82   1 H        0.926     0.048     2.340     2.392
    83   1 H        0.926     0.048     2.344     2.394
    84   1 H        0.925     0.039     2.460     2.452
    85   1 H        0.925     0.053     2.288     2.366
    86   1 H        0.926     0.047     2.352     2.398
    87   1 H        0.926     0.049     2.328     2.386
    88   1 H        0.926     0.043     2.415     2.430
    89   1 H        0.926     0.041     2.438     2.442
    90   1 H        0.926     0.064     2.156     2.296
    91   1 H        0.926     0.056     2.245     2.343
    92   1 H        0.926     0.060     2.204     2.321
    93   1 H        0.925     0.038     2.469     2.457
    94   1 H        0.926     0.048     2.347     2.395
    95   1 H        0.926     0.049     2.328     2.386
    96   1 H        0.926     0.046     2.376     2.411
    97   1 H        0.925     0.033     2.543     2.494
    98   1 H        0.925     0.050     2.323     2.383
    99   1 H        0.926     0.047     2.361     2.403
   100   1 H        0.926     0.048     2.341     2.393
   101   1 H        0.926     0.042     2.426     2.436
   102   1 H        0.926     0.041     2.429     2.437
   103   1 H        0.926     0.067     2.122     2.278
   104   1 H        0.926     0.039     2.466     2.456
   105   1 H        0.926     0.038     2.478     2.462
   106   1 H        0.926     0.040     2.444     2.445
   107   1 H        0.926     0.042     2.422     2.434
   108   1 H        0.926     0.030     2.593     2.518
   109   1 H        0.926     0.029     2.594     2.519
   110   1 H        0.926     0.027     2.630     2.536
   111   1 H        0.926     0.029     2.598     2.521
   112   1 H        0.926     0.029     2.596     2.520
   113   1 H        0.926     0.027     2.630     2.536
   114   1 H        0.926     0.029     2.598     2.521
   115   1 H        0.926     0.029     2.599     2.521
   116   1 H        0.926     0.042     2.425     2.435
   117   1 H        0.926     0.039     2.463     2.454
   118   1 H        0.926     0.033     2.547     2.496
   119   1 H        0.926     0.033     2.547     2.496
   120   1 H        0.926     0.032     2.555     2.500
   121   1 H        0.926     0.033     2.542     2.493
   122   1 H        0.926     0.033     2.538     2.491
   123   1 H        0.926     0.032     2.557     2.500
   124   1 H        0.926     0.032     2.558     2.501
   125   1 H        0.926     0.031     2.570     2.507
   126   1 H        0.926     0.035     2.523     2.484
   127   1 H        0.926     0.035     2.519     2.482
   128   1 H        0.926     0.059     2.208     2.324

molecular dipole:
                 x           y           z       tot (Debye)
 q only:        0.243       0.944      -0.043
   full:        0.273       1.014      -0.070       2.675

 projected vibrational frequencies (cm⁻¹)
eigval :       -0.00     0.00     0.00     0.00     0.00     0.00
eigval :        5.61     6.32    13.16    14.23    18.42    22.41
eigval :       24.15    26.64    29.09    32.45    34.40    35.84
eigval :       40.02    42.98    47.55    49.13    51.77    57.57
eigval :       64.57    68.18    71.07    76.38    76.72    84.55
eigval :       88.70    88.96    95.44   101.49   104.71   112.60
eigval :      131.41   135.28   145.01   146.60   149.64   154.62
eigval :      159.32   166.34   172.08   176.75   195.69   203.81
eigval :      205.14   209.25   229.65   231.56   235.90   238.58
eigval :      241.23   246.53   255.06   257.17   270.58   272.45
eigval :      272.83   274.59   280.07   294.19   302.76   320.75
eigval :      327.66   335.82   345.47   350.25   361.88   366.55
eigval :      369.09   369.42   376.94   384.09   388.88   391.01
eigval :      393.00   398.42   411.42   412.62   415.54   418.00
eigval :      424.63   430.33   437.31   443.68   456.28   458.56
eigval :      467.10   477.75   479.75   483.92   496.77   503.71
eigval :      507.96   516.24   518.76   521.50   529.36   534.53
eigval :      539.00   542.00   544.94   556.93   572.27   580.73
eigval :      585.22   585.51   585.88   586.53   587.35   592.25
eigval :      595.33   595.53   610.65   613.82   619.31   627.65
eigval :      637.56   657.45   658.57   658.63   661.18   672.49
eigval :      674.95   675.38   680.85   687.28   690.38   692.84
eigval :      701.09   709.39   709.83   715.28   720.35   721.89
eigval :      727.85   729.54   740.27   741.37   744.94   745.60
eigval :      753.39   756.47   768.07   769.12   779.45   786.25
eigval :      790.06   796.70   814.55   822.55   840.81   856.37
eigval :      863.64   866.19   871.72   876.61   878.05   878.56
eigval :      878.80   880.63   881.16   883.44   885.11   889.61
eigval :      896.32   897.33   899.95   900.49   901.08   901.45
eigval :      901.70   902.70   906.84   907.71   908.40   910.48
eigval :      914.82   919.99   920.18   920.41   924.99   926.51
eigval :      927.06   927.89   928.07   928.77   929.28   930.57
eigval :      932.57   934.48   934.95   935.25   936.91   937.69
eigval :      938.77   955.00   971.72   972.13   975.49   976.36
eigval :     1006.61  1011.21  1013.77  1025.16  1062.54  1068.16
eigval :     1071.44  1073.82  1076.92  1077.34  1077.61  1077.93
eigval :     1079.27  1092.97  1101.89  1106.76  1111.16  1111.71
eigval :     1112.57  1113.53  1117.06  1121.25  1122.48  1128.83
eigval :     1129.92  1138.20  1142.15  1146.07  1150.71  1157.88
eigval :     1172.17  1172.75  1173.64  1174.82  1175.21  1176.25
eigval :     1177.97  1178.16  1180.44  1181.35  1182.59  1183.22
eigval :     1187.97  1188.45  1190.41  1190.68  1201.35  1202.84
eigval :     1206.01  1213.00  1215.91  1220.40  1225.78  1226.76
eigval :     1233.44  1235.28  1238.85  1248.18  1252.35  1261.09
eigval :     1269.38  1269.68  1269.86  1270.80  1271.83  1276.16
eigval :     1283.58  1299.50  1302.62  1306.99  1313.17  1317.84
eigval :     1319.22  1319.99  1321.51  1322.37  1325.01  1338.18
eigval :     1351.23  1355.51  1360.71  1363.91  1365.57  1377.05
eigval :     1384.79  1400.78  1406.58  1420.55  1422.04  1422.86
eigval :     1424.23  1426.51  1427.44  1429.40  1430.78  1450.97
eigval :     1451.37  1452.26  1453.49  1454.89  1460.29  1469.05
eigval :     1470.55  1474.64  1487.08  1490.47  1498.66  1552.33
eigval :     1565.47  1569.56  1574.13  1575.12  1581.05  1581.92
eigval :     1582.96  1583.99  1584.61  1584.69  1584.85  1585.11
eigval :     1586.04  1586.26  1587.35  1592.58  1596.70  1596.96
eigval :     1597.16  1601.79  1602.59  1607.65  1613.18  3047.26
eigval :     3053.78  3058.82  3060.51  3066.84  3067.90  3068.95
eigval :     3069.40  3070.06  3070.16  3074.14  3074.87  3075.18
eigval :     3075.80  3075.95  3076.65  3077.15  3077.31  3077.62
eigval :     3078.78  3080.09  3080.78  3080.94  3081.65  3082.49
eigval :     3082.90  3083.25  3083.69  3084.29  3084.76  3085.96
eigval :     3087.43  3089.68  3089.85  3089.91  3090.55  3091.50
eigval :     3091.56  3091.83  3092.12  3092.20  3092.42  3093.25
eigval :     3095.44  3100.58  3101.94  3102.88  3105.24  3108.05

   temp. (K)  partition function   enthalpy   heat capacity  entropy
                                   cal/mol     cal/K/mol   cal/K/mol   J/K/mol
 298.15  VIB  0.123E+33            39061.807    239.749    246.819
         ROT  0.437E+09              888.752      2.981     42.517
         INT  0.537E+41            39950.559    242.730    289.336
         TR   0.329E+29             1481.254      4.968     46.706
         TOT                       41431.8133   247.6985   336.0422  1406.0006

       T/K    H(0)-H(T)+PV         H(T)/Eh          T*S/Eh         G(T)/Eh
   ------------------------------------------------------------------------
    298.15    0.660258E-01    0.103904E+01    0.159664E+00    0.879380E+00
   ------------------------------------------------------------------------

         :::::::::::::::::::::::::::::::::::::::::::::::::::::
         ::                  THERMODYNAMIC                  ::
         :::::::::::::::::::::::::::::::::::::::::::::::::::::
         :: total free energy        -200.833105046433 Eh   ::
         ::.................................................::
         :: total energy             -201.712484676078 Eh   ::
         :: zero point energy           0.973018326099 Eh   ::
         :: G(RRHO) w/o ZPVE           -0.093638696454 Eh   ::
         :: G(RRHO) contrib.            0.879379629645 Eh   ::
         :::::::::::::::::::::::::::::::::::::::::::::::::::::

           -------------------------------------------------
          | TOTAL ENERGY             -201.712484676078 Eh   |
          | TOTAL ENTHALPY           -200.673440552756 Eh   |
          | TOTAL FREE ENERGY        -200.833105046433 Eh   |
          | GRADIENT NORM               0.000058419539 Eh/α |
          | HOMO-LUMO GAP               2.322340406175 eV   |
           -------------------------------------------------

 * finished run on 2025/07/17 at 09:41:49.996
