   * xtb version 6.7.1 (edcfbbe) compiled by 'albert@albert-system' on 2024-07-22

   ID    Z sym.   atoms
    1    8 O      1, 21, 25
    2   15 P      2, 24
    3    6 C      3-20, 22, 23, 26-48, 50-79
    4    7 N      49
    5    1 H      80-128

          program call               : xtb data2507/toluene/9CzFDBFDPO/9CzFDBFDPO_toluene_S0_finalOpt.xtbopt.xyz --gfn 2 --uhf 2 --gbsa toluene --ohess vtight --parallel 40 --molden --ceasefiles --namespace data2507/toluene/9CzFDBFDPO/9CzFDBFDPO_toluene_T1_preOpt
      * Solvation model:               GBSA
        Solvent                        toluene
        Solvent mass                       9.2140E+01 g/mol
          :  Hamiltonian                  GFN2-xTB          :
 * total energy  :  -201.6011248 Eh     change       -0.1612250E-08 Eh
 * total energy  :  -201.6028340 Eh     change       -0.1709182E-02 Eh
 * total energy  :  -201.6032922 Eh     change       -0.4582046E-03 Eh
 * total energy  :  -201.6033523 Eh     change       -0.6010263E-04 Eh
 * total energy  :  -201.6033922 Eh     change       -0.3988363E-04 Eh
 * total energy  :  -201.6034134 Eh     change       -0.2119955E-04 Eh
 * total energy  :  -201.6034489 Eh     change       -0.3555809E-04 Eh
 * total energy  :  -201.6035061 Eh     change       -0.5717336E-04 Eh
 * total energy  :  -201.6034674 Eh     change        0.3867419E-04 Eh
 * total energy  :  -201.6036367 Eh     change       -0.1692424E-03 Eh
 * total energy  :  -201.6040519 Eh     change       -0.7067659E-06 Eh
 * total energy  :  -201.6040527 Eh     change       -0.7925768E-06 Eh
 * total energy  :  -201.6040538 Eh     change       -0.1109198E-05 Eh
 * total energy  :  -201.6040553 Eh     change       -0.1522970E-05 Eh
 * total energy  :  -201.6040569 Eh     change       -0.1574505E-05 Eh
 * total energy  :  -201.6040580 Eh     change       -0.1122476E-05 Eh
 * total energy  :  -201.6040588 Eh     change       -0.7886664E-06 Eh
 * total energy  :  -201.6040596 Eh     change       -0.7902720E-06 Eh
 * total energy  :  -201.6040596 Eh     change       -0.6689703E-08 Eh
   *** GEOMETRY OPTIMIZATION CONVERGED AFTER 44 ITERATIONS ***

 final structure:
================
128
 xtb: 6.7.1 (edcfbbe)
O            8.41554549581549       -1.26034454093103        3.42280163411194
P            7.57436362354875       -0.73802733686724        2.32604686156120
C            7.40056210206635       -1.98077801130283        1.00619105730884
C            6.32655521916751       -2.85652448130382        0.97243390642669
C            6.29985538681032       -3.87290015517614        0.03336088395104
C            7.34602068595137       -4.01745493849424       -0.86312317609915
C            8.43078351413170       -3.15620047280475       -0.81493937171852
C            8.46074393690214       -2.14134499002656        0.12480617462567
C            8.27775620252936        0.76373940039006        1.57770213286769
C            9.55721606305333        1.13807820145435        1.96913038510889
C           10.12789415075872        2.29146390916955        1.46141628127617
C            9.41415110284916        3.07945496538586        0.57220170698268
C            8.13287812384376        2.71225757756553        0.18917579916447
C            7.56326555060803        1.55526090481165        0.68717603610287
C            5.91628479643966       -0.27079078977337        2.89033246294891
C            5.77748548634538       -0.05338650962098        4.26590848999782
C            4.58197260071061        0.37238339697961        4.82662302331982
C            3.47186612091003        0.60504117270724        4.03870444091248
C            3.58155729674381        0.39082935501015        2.66241205313298
C            4.79957503659280       -0.04232219314194        2.10101224722913
O            4.69208422817097       -0.20072994286887        0.74606834547801
C            3.40868640112391        0.13043448253827        0.42189873878342
C            2.82047060266602        0.11976685415316       -0.83413691318035
P            3.56404600340225       -0.43084859899256       -2.39533078697017
O            2.69377749267249       -0.10100901312284       -3.54403297397094
C            3.78553279061447       -2.23741709783520       -2.26458501722712
C            4.63783734770902       -2.86655634353409       -3.16166465618178
C            4.69463077799962       -4.24761786147758       -3.20791497472675
C            3.89304383913352       -5.00168756509916       -2.36515501386378
C            3.03620154800593       -4.37436606065795       -1.47526963240896
C            2.97851258925603       -2.99187323459101       -1.42647000557189
C            5.21875392831232        0.29814208683524       -2.57326549837247
C            5.32044830533886        1.43607813239076       -3.36426745845172
C            6.55605046348372        2.01414427698487       -3.59085996279561
C            7.69203426637052        1.44901717929029       -3.03212243148023
C            7.58948419208957        0.31527824584928       -2.24181856032834
C            6.35455388312794       -0.26118460131440       -2.00451941922239
C            1.48667036662613        0.52772812883643       -0.91591908914767
C            0.74150122365976        0.90671324050579        0.20229718482258
C           -0.66936578508988        1.28911826082523        0.04698763216836
C           -1.62877503060470        0.84327506434503        0.95503524778047
C           -2.95846501651999        1.17536527519270        0.79689060167479
C           -3.37100810100766        1.96828035785494       -0.26994222659891
C           -4.82463318733054        2.37181513782714       -0.39977842162160
C           -5.78350955862116        1.25102504846702       -0.06309933909623
C           -5.49989505175898       -0.05869417373741       -0.44698030701171
C           -6.39960091700493       -1.07575170874581       -0.21013506863043
C           -7.61508184293231       -0.80234734677979        0.41905112880504
N           -8.52516341375332       -1.83382947730958        0.67004909933868
C           -9.13403565272154       -2.09501404885449        1.88093796463698
C           -8.97473728660631       -1.45849983630934        3.10541722520390
C           -9.68913292975149       -1.94802441793404        4.18417100983660
C          -10.53306195221256       -3.04822750496437        4.05655800341606
C          -10.67561597548222       -3.70286377693180        2.84401743634531
C           -9.97082582428808       -3.22908633409575        1.74873775485517
C           -9.85803809186305       -3.66112951732396        0.37901538114298
C          -10.43895846741755       -4.68730281992986       -0.34911580050432
C          -10.11857728929667       -4.80978117951715       -1.69133091363770
C           -9.24662623122813       -3.91527782263222       -2.30668164087531
C           -8.65615021507408       -2.88267158609542       -1.60052299082887
C           -8.95199775534455       -2.77217210776243       -0.24757629986127
C           -7.91168685459479        0.50773264311689        0.79328064953171
C           -7.00677043252693        1.51928594159852        0.54577745880538
C           -5.04082389803771        3.62323425845902        0.42940702935328
C           -4.81861033922114        3.82451234243154        1.76271530587887
C           -5.08593810960289        5.08304455550751        2.31513275356481
C           -5.56467044035756        6.13257174535612        1.51061148911135
C           -5.78366556762103        5.95927097721532        0.17108493670837
C           -5.52402750717248        4.69072367027658       -0.40713082968597
C           -5.64941105527502        4.22545223201982       -1.72265972938783
C           -6.08973075072393        4.86477437955507       -2.90927156811560
C           -6.08835423734483        4.15862136721263       -4.08066461376935
C           -5.66414482592266        2.81741072648390       -4.12605818520709
C           -5.23860629205103        2.16395723414868       -2.96449802750680
C           -5.22009239644336        2.85213239262370       -1.78328642033604
C           -2.41291372130990        2.43893738553706       -1.15975586352449
C           -1.08322601232881        2.09469958207598       -1.01142978477671
C            1.33647301804508        0.89163635575299        1.45802342918354
C            2.67367869011977        0.51093714366953        1.56393595047953
H            5.51943325863720       -2.74124694328677        1.68349370501918
H            5.46210395304799       -4.55288775824503        0.00090342591702
H            7.31821594142335       -4.81034967058154       -1.59497169409412
H            9.25167191340633       -3.27822759099887       -1.50639611394536
H            9.30426638727410       -1.46582955172640        0.19304141025664
H           10.08619541994199        0.51142123439540        2.67425867231425
H           11.12519030509544        2.57760572431545        1.76237444394764
H            9.85495340343488        3.98364452596463        0.17894430889411
H            7.57519384643945        3.32704510631434       -0.50190536126453
H            6.57148734698804        1.25929016747710        0.38269988676633
H            6.64131199928409       -0.24113250509101        4.88704542108346
H            4.52519223105113        0.52472369291413        5.89429055016843
H            2.53950196356466        0.93975389272958        4.46475049883466
H            5.24586538998110       -2.26335036940522       -3.82351215457693
H            5.35651714524892       -4.73607176045132       -3.90793972391775
H            3.93276487052123       -6.08047245835814       -2.40518214686695
H            2.40650720727011       -4.96155298613768       -0.82219135285602
H            2.30530178054336       -2.49205565646594       -0.74237603704362
H            4.42069882168492        1.84160994701015       -3.80696928508791
H            6.63435781762393        2.89767452280593       -4.20766523984213
H            8.66056749757211        1.89099962743867       -3.21378388420224
H            8.47486732203641       -0.12371378664956       -1.80809456129977
H            6.26632945971510       -1.14278224126169       -1.38703083008842
H            1.02666910682077        0.51121442376941       -1.89328464379787
H           -1.32932829407182        0.20747900813357        1.77544615140167
H           -3.68854382148247        0.80108265751349        1.49997516007386
H           -4.55356782336769       -0.28394736136280       -0.91542616565239
H           -6.15508104721397       -2.09210998813787       -0.48012816012517
H           -8.30756943548796       -0.61806550006761        3.21761763491621
H           -9.58573439503763       -1.46946734625321        5.14653796591035
H          -11.07582539614898       -3.40081358870846        4.92076673061168
H          -11.31637281644472       -4.56655819488028        2.75371662921533
H          -11.12891330131582       -5.37202789506755        0.11962208591432
H          -10.55847588188624       -5.60459581018388       -2.27496346481071
H           -9.03004896214306       -4.02658545832405       -3.35858486302473
H           -7.99798431922124       -2.18146443909044       -2.08967119920960
H           -8.86401416690066        0.72991758731560        1.25052416794035
H           -7.25067822560255        2.53355606171948        0.82515761234720
H           -4.44622360169489        3.02984033289876        2.39210471323229
H           -4.92191057422483        5.25170755936570        3.36813709268267
H           -5.75611146772696        7.09263415303584        1.96868619356694
H           -6.14061259038672        6.76854158501691       -0.44749784026111
H           -6.42209335556164        5.89111321033872       -2.87420795832881
H           -6.41839211743687        4.62963745621248       -4.99572790948634
H           -5.66559359711808        2.29027267652806       -5.06745419969509
H           -4.91606858743959        1.13430159674704       -3.01485604107970
H           -2.71141845018317        3.07548479466165       -1.98037194689296
H           -0.35128778603791        2.46687583230034       -1.71339104509276
H            0.78836373603517        1.19108525598702        2.33697056626389

          :  Hamiltonian                  GFN2-xTB          :
         :: gradient norm              0.000068248937 Eh/a0 ::
         :: HOMO-LUMO gap              0.043411291045 eV    ::
         :: SCC energy              -205.262603772283 Eh    ::
         :: -> dispersion             -0.206509135320 Eh    ::
         :: -> Gsolv                  -0.089969035679 Eh    ::
         :: repulsion energy           3.658544190384 Eh    ::

    * Orbital Energies and Occupations

         #    Occupation            Energy/Eh            Energy/eV
      -------------------------------------------------------------
         1        2.0000           -0.7437856             -20.2394
       ...           ...                  ...                  ...
       176        2.0000           -0.4074304             -11.0867
       177        2.0000           -0.4058985             -11.0451
       178        2.0000           -0.4052255             -11.0267
       179        2.0000           -0.4039287             -10.9915
       180        2.0000           -0.4033399             -10.9754
       181        2.0000           -0.4009438             -10.9102
       182        2.0000           -0.3972905             -10.8108
       183        2.0000           -0.3927305             -10.6867
       184        2.0000           -0.3904444             -10.6245
       185        1.9997           -0.3822452             -10.4014
       186        1.8675           -0.3764643             -10.2441
       187        1.1329           -0.3728973             -10.1471
       188        0.6978           -0.2658732              -7.2348 (HOMO)
       189        0.3007           -0.2642767              -7.1913 (LUMO)
       190        0.0013           -0.2587419              -7.0407
       191        0.0002           -0.2570631              -6.9950
       192                         -0.2482045              -6.7540
       193                         -0.2468391              -6.7168
       194                         -0.2448643              -6.6631
       195                         -0.2438735              -6.6361
       196                         -0.2422098              -6.5909
       197                         -0.2392129              -6.5093
       198                         -0.2366406              -6.4393
       199                         -0.2359853              -6.4215
       ...                                ...                  ...
       375                          1.1900421              32.3827
      -------------------------------------------------------------
                  HL-Gap            0.0015965 Eh            0.0434 eV

     #   Z          covCN         q      C6AA      α(0)
     1   8 O        0.808    -0.402    21.750     6.252
     2  15 P        4.071     0.047   158.157    22.591
     3   6 C        2.921     0.019    27.578     8.612
     4   6 C        2.985    -0.016    28.410     8.743
     5   6 C        2.920    -0.027    28.666     8.780
     6   6 C        2.921    -0.025    28.623     8.773
     7   6 C        2.919    -0.026    28.640     8.776
     8   6 C        3.018    -0.019    28.455     8.750
     9   6 C        2.920     0.012    27.740     8.637
    10   6 C        3.020    -0.020    28.488     8.755
    11   6 C        2.918    -0.027    28.687     8.783
    12   6 C        2.920    -0.024    28.611     8.771
    13   6 C        2.919    -0.026    28.655     8.778
    14   6 C        2.978    -0.024    28.586     8.770
    15   6 C        2.907    -0.019    28.482     8.751
    16   6 C        3.042    -0.036    28.852     8.810
    17   6 C        2.917    -0.038    28.957     8.824
    18   6 C        2.912    -0.042    29.035     8.836
    19   6 C        3.055    -0.027    28.629     8.775
    20   6 C        3.123     0.129    25.001     8.188
    21   8 O        1.714    -0.236    17.905     5.713
    22   6 C        3.120     0.127    25.049     8.197
    23   6 C        2.906    -0.021    28.520     8.757
    24  15 P        4.077     0.049   158.079    22.585
    25   8 O        0.808    -0.405    21.802     6.259
    26   6 C        2.921     0.016    27.665     8.625
    27   6 C        3.008    -0.019    28.461     8.751
    28   6 C        2.919    -0.025    28.635     8.775
    29   6 C        2.920    -0.024    28.615     8.772
    30   6 C        2.919    -0.026    28.658     8.779
    31   6 C        2.989    -0.021    28.517     8.760
    32   6 C        2.921     0.015    27.682     8.628
    33   6 C        3.030    -0.020    28.471     8.752
    34   6 C        2.918    -0.027    28.688     8.783
    35   6 C        2.920    -0.024    28.592     8.769
    36   6 C        2.920    -0.025    28.618     8.773
    37   6 C        2.976    -0.020    28.499     8.757
    38   6 C        3.054    -0.040    28.933     8.821
    39   6 C        2.973     0.003    27.958     8.673
    40   6 C        2.978     0.010    27.793     8.648
    41   6 C        2.924    -0.035    28.861     8.810
    42   6 C        2.922    -0.035    28.868     8.811
    43   6 C        2.979     0.015    27.683     8.631
    44   6 C        3.940     0.010    20.347     6.410
    45   6 C        2.983     0.021    27.528     8.606
    46   6 C        2.922    -0.029    28.729     8.790
    47   6 C        2.920    -0.039    28.975     8.827
    48   6 C        2.913     0.059    26.678     8.470
    49   7 N        2.802    -0.009    21.431     6.876
    50   6 C        3.072     0.047    26.877     8.500
    51   6 C        2.909    -0.042    29.044     8.837
    52   6 C        2.923    -0.030    28.754     8.794
    53   6 C        2.920    -0.032    28.796     8.800
    54   6 C        2.912    -0.028    28.706     8.786
    55   6 C        3.064    -0.011    28.213     8.710
    56   6 C        3.064    -0.011    28.213     8.710
    57   6 C        2.912    -0.028    28.706     8.786
    58   6 C        2.920    -0.032    28.794     8.799
    59   6 C        2.923    -0.030    28.752     8.793
    60   6 C        2.909    -0.042    29.038     8.836
    61   6 C        3.072     0.047    26.877     8.500
    62   6 C        2.920    -0.039    28.971     8.826
    63   6 C        2.922    -0.031    28.775     8.797
    64   6 C        3.050     0.005    27.875     8.659
    65   6 C        2.906    -0.035    28.874     8.811
    66   6 C        2.919    -0.037    28.912     8.817
    67   6 C        2.913    -0.030    28.738     8.791
    68   6 C        2.907    -0.038    28.937     8.821
    69   6 C        3.025     0.000    27.995     8.679
    70   6 C        3.025     0.000    28.000     8.680
    71   6 C        2.907    -0.038    28.932     8.820
    72   6 C        2.913    -0.030    28.737     8.790
    73   6 C        2.919    -0.037    28.914     8.818
    74   6 C        2.906    -0.035    28.866     8.810
    75   6 C        3.055     0.005    27.855     8.656
    76   6 C        2.921    -0.034    28.847     8.808
    77   6 C        2.924    -0.032    28.809     8.802
    78   6 C        2.917    -0.047    29.176     8.858
    79   6 C        3.054    -0.028    28.645     8.777
    80   1 H        0.925     0.030     2.587     2.515
    81   1 H        0.926     0.041     2.436     2.441
    82   1 H        0.926     0.047     2.354     2.399
    83   1 H        0.926     0.047     2.362     2.403
    84   1 H        0.925     0.037     2.491     2.468
    85   1 H        0.925     0.050     2.322     2.383
    86   1 H        0.926     0.046     2.376     2.410
    87   1 H        0.926     0.047     2.352     2.398
    88   1 H        0.926     0.040     2.454     2.450
    89   1 H        0.926     0.037     2.489     2.467
    90   1 H        0.926     0.049     2.329     2.386
    91   1 H        0.926     0.043     2.409     2.427
    92   1 H        0.926     0.045     2.389     2.417
    93   1 H        0.925     0.036     2.503     2.474
    94   1 H        0.926     0.046     2.365     2.405
    95   1 H        0.926     0.048     2.339     2.392
    96   1 H        0.926     0.044     2.394     2.419
    97   1 H        0.925     0.031     2.565     2.505
    98   1 H        0.925     0.047     2.352     2.398
    99   1 H        0.926     0.045     2.382     2.414
   100   1 H        0.926     0.046     2.367     2.406
   101   1 H        0.926     0.039     2.468     2.457
   102   1 H        0.926     0.037     2.488     2.467
   103   1 H        0.926     0.055     2.262     2.352
   104   1 H        0.926     0.037     2.488     2.466
   105   1 H        0.926     0.038     2.470     2.458
   106   1 H        0.926     0.048     2.350     2.397
   107   1 H        0.926     0.051     2.302     2.373
   108   1 H        0.926     0.044     2.394     2.419
   109   1 H        0.926     0.042     2.419     2.432
   110   1 H        0.926     0.041     2.432     2.439
   111   1 H        0.926     0.044     2.401     2.423
   112   1 H        0.926     0.044     2.399     2.422
   113   1 H        0.926     0.041     2.432     2.438
   114   1 H        0.926     0.042     2.422     2.434
   115   1 H        0.926     0.044     2.397     2.421
   116   1 H        0.926     0.052     2.299     2.371
   117   1 H        0.926     0.047     2.356     2.400
   118   1 H        0.926     0.032     2.555     2.500
   119   1 H        0.926     0.032     2.557     2.501
   120   1 H        0.926     0.032     2.563     2.503
   121   1 H        0.926     0.032     2.552     2.498
   122   1 H        0.926     0.033     2.546     2.495
   123   1 H        0.926     0.032     2.559     2.502
   124   1 H        0.926     0.032     2.558     2.501
   125   1 H        0.926     0.031     2.568     2.506
   126   1 H        0.926     0.034     2.531     2.488
   127   1 H        0.926     0.032     2.553     2.499
   128   1 H        0.926     0.045     2.379     2.412

molecular dipole:
                 x           y           z       tot (Debye)
 q only:       -6.851      -0.554      -0.287
   full:       -6.707      -0.436      -0.298      17.100

 projected vibrational frequencies (cm⁻¹)
eigval :       -0.00    -0.00    -0.00    -0.00     0.00     0.00
eigval :        5.25     6.03     9.43    12.96    16.86    19.37
eigval :       20.58    23.14    27.27    30.09    32.54    36.33
eigval :       39.44    41.41    47.72    48.70    52.82    57.12
eigval :       62.08    66.99    69.14    76.60    76.88    83.18
eigval :       85.67    90.69    95.30   100.90   103.70   112.12
eigval :      121.18   130.10   143.88   146.05   149.63   153.47
eigval :      156.40   163.31   169.55   175.31   194.60   199.79
eigval :      203.99   207.04   226.05   228.16   233.46   234.97
eigval :      239.94   241.49   255.07   255.57   258.31   268.99
eigval :      271.70   274.51   276.38   286.14   297.80   318.43
eigval :      324.54   335.17   339.96   344.02   348.60   361.12
eigval :      366.65   369.26   369.55   374.72   380.39   385.68
eigval :      387.68   393.36   410.06   410.37   412.51   416.95
eigval :      419.53   420.16   428.03   434.88   436.84   454.14
eigval :      456.73   463.86   471.08   475.77   479.46   492.32
eigval :      495.93   500.58   510.52   513.49   515.24   522.03
eigval :      535.91   540.51   543.67   546.94   562.33   565.64
eigval :      579.17   585.14   585.49   585.69   586.49   587.53
eigval :      591.03   593.52   603.53   606.33   612.10   621.62
eigval :      629.87   653.65   656.29   657.03   658.04   660.83
eigval :      669.04   673.44   674.68   674.94   678.41   688.70
eigval :      692.53   695.28   699.99   708.89   711.39   714.41
eigval :      717.55   719.03   722.42   726.71   728.74   739.13
eigval :      741.14   741.90   744.03   754.82   769.23   775.80
eigval :      777.58   786.44   807.97   809.72   817.77   818.74
eigval :      830.91   834.13   854.19   855.22   856.28   863.09
eigval :      869.44   873.89   875.56   877.00   877.18   878.27
eigval :      880.74   881.42   882.62   885.63   890.18   893.89
eigval :      896.42   897.81   900.00   900.75   903.97   904.73
eigval :      904.89   906.08   906.61   909.08   917.65   919.99
eigval :      921.66   923.35   925.44   925.90   927.47   929.00
eigval :      929.59   930.93   932.47   933.15   933.60   934.76
eigval :      935.37   942.66   971.57   972.02   972.78   975.14
eigval :      976.06  1007.69  1009.93  1018.32  1035.67  1038.62
eigval :     1055.12  1066.37  1068.90  1076.85  1077.18  1077.55
eigval :     1077.72  1090.64  1095.66  1101.02  1108.56  1110.83
eigval :     1111.47  1111.64  1112.55  1113.61  1118.10  1120.62
eigval :     1124.35  1126.12  1130.40  1135.63  1140.55  1142.63
eigval :     1153.38  1156.57  1158.62  1169.36  1171.64  1175.09
eigval :     1175.63  1176.04  1176.19  1177.64  1177.95  1178.38
eigval :     1179.12  1187.74  1188.32  1190.33  1190.83  1193.31
eigval :     1196.77  1203.61  1207.12  1210.59  1212.66  1215.65
eigval :     1226.81  1228.59  1231.12  1238.75  1250.17  1258.35
eigval :     1261.59  1269.95  1270.35  1271.64  1272.60  1273.29
eigval :     1274.25  1280.55  1287.99  1306.71  1316.07  1317.94
eigval :     1319.46  1321.98  1322.92  1322.94  1330.19  1332.59
eigval :     1332.76  1343.24  1350.36  1352.44  1354.80  1356.51
eigval :     1359.39  1362.83  1377.38  1394.04  1398.35  1401.93
eigval :     1404.63  1410.79  1417.33  1420.67  1421.97  1423.06
eigval :     1424.34  1437.25  1449.55  1451.05  1451.77  1454.21
eigval :     1455.64  1458.09  1462.12  1472.56  1477.59  1484.79
eigval :     1486.56  1496.00  1525.16  1537.99  1540.77  1544.16
eigval :     1550.78  1554.09  1560.38  1561.92  1571.04  1573.62
eigval :     1575.99  1576.47  1577.34  1578.90  1580.29  1583.66
eigval :     1584.86  1586.30  1587.02  1592.50  1595.48  3045.56
eigval :     3052.02  3055.98  3057.57  3064.71  3066.54  3068.81
eigval :     3071.69  3071.71  3073.13  3073.89  3075.49  3076.18
eigval :     3076.65  3077.82  3079.18  3079.73  3079.99  3080.39
eigval :     3081.26  3081.63  3082.57  3083.70  3084.32  3085.27
eigval :     3085.31  3085.46  3085.93  3086.50  3087.55  3087.56
eigval :     3087.97  3088.26  3089.67  3090.23  3090.49  3094.56
eigval :     3095.32  3095.46  3095.76  3095.95  3097.34  3098.88
eigval :     3099.95  3100.23  3100.46  3101.27  3102.37  3106.16

   temp. (K)  partition function   enthalpy   heat capacity  entropy
                                   cal/mol     cal/K/mol   cal/K/mol   J/K/mol
 298.15  VIB  0.855E+33            39567.717    242.415    250.667
         ROT  0.438E+09              888.752      2.981     42.522
         INT  0.375E+42            40456.470    245.396    293.189
         TR   0.329E+29             1481.254      4.968     46.706
         TOT                       41937.7236   250.3642   339.8950  1422.1207

       T/K    H(0)-H(T)+PV         H(T)/Eh          T*S/Eh         G(T)/Eh
   ------------------------------------------------------------------------
    298.15    0.668320E-01    0.103317E+01    0.161495E+00    0.871674E+00
   ------------------------------------------------------------------------

         :::::::::::::::::::::::::::::::::::::::::::::::::::::
         ::                  THERMODYNAMIC                  ::
         :::::::::::::::::::::::::::::::::::::::::::::::::::::
         :: total free energy        -200.732385730238 Eh   ::
         ::.................................................::
         :: total energy             -201.604059580035 Eh   ::
         :: zero point energy           0.966336917568 Eh   ::
         :: G(RRHO) w/o ZPVE           -0.094663067770 Eh   ::
         :: G(RRHO) contrib.            0.871673849797 Eh   ::
         :::::::::::::::::::::::::::::::::::::::::::::::::::::

           -------------------------------------------------
          | TOTAL ENERGY             -201.604059580035 Eh   |
          | TOTAL ENTHALPY           -200.570890645907 Eh   |
          | TOTAL FREE ENERGY        -200.732385730238 Eh   |
          | GRADIENT NORM               0.000068341669 Eh/α |
          | HOMO-LUMO GAP               0.043442751480 eV   |
           -------------------------------------------------

 * finished run on 2025/07/17 at 09:42:18.320
