   * xtb version 6.7.1 (edcfbbe) compiled by 'albert@albert-system' on 2024-07-22

   ID    Z sym.   atoms
    1    8 O      1, 24
    2    6 C      2-23, 25-30
    3    1 H      31-52

          program call               : xtb data2507/toluene/E-o-DHMPA/E-o-DHMPA.xyz --gfn 2 --gbsa toluene --ohess vtight --parallel 40 --molden --ceasefiles --namespace data2507/toluene/E-o-DHMPA/E-o-DHMPA_toluene_S0_preOpt
      * Solvation model:               GBSA
        Solvent                        toluene
        Solvent mass                       9.2140E+01 g/mol
          :  Hamiltonian                  GFN2-xTB          :
 * total energy  :   -79.3063711 Eh     change       -0.2167653E-08 Eh
 * total energy  :   -79.3179922 Eh     change       -0.1162107E-01 Eh
 * total energy  :   -79.3208507 Eh     change       -0.2858493E-02 Eh
 * total energy  :   -79.3212199 Eh     change       -0.3691744E-03 Eh
 * total energy  :   -79.3214341 Eh     change       -0.2142326E-03 Eh
 * total energy  :   -79.3215034 Eh     change       -0.6929482E-04 Eh
 * total energy  :   -79.3215894 Eh     change       -0.8601161E-04 Eh
 * total energy  :   -79.3216640 Eh     change       -0.7457625E-04 Eh
 * total energy  :   -79.3217395 Eh     change       -0.7547851E-04 Eh
 * total energy  :   -79.3217989 Eh     change       -0.5945907E-04 Eh
 * total energy  :   -79.3220849 Eh     change       -0.1625236E-06 Eh
 * total energy  :   -79.3220850 Eh     change       -0.1450451E-06 Eh
 * total energy  :   -79.3220851 Eh     change       -0.1205091E-06 Eh
 * total energy  :   -79.3220853 Eh     change       -0.1206241E-06 Eh
 * total energy  :   -79.3220854 Eh     change       -0.1640887E-06 Eh
 * total energy  :   -79.3220856 Eh     change       -0.2078984E-06 Eh
 * total energy  :   -79.3220859 Eh     change       -0.2257806E-06 Eh
 * total energy  :   -79.3220861 Eh     change       -0.2010923E-06 Eh
 * total energy  :   -79.3220861 Eh     change       -0.3667864E-08 Eh
   *** GEOMETRY OPTIMIZATION CONVERGED AFTER 44 ITERATIONS ***

 final structure:
================
52
 xtb: 6.7.1 (edcfbbe)
O           -2.38578754605922       -1.24003730124686        2.43228114832541
C           -2.83466165415233        0.06437943806952        2.10608122322274
C           -3.60696431229607        0.10751999173420        0.80959218543722
C           -4.99510889447069        0.12128202837555        0.81478039156689
C           -5.70921982104274        0.13565233942797       -0.37088225018248
C           -5.03665552210538        0.13316262236981       -1.58131426348640
C           -3.65367319501589        0.11387877846570       -1.60022047073878
C           -2.92956900450646        0.09896584082785       -0.41325483326902
C           -1.44604150764103        0.07777152259279       -0.45861469468427
C           -0.73129140751891        1.28265436304058       -0.43776019402057
C           -1.39039667516286        2.53971027434062       -0.38737132768302
C           -0.68466067666480        3.70303049015223       -0.35902561120131
C            0.72560866032325        3.68188046829935       -0.37844833339698
C            1.39502758995660        2.49785436745049       -0.42674523370253
C            0.69802096503370        1.26084888561172       -0.45908895852915
C            1.37637055884974        0.03580567196748       -0.50130613215749
C            2.85916082499747        0.01185825809426       -0.50782191481217
C            3.54706074383398        0.06643977348760       -1.71348923073952
C            4.93097938172510        0.04235733746610       -1.73757192298441
C            5.63774375978656       -0.03595844752477       -0.55043494174501
C            4.96023654117618       -0.09068996764434        0.65607574664203
C            3.57486304269557       -0.06749357403846        0.69002168232744
C            2.82232844193476       -0.13019902249076        1.99516351158220
O            3.71317743755989       -0.15692505081380        3.09034207869423
C            0.66152466498500       -1.16792126599445       -0.54056733765567
C            1.32035919882418       -2.42499070074664       -0.59276982160485
C            0.61649142451438       -3.58945308952793       -0.62598415984519
C           -0.79375728045483       -3.56980927331002       -0.61389212685331
C           -1.46459343402642       -2.38637438435364       -0.56412955711974
C           -0.76811125073123       -1.14704302994401       -0.52234222873614
H           -1.86537802255479       -1.57453058837927        1.68915275841400
H           -1.97695358121308        0.75178063336454        2.05541715132771
H           -3.47437383866519        0.36456106828347        2.93950196214303
H           -5.51815467746934        0.12108622146282        1.76027977385532
H           -6.78896663004478        0.14856739923413       -0.34962131161042
H           -5.58792332757548        0.14529224761212       -2.51011206307235
H           -3.11995417633098        0.11102342855086       -2.53996234863303
H           -2.47057277695738        2.55207783116262       -0.37154016509009
H           -1.19874184736977        4.65243275986003       -0.32139724986556
H            1.26874038385417        4.61541926713638       -0.35415107883952
H            2.47499557067655        2.47689377865246       -0.44141312788357
H            2.98645845883883        0.12743805632349       -2.63562383220144
H            5.45396501690556        0.08496539847668       -2.68179764960875
H            6.71769008271820       -0.05502924808282       -0.56062101149478
H            5.50006770921713       -0.15130242738341        1.58818756670538
H            2.18790668716289       -1.03113233656873        1.99686116361491
H            2.15628740427159        0.74459967171901        2.06486596892087
H            3.19663534549697       -0.20499002092538        3.90220679311332
H            2.40042455774141       -2.43503973706906       -0.60663024909660
H            1.13145981996518       -4.53814679286440       -0.66491212934787
H           -1.33672913626797       -4.50295964077095       -0.64616878910601
H           -2.54534707674911       -2.37116531393321       -0.56382255490272

          :  Hamiltonian                  GFN2-xTB          :
         :: gradient norm              0.000040916830 Eh/a0 ::
         :: HOMO-LUMO gap              2.180973516514 eV    ::
         :: SCC energy               -80.704522706539 Eh    ::
         :: -> dispersion             -0.070831230400 Eh    ::
         :: -> Gsolv                  -0.031443374979 Eh    ::
         :: repulsion energy           1.382436644141 Eh    ::

    * Orbital Energies and Occupations

         #    Occupation            Energy/Eh            Energy/eV
      -------------------------------------------------------------
         1        2.0000           -0.6950800             -18.9141
       ...           ...                  ...                  ...
        61        2.0000           -0.4272342             -11.6256
        62        2.0000           -0.4263159             -11.6006
        63        2.0000           -0.4231811             -11.5153
        64        2.0000           -0.4219931             -11.4830
        65        2.0000           -0.4119519             -11.2098
        66        2.0000           -0.4099552             -11.1554
        67        2.0000           -0.4080309             -11.1031
        68        2.0000           -0.4046125             -11.0101
        69        2.0000           -0.4036877             -10.9849
        70        2.0000           -0.4025166             -10.9530
        71        2.0000           -0.3998888             -10.8815
        72        2.0000           -0.3923370             -10.6760
        73        2.0000           -0.3638061              -9.8997 (HOMO)
        74                         -0.2836568              -7.7187 (LUMO)
        75                         -0.2361562              -6.4261
        76                         -0.2312116              -6.2916
        77                         -0.2283698              -6.2143
        78                         -0.2252683              -6.1299
        79                         -0.2246030              -6.1118
        80                         -0.2220117              -6.0412
        81                         -0.1825649              -4.9678
        82                         -0.1774195              -4.8278
        83                         -0.1037880              -2.8242
        84                         -0.1033787              -2.8131
       ...                                ...                  ...
       142                          0.7086613              19.2837
      -------------------------------------------------------------
                  HL-Gap            0.0801493 Eh            2.1810 eV

     #   Z          covCN         q      C6AA      α(0)
     1   8 O        1.654    -0.468    22.206     6.361
     2   6 C        3.679     0.081    19.434     6.315
     3   6 C        2.969    -0.009    28.238     8.716
     4   6 C        2.923    -0.034    28.851     8.808
     5   6 C        2.918    -0.032    28.788     8.799
     6   6 C        2.918    -0.031    28.771     8.796
     7   6 C        2.923    -0.033    28.817     8.803
     8   6 C        2.980     0.009    27.802     8.649
     9   6 C        2.977    -0.008    28.205     8.711
    10   6 C        2.984     0.005    27.901     8.665
    11   6 C        2.917    -0.036    28.888     8.814
    12   6 C        2.914    -0.030    28.744     8.792
    13   6 C        2.914    -0.030    28.744     8.792
    14   6 C        2.917    -0.035    28.867     8.811
    15   6 C        2.984     0.004    27.920     8.667
    16   6 C        2.977    -0.008    28.211     8.712
    17   6 C        2.981     0.003    27.962     8.674
    18   6 C        2.924    -0.033    28.826     8.805
    19   6 C        2.918    -0.034    28.844     8.807
    20   6 C        2.919    -0.033    28.827     8.804
    21   6 C        2.922    -0.032    28.788     8.799
    22   6 C        2.971     0.002    27.976     8.676
    23   6 C        3.678     0.090    19.298     6.293
    24   8 O        1.655    -0.455    21.947     6.324
    25   6 C        2.984     0.003    27.945     8.671
    26   6 C        2.917    -0.034    28.858     8.809
    27   6 C        2.914    -0.030    28.754     8.793
    28   6 C        2.914    -0.030    28.752     8.793
    29   6 C        2.916    -0.041    29.031     8.835
    30   6 C        2.983     0.001    28.005     8.681
    31   1 H        0.805     0.297     0.730     1.342
    32   1 H        0.923     0.021     2.714     2.576
    33   1 H        0.924     0.046     2.376     2.411
    34   1 H        0.926     0.037     2.485     2.465
    35   1 H        0.926     0.037     2.490     2.468
    36   1 H        0.926     0.037     2.487     2.466
    37   1 H        0.926     0.035     2.521     2.483
    38   1 H        0.926     0.032     2.552     2.498
    39   1 H        0.926     0.033     2.542     2.493
    40   1 H        0.926     0.033     2.544     2.494
    41   1 H        0.926     0.033     2.544     2.494
    42   1 H        0.926     0.033     2.545     2.495
    43   1 H        0.926     0.035     2.519     2.482
    44   1 H        0.926     0.035     2.523     2.484
    45   1 H        0.926     0.050     2.324     2.384
    46   1 H        0.923     0.026     2.642     2.542
    47   1 H        0.923     0.025     2.657     2.549
    48   1 H        0.805     0.297     0.729     1.341
    49   1 H        0.926     0.033     2.540     2.492
    50   1 H        0.926     0.033     2.541     2.493
    51   1 H        0.926     0.034     2.534     2.489
    52   1 H        0.926     0.034     2.532     2.488

molecular dipole:
                 x           y           z       tot (Debye)
 q only:       -0.365       0.295      -0.585
   full:       -0.502       0.326      -0.617       2.185

 projected vibrational frequencies (cm⁻¹)
eigval :       -0.00    -0.00    -0.00    -0.00     0.00     0.00
eigval :       17.93    21.77    25.31    47.75    60.03    63.67
eigval :       68.62    71.88    78.47   106.38   130.70   147.57
eigval :      154.84   173.85   189.89   206.93   214.98   226.95
eigval :      241.88   261.89   297.41   312.22   332.12   372.16
eigval :      375.32   388.34   395.51   399.43   420.21   422.16
eigval :      446.86   457.14   459.29   470.47   487.87   506.19
eigval :      558.06   570.16   585.61   590.71   594.32   600.33
eigval :      614.38   633.63   669.27   684.08   691.74   716.22
eigval :      723.17   739.34   774.15   774.55   777.07   779.96
eigval :      796.68   814.13   876.53   879.36   885.63   887.49
eigval :      897.11   907.71   914.18   915.54   919.69   919.79
eigval :      921.22   928.87   929.49   930.55   931.03   932.98
eigval :      949.51   984.11  1034.90  1056.51  1076.03  1076.89
eigval :     1094.62  1095.12  1096.38  1115.71  1133.07  1145.10
eigval :     1157.87  1171.23  1177.13  1179.92  1180.67  1181.10
eigval :     1198.32  1201.71  1223.31  1230.25  1233.57  1241.06
eigval :     1255.50  1256.96  1260.72  1262.60  1286.00  1310.04
eigval :     1311.88  1323.62  1340.70  1347.08  1363.98  1370.21
eigval :     1383.44  1416.57  1427.25  1431.78  1433.52  1444.70
eigval :     1462.57  1469.75  1470.02  1483.73  1492.45  1524.15
eigval :     1531.27  1542.31  1574.87  1577.21  1596.69  1597.99
eigval :     1606.37  1620.97  2830.01  2866.71  2869.69  2978.99
eigval :     3070.02  3071.18  3071.45  3072.27  3074.27  3076.03
eigval :     3076.67  3076.83  3080.48  3084.75  3085.08  3086.67
eigval :     3090.59  3091.05  3092.94  3103.76  3482.43  3552.56

   temp. (K)  partition function   enthalpy   heat capacity  entropy
                                   cal/mol     cal/K/mol   cal/K/mol   J/K/mol
 298.15  VIB  0.513E+11            14382.286     91.260     89.243
         ROT  0.150E+08              888.752      2.981     35.817
         INT  0.769E+18            15271.039     94.241    125.060
         TR   0.747E+28             1481.254      4.968     43.759
         TOT                       16752.2926    99.2091   168.8188   706.3378

       T/K    H(0)-H(T)+PV         H(T)/Eh          T*S/Eh         G(T)/Eh
   ------------------------------------------------------------------------
    298.15    0.266965E-01    0.432698E+00    0.802112E-01    0.352487E+00
   ------------------------------------------------------------------------

         :::::::::::::::::::::::::::::::::::::::::::::::::::::
         ::                  THERMODYNAMIC                  ::
         :::::::::::::::::::::::::::::::::::::::::::::::::::::
         :: total free energy         -78.969599267889 Eh   ::
         ::.................................................::
         :: total energy              -79.322086063245 Eh   ::
         :: zero point energy           0.406001566111 Eh   ::
         :: G(RRHO) w/o ZPVE           -0.053514770755 Eh   ::
         :: G(RRHO) contrib.            0.352486795356 Eh   ::
         :::::::::::::::::::::::::::::::::::::::::::::::::::::

           -------------------------------------------------
          | TOTAL ENERGY              -79.322086063245 Eh   |
          | TOTAL ENTHALPY            -78.889388019545 Eh   |
          | TOTAL FREE ENERGY         -78.969599267889 Eh   |
          | GRADIENT NORM               0.000040916425 Eh/α |
          | HOMO-LUMO GAP               2.180973549107 eV   |
           -------------------------------------------------

 * finished run on 2025/07/18 at 18:00:37.762
