   * xtb version 6.7.1 (edcfbbe) compiled by 'albert@albert-system' on 2024-07-22

   ID    Z sym.   atoms
    1    8 O      1, 24
    2    6 C      2-23, 25-30
    3    1 H      31-52

          program call               : xtb data2507/toluene/E-o-DHMPA/E-o-DHMPA_toluene_T1_crest.xyz --gfn 2 --uhf 2 --gbsa toluene --ohess vtight --parallel 40 --molden --ceasefiles --namespace data2507/toluene/E-o-DHMPA/E-o-DHMPA_toluene_T1_finalOpt
      * Solvation model:               GBSA
        Solvent                        toluene
        Solvent mass                       9.2140E+01 g/mol
          :  Hamiltonian                  GFN2-xTB          :
 * total energy  :   -79.2507967 Eh     change       -0.2681759E-08 Eh
 * total energy  :   -79.2512673 Eh     change       -0.4706068E-03 Eh
 * total energy  :   -79.2515086 Eh     change       -0.2413589E-03 Eh
 * total energy  :   -79.2515619 Eh     change       -0.5328269E-04 Eh
 * total energy  :   -79.2516212 Eh     change       -0.5931881E-04 Eh
 * total energy  :   -79.2516674 Eh     change       -0.4613227E-04 Eh
 * total energy  :   -79.2516916 Eh     change       -0.2422486E-04 Eh
 * total energy  :   -79.2517186 Eh     change       -0.2704126E-04 Eh
 * total energy  :   -79.2517301 Eh     change       -0.1151385E-04 Eh
 * total energy  :   -79.2517492 Eh     change       -0.1903371E-04 Eh
 * total energy  :   -79.2519294 Eh     change       -0.5204872E-06 Eh
 * total energy  :   -79.2519299 Eh     change       -0.4500681E-06 Eh
 * total energy  :   -79.2519303 Eh     change       -0.4087979E-06 Eh
 * total energy  :   -79.2519307 Eh     change       -0.3732842E-06 Eh
 * total energy  :   -79.2519310 Eh     change       -0.3317562E-06 Eh
 * total energy  :   -79.2519313 Eh     change       -0.2946012E-06 Eh
 * total energy  :   -79.2519315 Eh     change       -0.2063502E-06 Eh
 * total energy  :   -79.2519316 Eh     change       -0.1038601E-06 Eh
 * total energy  :   -79.2519317 Eh     change       -0.6441243E-07 Eh
   *** GEOMETRY OPTIMIZATION CONVERGED AFTER 57 ITERATIONS ***

 final structure:
================
52
 xtb: 6.7.1 (edcfbbe)
O           -2.22655249742688       -0.43674840210468        2.57450037439947
C           -2.98561056145186        0.62943583551280        2.03612706554904
C           -3.65923195236267        0.27023078798388        0.73304023802037
C           -5.04324175656477        0.22842320103629        0.64437868619827
C           -5.67301942228869       -0.14208578701879       -0.53154730375250
C           -4.91508287922148       -0.49554397129063       -1.63549906072484
C           -3.53559155068425       -0.46857814617305       -1.55913008766893
C           -2.89132647495559       -0.07746605277416       -0.38635253142915
C           -1.41773206743856       -0.03790198987101       -0.35947646548561
C           -0.74800982818857        1.22012219264689       -0.38837482008350
C           -1.45244903445938        2.42444134074985       -0.45991983782142
C           -0.78897249989567        3.65436058953066       -0.45426055126260
C            0.58503299793929        3.69417562590454       -0.37847148923405
C            1.31611717975395        2.50431038714876       -0.33582174659090
C            0.67925837635211        1.26063496583758       -0.36476992463421
C            1.41790828511889        0.04002138938660       -0.35940774218448
C            2.89151734178343        0.07992952777090       -0.38632383322041
C            3.53543445625711        0.47964167078640       -1.55636999777238
C            4.91490848651322        0.50735845296319       -1.63284881013056
C            5.67315071651464        0.14604429337710       -0.53165449330661
C            5.04369028910079       -0.23300970292870        0.64171968520642
C            3.65970597202891       -0.27568601851353        0.73036051683969
C            2.98628020420693       -0.64378212207083        2.03104275913116
O            2.23070182645719        0.42025331180011        2.57860654709166
C            0.74821216763187       -1.21771587041249       -0.39846213132076
C            1.45270723807518       -2.42140443319622       -0.47960940211136
C            0.78928796954461       -3.65134208591133       -0.48373249526041
C           -0.58470837811278       -3.69181331737878       -0.40814339138799
C           -1.31584511484435       -2.50235120679660       -0.35593449924815
C           -0.67905434916895       -1.25846396827687       -0.37501322416813
H           -1.58487197854391       -0.71378586473133        1.90654197679561
H           -2.34335843864086        1.51331699180765        1.89949425188517
H           -3.73509912588789        0.86284391637462        2.79587213440597
H           -5.63366397081742        0.48742144491649        1.51143316786993
H           -6.75143427189489       -0.16298484311042       -0.58206499936827
H           -5.39709979618447       -0.79215132094241       -2.55549622443512
H           -2.93647026197473       -0.73681039380621       -2.41761302574308
H           -2.53016132056567        2.40322501092781       -0.52353844854897
H           -1.36390049321216        4.56698876601871       -0.50286285562157
H            1.10783552546472        4.63855892186391       -0.35717027569970
H            2.39342792444478        2.54598539541185       -0.28013749947949
H            2.93602914116279        0.75413568348967       -2.41266513396766
H            5.39666665334861        0.81068149144456       -2.55078614860432
H            6.75155162202719        0.16743503434090       -0.58227246409696
H            5.63431955198527       -0.49824513391626        1.50673944927686
H            3.73574058469222       -0.88538648561740        2.78824248327018
H            2.34141615835766       -1.52468046409877        1.88783907683768
H            1.58939611781127        0.70467056518698        1.91342764327179
H            2.53041855074071       -2.39962143990087       -0.54298857134418
H            1.36424820649695       -4.56353234829793       -0.53961276087605
H           -1.10747159383463       -4.63635698526339       -0.39433568368479
H           -2.39313678928955       -2.54453930402028       -0.30032282447289

          :  Hamiltonian                  GFN2-xTB          :
         :: gradient norm              0.000028562671 Eh/a0 ::
         :: HOMO-LUMO gap              1.642491284707 eV    ::
         :: SCC energy               -80.615292508495 Eh    ::
         :: -> dispersion             -0.071801282034 Eh    ::
         :: -> Gsolv                  -0.031394173329 Eh    ::
         :: repulsion energy           1.363360838847 Eh    ::

    * Orbital Energies and Occupations

         #    Occupation            Energy/Eh            Energy/eV
      -------------------------------------------------------------
         1        2.0000           -0.6922495             -18.8371
       ...           ...                  ...                  ...
        62        2.0000           -0.4275788             -11.6350
        63        2.0000           -0.4249790             -11.5643
        64        2.0000           -0.4159639             -11.3190
        65        2.0000           -0.4112359             -11.1903
        66        2.0000           -0.4107401             -11.1768
        67        2.0000           -0.4086723             -11.1205
        68        2.0000           -0.4078758             -11.0989
        69        2.0000           -0.4076170             -11.0918
        70        2.0000           -0.4044890             -11.0067
        71        2.0000           -0.4026244             -10.9560
        72        2.0000           -0.3992077             -10.8630
        73        1.0000           -0.3587001              -9.7607
        74        1.0000           -0.2945205              -8.0143 (HOMO)
        75                         -0.2341600              -6.3718 (LUMO)
        76                         -0.2322959              -6.3211
        77                         -0.2320365              -6.3140
        78                         -0.2309605              -6.2848
        79                         -0.2297271              -6.2512
        80                         -0.2289781              -6.2308
        81                         -0.1876347              -5.1058
        82                         -0.1813323              -4.9343
        83                         -0.1055865              -2.8732
        84                         -0.1046736              -2.8483
        85                         -0.1038459              -2.8258
       ...                                ...                  ...
       142                          0.6984256              19.0051
      -------------------------------------------------------------
                  HL-Gap            0.0603605 Eh            1.6425 eV

     #   Z          covCN         q      C6AA      α(0)
     1   8 O        1.654    -0.466    22.182     6.358
     2   6 C        3.679     0.081    19.445     6.316
     3   6 C        2.968    -0.007    28.193     8.709
     4   6 C        2.922    -0.035    28.878     8.813
     5   6 C        2.918    -0.031    28.764     8.795
     6   6 C        2.918    -0.031    28.774     8.796
     7   6 C        2.924    -0.032    28.792     8.799
     8   6 C        2.977     0.011    27.772     8.644
     9   6 C        2.973    -0.015    28.376     8.738
    10   6 C        2.976     0.007    27.869     8.660
    11   6 C        2.920    -0.038    28.952     8.824
    12   6 C        2.913    -0.031    28.762     8.794
    13   6 C        2.913    -0.030    28.746     8.792
    14   6 C        2.920    -0.039    28.969     8.826
    15   6 C        2.976     0.002    27.968     8.675
    16   6 C        2.973    -0.015    28.376     8.738
    17   6 C        2.977     0.011    27.772     8.644
    18   6 C        2.924    -0.032    28.792     8.799
    19   6 C        2.918    -0.031    28.773     8.796
    20   6 C        2.918    -0.031    28.764     8.795
    21   6 C        2.922    -0.035    28.878     8.812
    22   6 C        2.968    -0.007    28.193     8.709
    23   6 C        3.679     0.081    19.445     6.316
    24   8 O        1.654    -0.466    22.181     6.358
    25   6 C        2.976     0.007    27.869     8.660
    26   6 C        2.920    -0.038    28.952     8.824
    27   6 C        2.913    -0.031    28.762     8.794
    28   6 C        2.913    -0.030    28.746     8.792
    29   6 C        2.920    -0.039    28.967     8.826
    30   6 C        2.976     0.002    27.968     8.675
    31   1 H        0.805     0.297     0.731     1.343
    32   1 H        0.923     0.026     2.640     2.541
    33   1 H        0.924     0.047     2.356     2.400
    34   1 H        0.926     0.037     2.482     2.464
    35   1 H        0.926     0.038     2.475     2.460
    36   1 H        0.926     0.038     2.469     2.457
    37   1 H        0.926     0.036     2.502     2.473
    38   1 H        0.926     0.033     2.551     2.498
    39   1 H        0.926     0.033     2.540     2.492
    40   1 H        0.926     0.034     2.535     2.490
    41   1 H        0.926     0.035     2.523     2.484
    42   1 H        0.926     0.036     2.502     2.474
    43   1 H        0.926     0.038     2.469     2.457
    44   1 H        0.926     0.038     2.474     2.460
    45   1 H        0.926     0.038     2.482     2.464
    46   1 H        0.924     0.047     2.356     2.400
    47   1 H        0.923     0.026     2.640     2.541
    48   1 H        0.805     0.297     0.731     1.343
    49   1 H        0.926     0.033     2.551     2.498
    50   1 H        0.926     0.033     2.539     2.492
    51   1 H        0.926     0.034     2.535     2.490
    52   1 H        0.926     0.035     2.522     2.484

molecular dipole:
                 x           y           z       tot (Debye)
 q only:       -0.001       0.005      -1.339
   full:       -0.001       0.007      -1.676       4.259

 projected vibrational frequencies (cm⁻¹)
eigval :       -0.00    -0.00    -0.00     0.00     0.00     0.00
eigval :       21.96    25.41    27.74    49.41    54.48    63.47
eigval :       69.15    75.14    80.28   116.09   124.30   132.23
eigval :      166.19   173.38   189.39   206.42   223.00   235.31
eigval :      237.77   278.72   302.91   326.10   338.97   345.02
eigval :      363.64   388.72   391.48   392.06   402.60   412.80
eigval :      433.48   448.84   467.20   477.22   485.18   506.03
eigval :      557.11   559.29   577.08   582.21   585.88   587.79
eigval :      609.05   613.31   658.89   665.93   700.41   711.87
eigval :      714.68   717.44   740.86   754.14   770.07   772.24
eigval :      806.72   809.09   831.16   832.51   877.88   878.72
eigval :      881.39   882.06   891.38   902.76   903.83   904.77
eigval :      908.20   913.23   914.57   925.69   925.89   939.69
eigval :      949.41   950.31  1040.52  1042.73  1085.90  1094.05
eigval :     1095.47  1096.12  1097.21  1105.17  1107.07  1130.18
eigval :     1142.68  1148.60  1176.27  1176.56  1177.68  1179.17
eigval :     1183.59  1187.26  1217.29  1218.36  1224.17  1252.09
eigval :     1254.66  1254.88  1269.68  1286.56  1286.62  1288.91
eigval :     1300.21  1305.09  1305.95  1335.84  1339.54  1342.76
eigval :     1366.67  1372.58  1385.64  1403.18  1423.29  1426.24
eigval :     1427.54  1459.23  1462.16  1467.05  1467.98  1472.98
eigval :     1481.64  1511.96  1526.18  1559.47  1563.12  1563.51
eigval :     1587.90  1587.99  2856.13  2856.62  2981.06  2981.35
eigval :     3071.14  3071.19  3073.35  3073.45  3077.60  3077.76
eigval :     3080.60  3080.67  3084.16  3084.29  3090.88  3091.10
eigval :     3091.79  3091.82  3096.36  3098.15  3483.42  3484.08

   temp. (K)  partition function   enthalpy   heat capacity  entropy
                                   cal/mol     cal/K/mol   cal/K/mol   J/K/mol
 298.15  VIB  0.350E+11            14486.614     92.485     89.382
         ROT  0.714E+07              888.752      2.981     34.342
         INT  0.250E+18            15375.367     95.465    123.724
         TR   0.747E+28             1481.254      4.968     43.759
         TOT                       16856.6205   100.4336   167.4826   700.7470

       T/K    H(0)-H(T)+PV         H(T)/Eh          T*S/Eh         G(T)/Eh
   ------------------------------------------------------------------------
    298.15    0.268627E-01    0.430057E+00    0.795764E-01    0.350480E+00
   ------------------------------------------------------------------------

         :::::::::::::::::::::::::::::::::::::::::::::::::::::
         ::                  THERMODYNAMIC                  ::
         :::::::::::::::::::::::::::::::::::::::::::::::::::::
         :: total free energy         -78.901451336391 Eh   ::
         ::.................................................::
         :: total energy              -79.251931673036 Eh   ::
         :: zero point energy           0.403193972793 Eh   ::
         :: G(RRHO) w/o ZPVE           -0.052713636148 Eh   ::
         :: G(RRHO) contrib.            0.350480336645 Eh   ::
         :::::::::::::::::::::::::::::::::::::::::::::::::::::

           -------------------------------------------------
          | TOTAL ENERGY              -79.251931673036 Eh   |
          | TOTAL ENTHALPY            -78.821874965609 Eh   |
          | TOTAL FREE ENERGY         -78.901451336391 Eh   |
          | GRADIENT NORM               0.000028557137 Eh/α |
          | HOMO-LUMO GAP               1.642492595382 eV   |
           -------------------------------------------------

 * finished run on 2025/07/18 at 18:03:11.914
