   * xtb version 6.7.1 (edcfbbe) compiled by 'albert@albert-system' on 2024-07-22

   ID    Z sym.   atoms
    1    8 O      1, 24
    2    6 C      2-23, 25-30
    3    1 H      31-52

          program call               : xtb data2507/toluene/E-o-DHMPA/E-o-DHMPA_toluene_S0_finalOpt.xtbopt.xyz --gfn 2 --uhf 2 --gbsa toluene --ohess vtight --parallel 40 --molden --ceasefiles --namespace data2507/toluene/E-o-DHMPA/E-o-DHMPA_toluene_T1_preOpt
      * Solvation model:               GBSA
        Solvent                        toluene
        Solvent mass                       9.2140E+01 g/mol
          :  Hamiltonian                  GFN2-xTB          :
 * total energy  :   -79.2440995 Eh     change       -0.7034373E-09 Eh
 * total energy  :   -79.2503693 Eh     change       -0.6269817E-02 Eh
 * total energy  :   -79.2516969 Eh     change       -0.1327643E-02 Eh
 * total energy  :   -79.2517719 Eh     change       -0.7495398E-04 Eh
 * total energy  :   -79.2517984 Eh     change       -0.2647604E-04 Eh
 * total energy  :   -79.2518023 Eh     change       -0.3907312E-05 Eh
 * total energy  :   -79.2518048 Eh     change       -0.2536557E-05 Eh
 * total energy  :   -79.2518109 Eh     change       -0.6080217E-05 Eh
 * total energy  :   -79.2518183 Eh     change       -0.7417635E-05 Eh
 * total energy  :   -79.2518228 Eh     change       -0.4518671E-05 Eh
 * total energy  :   -79.2524709 Eh     change       -0.3402549E-06 Eh
 * total energy  :   -79.2524712 Eh     change       -0.3299337E-06 Eh
 * total energy  :   -79.2524716 Eh     change       -0.3379852E-06 Eh
 * total energy  :   -79.2524720 Eh     change       -0.3778023E-06 Eh
 * total energy  :   -79.2524724 Eh     change       -0.4471407E-06 Eh
 * total energy  :   -79.2524729 Eh     change       -0.5392158E-06 Eh
 * total energy  :   -79.2524736 Eh     change       -0.6769716E-06 Eh
 * total energy  :   -79.2524744 Eh     change       -0.7982747E-06 Eh
 * total energy  :   -79.2524744 Eh     change       -0.2571895E-08 Eh
   *** GEOMETRY OPTIMIZATION CONVERGED AFTER 94 ITERATIONS ***

 final structure:
================
52
 xtb: 6.7.1 (edcfbbe)
O           -2.80019578925817       -1.91408709754982        2.33800038293866
C           -2.84926397702012       -0.52108851871548        2.09388584056807
C           -3.58647993727154       -0.17041023990853        0.82190059906255
C           -4.97416435818245       -0.13682915667572        0.81662963135037
C           -5.67331773189115        0.18999291844093       -0.33185192147378
C           -4.98199815307465        0.50271808425411       -1.49116741348759
C           -3.60035554159119        0.47311423608268       -1.49973571950283
C           -2.88724254309062        0.12300715796395       -0.35410705384968
C           -1.41546672061760        0.06083757076197       -0.40211626308906
C           -0.65486981400637        1.26342891527126       -0.45147943158756
C           -1.26251025321935        2.52111190887068       -0.45116439024092
C           -0.50496023328050        3.69220570633325       -0.54265745058837
C            0.86592832075464        3.61927653663215       -0.64263559882137
C            1.50232769568235        2.37349229661051       -0.61517759911399
C            0.77053679174819        1.18872005502788       -0.48824602840799
C            1.41289212597599       -0.08010262748750       -0.40237097086903
C            2.88459890329667       -0.14021898996393       -0.35183593011108
C            3.59773335838143       -0.54726235656560       -1.47846728399426
C            4.97932656817087       -0.57820166581509       -1.46793218749297
C            5.67072669927046       -0.21022600757881       -0.32500395320798
C            4.97158213604867        0.17386605442907        0.80561277594578
C            3.58397172359374        0.21002374124552        0.80846124645228
C            2.84720464634709        0.62546200698488        2.06104950258899
O            2.80997565100676        2.02876399618013        2.23908689046216
C            0.65225017642660       -1.28369731314188       -0.39356739187075
C            1.25989066603239       -2.54007935050381       -0.33629123362843
C            0.50231985418846       -3.71412690885896       -0.37181877606015
C           -0.86888554735796       -3.64586737271571       -0.47098574800396
C           -1.50525533251309       -2.40013119626213       -0.49918515425799
C           -0.77324040567764       -1.21068829562926       -0.42981563081063
H           -2.32433544450803       -2.33207315878402        1.60513904413958
H           -1.83170481020943       -0.10553578786563        2.06255493850797
H           -3.37199407161305       -0.09920894742193        2.95701260588072
H           -5.50528657526883       -0.37011712389519        1.72819470599873
H           -6.75293143483143        0.20892035960163       -0.32033368402393
H           -5.51941213689886        0.76702945369451       -2.39011111271068
H           -3.05555138389251        0.70602317032427       -2.40353159386647
H           -2.33759907454668        2.58769763700213       -0.38199573369503
H           -1.00513982495646        4.64902433863892       -0.54387315221668
H            1.46004776186195        4.51618203233719       -0.73550683811862
H            2.57673924410971        2.32405010195957       -0.72261544366948
H            3.05296890144698       -0.82359220878232       -2.36994006179689
H            5.51668362166449       -0.88676334453905       -2.35270999508495
H            6.75028270759874       -0.23033528281090       -0.31203620050636
H            5.50262046457546        0.45083045663936        1.70492533719598
H            3.36455450477961        0.24000788295919        2.94425336195903
H            1.82608431906800        0.21774970956105        2.04679788643118
H            2.34001926452116        2.41560521045494        1.48565412771622
H            2.33515947073157       -2.60338751278563       -0.26730404143448
H            1.00262699629290       -4.66998181384401       -0.33034434716950
H           -1.46326058822375       -4.54604254063984       -0.52034796261312
H           -2.58002667711647       -2.35587029081398       -0.60469120642145

          :  Hamiltonian                  GFN2-xTB          :
         :: gradient norm              0.000035679287 Eh/a0 ::
         :: HOMO-LUMO gap              1.628243363156 eV    ::
         :: SCC energy               -80.615788884269 Eh    ::
         :: -> dispersion             -0.071391557748 Eh    ::
         :: -> Gsolv                  -0.031170436821 Eh    ::
         :: repulsion energy           1.363314468932 Eh    ::

    * Orbital Energies and Occupations

         #    Occupation            Energy/Eh            Energy/eV
      -------------------------------------------------------------
         1        2.0000           -0.6922214             -18.8363
       ...           ...                  ...                  ...
        62        2.0000           -0.4259674             -11.5912
        63        2.0000           -0.4250563             -11.5664
        64        2.0000           -0.4153037             -11.3010
        65        2.0000           -0.4109528             -11.1826
        66        2.0000           -0.4103198             -11.1654
        67        2.0000           -0.4089279             -11.1275
        68        2.0000           -0.4083971             -11.1131
        69        2.0000           -0.4076689             -11.0932
        70        2.0000           -0.4049818             -11.0201
        71        2.0000           -0.4041043             -10.9962
        72        2.0000           -0.4000235             -10.8852
        73        1.0000           -0.3579814              -9.7412
        74        1.0000           -0.2939657              -7.9992 (HOMO)
        75                         -0.2341289              -6.3710 (LUMO)
        76                         -0.2332382              -6.3467
        77                         -0.2323067              -6.3214
        78                         -0.2310541              -6.2873
        79                         -0.2293586              -6.2412
        80                         -0.2291025              -6.2342
        81                         -0.1874941              -5.1020
        82                         -0.1815457              -4.9401
        83                         -0.1063098              -2.8928
        84                         -0.1052739              -2.8646
        85                         -0.1041500              -2.8341
       ...                                ...                  ...
       142                          0.7001273              19.0514
      -------------------------------------------------------------
                  HL-Gap            0.0598368 Eh            1.6282 eV

     #   Z          covCN         q      C6AA      α(0)
     1   8 O        1.654    -0.465    22.143     6.352
     2   6 C        3.679     0.082    19.416     6.312
     3   6 C        2.970    -0.009    28.237     8.716
     4   6 C        2.923    -0.032    28.801     8.801
     5   6 C        2.918    -0.031    28.782     8.798
     6   6 C        2.918    -0.031    28.766     8.795
     7   6 C        2.924    -0.032    28.799     8.801
     8   6 C        2.977     0.009    27.808     8.650
     9   6 C        2.974    -0.010    28.255     8.719
    10   6 C        2.976     0.008    27.839     8.655
    11   6 C        2.920    -0.038    28.944     8.822
    12   6 C        2.913    -0.030    28.752     8.793
    13   6 C        2.912    -0.034    28.842     8.806
    14   6 C        2.919    -0.047    29.161     8.855
    15   6 C        2.977     0.008    27.828     8.653
    16   6 C        2.974    -0.010    28.255     8.719
    17   6 C        2.977     0.009    27.809     8.650
    18   6 C        2.924    -0.032    28.800     8.801
    19   6 C        2.918    -0.031    28.766     8.795
    20   6 C        2.918    -0.031    28.782     8.798
    21   6 C        2.923    -0.032    28.800     8.801
    22   6 C        2.970    -0.009    28.237     8.716
    23   6 C        3.679     0.082    19.416     6.312
    24   8 O        1.654    -0.464    22.141     6.352
    25   6 C        2.976     0.008    27.839     8.655
    26   6 C        2.920    -0.038    28.944     8.822
    27   6 C        2.913    -0.030    28.752     8.793
    28   6 C        2.912    -0.034    28.842     8.806
    29   6 C        2.919    -0.047    29.162     8.856
    30   6 C        2.977     0.008    27.830     8.653
    31   1 H        0.804     0.298     0.728     1.340
    32   1 H        0.923     0.019     2.745     2.591
    33   1 H        0.924     0.047     2.358     2.401
    34   1 H        0.926     0.040     2.445     2.445
    35   1 H        0.926     0.038     2.479     2.462
    36   1 H        0.926     0.039     2.467     2.456
    37   1 H        0.926     0.036     2.499     2.472
    38   1 H        0.926     0.034     2.535     2.490
    39   1 H        0.926     0.034     2.535     2.490
    40   1 H        0.926     0.033     2.544     2.494
    41   1 H        0.926     0.033     2.547     2.496
    42   1 H        0.926     0.036     2.499     2.472
    43   1 H        0.926     0.039     2.467     2.456
    44   1 H        0.926     0.038     2.479     2.462
    45   1 H        0.926     0.040     2.444     2.445
    46   1 H        0.924     0.047     2.357     2.401
    47   1 H        0.923     0.019     2.745     2.591
    48   1 H        0.804     0.298     0.728     1.340
    49   1 H        0.926     0.034     2.534     2.490
    50   1 H        0.926     0.034     2.535     2.490
    51   1 H        0.926     0.033     2.543     2.494
    52   1 H        0.926     0.033     2.546     2.495

molecular dipole:
                 x           y           z       tot (Debye)
 q only:        0.000      -0.026      -1.152
   full:        0.000      -0.032      -1.454       3.696

 projected vibrational frequencies (cm⁻¹)
eigval :       -0.00    -0.00     0.00     0.00     0.00     0.00
eigval :        6.67    18.14    21.70    46.45    53.47    64.12
eigval :       66.11    75.52    85.43   111.90   125.23   136.22
eigval :      161.62   175.94   187.75   209.32   219.84   222.01
eigval :      227.02   302.48   316.62   322.83   325.45   375.85
eigval :      376.41   391.37   393.79   394.94   412.19   416.68
eigval :      443.34   448.53   470.02   472.26   479.80   500.55
eigval :      568.27   569.82   578.87   582.74   582.82   596.68
eigval :      602.94   613.83   659.72   667.07   698.77   714.25
eigval :      717.08   723.45   743.29   756.01   774.95   776.92
eigval :      813.68   813.96   834.26   836.69   881.85   883.03
eigval :      884.80   887.01   892.90   901.90   903.18   903.89
eigval :      907.73   918.34   919.87   927.03   927.45   937.86
eigval :      940.08   942.63  1036.24  1038.83  1084.70  1088.75
eigval :     1089.64  1093.18  1093.23  1102.27  1104.91  1131.47
eigval :     1147.48  1148.23  1175.61  1175.91  1178.49  1178.65
eigval :     1182.09  1186.69  1216.41  1219.98  1222.44  1246.49
eigval :     1252.20  1253.47  1270.06  1288.30  1290.78  1291.23
eigval :     1304.41  1314.13  1315.26  1332.16  1333.50  1341.65
eigval :     1365.32  1372.75  1386.06  1402.53  1422.60  1427.51
eigval :     1428.70  1460.21  1461.74  1463.73  1466.83  1470.25
eigval :     1482.02  1509.71  1525.35  1559.07  1565.17  1565.70
eigval :     1588.82  1588.89  2873.30  2874.78  2964.93  2965.16
eigval :     3071.53  3071.57  3071.99  3072.25  3075.70  3075.84
eigval :     3078.74  3078.82  3081.42  3081.61  3087.91  3088.16
eigval :     3091.40  3091.56  3096.33  3097.70  3437.85  3438.83

   temp. (K)  partition function   enthalpy   heat capacity  entropy
                                   cal/mol     cal/K/mol   cal/K/mol   J/K/mol
 298.15  VIB  0.194E+12            14476.624     92.030     90.601
         ROT  0.745E+07              888.752      2.981     34.426
         INT  0.145E+19            15365.377     95.011    125.027
         TR   0.747E+28             1481.254      4.968     43.759
         TOT                       16846.6305    99.9791   168.7855   706.1984

       T/K    H(0)-H(T)+PV         H(T)/Eh          T*S/Eh         G(T)/Eh
   ------------------------------------------------------------------------
    298.15    0.268468E-01    0.429974E+00    0.801954E-01    0.349778E+00
   ------------------------------------------------------------------------

         :::::::::::::::::::::::::::::::::::::::::::::::::::::
         ::                  THERMODYNAMIC                  ::
         :::::::::::::::::::::::::::::::::::::::::::::::::::::
         :: total free energy         -78.902695984582 Eh   ::
         ::.................................................::
         :: total energy              -79.252474413938 Eh   ::
         :: zero point energy           0.403127033010 Eh   ::
         :: G(RRHO) w/o ZPVE           -0.053348603653 Eh   ::
         :: G(RRHO) contrib.            0.349778429357 Eh   ::
         :::::::::::::::::::::::::::::::::::::::::::::::::::::

           -------------------------------------------------
          | TOTAL ENERGY              -79.252474413938 Eh   |
          | TOTAL ENTHALPY            -78.822500566379 Eh   |
          | TOTAL FREE ENERGY         -78.902695984582 Eh   |
          | GRADIENT NORM               0.000035701609 Eh/α |
          | HOMO-LUMO GAP               1.628242452874 eV   |
           -------------------------------------------------

 * finished run on 2025/07/18 at 18:01:50.412
