   * xtb version 6.7.1 (edcfbbe) compiled by 'albert@albert-system' on 2024-07-22

   ID    Z sym.   atoms
    1    8 O      1, 24
    2    6 C      2-23, 25-30
    3    1 H      31-52

          program call               : xtb data2507/toluene/E-o-DHMPA/E-o-DHMPA_toluene_S0_crest.xyz --gfn 2 --gbsa toluene --ohess vtight --parallel 40 --molden --ceasefiles --namespace data2507/toluene/E-o-DHMPA/E-o-DHMPA_toluene_S0_finalOpt
      * Solvation model:               GBSA
        Solvent                        toluene
        Solvent mass                       9.2140E+01 g/mol
          :  Hamiltonian                  GFN2-xTB          :
 * total energy  :   -79.3222350 Eh     change       -0.2532232E-09 Eh
 * total energy  :   -79.3228614 Eh     change       -0.6263886E-03 Eh
 * total energy  :   -79.3231465 Eh     change       -0.2851057E-03 Eh
 * total energy  :   -79.3232326 Eh     change       -0.8603625E-04 Eh
 * total energy  :   -79.3233437 Eh     change       -0.1111262E-03 Eh
 * total energy  :   -79.3234305 Eh     change       -0.8681149E-04 Eh
 * total energy  :   -79.3235105 Eh     change       -0.7998255E-04 Eh
 * total energy  :   -79.3235847 Eh     change       -0.7421169E-04 Eh
 * total energy  :   -79.3236408 Eh     change       -0.5605584E-04 Eh
 * total energy  :   -79.3237073 Eh     change       -0.6650156E-04 Eh
 * total energy  :   -79.3243006 Eh     change       -0.7137256E-06 Eh
 * total energy  :   -79.3243011 Eh     change       -0.5410150E-06 Eh
 * total energy  :   -79.3243015 Eh     change       -0.3777994E-06 Eh
 * total energy  :   -79.3243018 Eh     change       -0.3052835E-06 Eh
 * total energy  :   -79.3243021 Eh     change       -0.3218774E-06 Eh
 * total energy  :   -79.3243026 Eh     change       -0.4629119E-06 Eh
 * total energy  :   -79.3243031 Eh     change       -0.5467920E-06 Eh
 * total energy  :   -79.3243035 Eh     change       -0.3336011E-06 Eh
 * total energy  :   -79.3243035 Eh     change       -0.2436451E-08 Eh
   *** GEOMETRY OPTIMIZATION CONVERGED AFTER 122 ITERATIONS ***

 final structure:
================
52
 xtb: 6.7.1 (edcfbbe)
O           -2.48876326543266       -1.26219441247139        2.51517008840001
C           -2.83970838688806        0.05235991516811        2.11734844501721
C           -3.58930480433955        0.07815478122588        0.80678946925530
C           -4.97754466598665        0.09501091260575        0.79154998641484
C           -5.67464460865986        0.08627543838885       -0.40406960298912
C           -4.98476930559778        0.05857640263869       -1.60453259107671
C           -3.60177516700336        0.03709292721451       -1.60319434823187
C           -2.89490216939284        0.04355909677218       -0.40560065177473
C           -1.41126068385392        0.01748081335170       -0.43086272867254
C           -0.69455800264704        1.22040525221474       -0.47318709907344
C           -1.35094508938535        2.47937280924762       -0.49960080366341
C           -0.64397674999302        3.64173416064909       -0.54036510300360
C            0.76598302552103        3.61787444709523       -0.56051623779630
C            1.43427745576270        2.43216822686016       -0.53072382784448
C            0.73508073530150        1.19492119097535       -0.48058627436133
C            1.41101171239232       -0.03172067321841       -0.43102881917619
C            2.89477766179273       -0.05751843694204       -0.40627788412349
C            3.60048174770012       -0.09948327110245       -1.60381154592726
C            4.98344514079637       -0.12389044583483       -1.60553175057280
C            5.67437600090634       -0.10531238772776       -0.40555406509018
C            4.97844438369249       -0.06478616581413        0.79015473050737
C            3.59031280542321       -0.04506633948940        0.80602178349087
C            2.84083169079469        0.03321216008594        2.11449311094199
O            2.45926704229371        1.35832949536921        2.44263151230641
C            0.69416144605986       -1.23511588478623       -0.40776866849778
C            1.35049689398891       -2.49379129989092       -0.36795298073936
C            0.64340538704660       -3.65658225194647       -0.34604386306065
C           -0.76656048694606       -3.63368942691164       -0.36712189731599
C           -1.43476865109450       -2.44795253625841       -0.40005844175016
C           -0.73540179104686       -1.20996817523686       -0.41532044066522
H           -1.95520606571636       -1.65901616692906        1.81319976405915
H           -1.93642574568854        0.67647174707278        2.05046520705742
H           -3.47017759169379        0.43643038483524        2.92298226603339
H           -5.51305968843619        0.11473347012581        1.72974852112969
H           -6.75455442384335        0.10116731172476       -0.39840332102673
H           -5.52262418253502        0.05286246167138       -2.54120836424793
H           -3.05501464276904        0.01440487564772       -2.53518746078002
H           -2.43090289608867        2.49355654197751       -0.48785021887432
H           -1.15676355726432        4.59205035673081       -0.56094375250616
H            1.31109935446784        4.54942571480879       -0.59980828324987
H            2.51468503902744        2.41337582213095       -0.55463186285795
H            3.05283706920665       -0.11284870734829       -2.53545834452370
H            5.52040615769689       -0.15639790996192       -2.54216845131348
H            6.75425355733380       -0.12227756153340       -0.40020633749051
H            5.51522376634241       -0.04819697588080        1.72770357377559
H            3.47997458364620       -0.29309615373875        2.93845233412288
H            1.95222896400725       -0.61448737433929        2.08201292124680
H            1.92054357990087        1.70621450393737        1.71901646422075
H            2.43049111890498       -2.50755431994746       -0.35619586230627
H            1.15608172414436       -4.60671385631580       -0.31616895057161
H           -1.31172606165654       -4.56600361930844       -0.35708351366224
H           -2.51523684329443       -2.43034149549039       -0.42651159465338

          :  Hamiltonian                  GFN2-xTB          :
         :: gradient norm              0.000032186388 Eh/a0 ::
         :: HOMO-LUMO gap              2.176836275916 eV    ::
         :: SCC energy               -80.705686100687 Eh    ::
         :: -> dispersion             -0.071626320055 Eh    ::
         :: -> Gsolv                  -0.031490960294 Eh    ::
         :: repulsion energy           1.381382644235 Eh    ::

    * Orbital Energies and Occupations

         #    Occupation            Energy/Eh            Energy/eV
      -------------------------------------------------------------
         1        2.0000           -0.6919771             -18.8297
       ...           ...                  ...                  ...
        61        2.0000           -0.4321119             -11.7584
        62        2.0000           -0.4262629             -11.5992
        63        2.0000           -0.4258444             -11.5878
        64        2.0000           -0.4143989             -11.2764
        65        2.0000           -0.4129249             -11.2363
        66        2.0000           -0.4101091             -11.1596
        67        2.0000           -0.4086463             -11.1198
        68        2.0000           -0.4083146             -11.1108
        69        2.0000           -0.4060551             -11.0493
        70        2.0000           -0.4052212             -11.0266
        71        2.0000           -0.4041856             -10.9984
        72        2.0000           -0.4000482             -10.8859
        73        2.0000           -0.3662526              -9.9662 (HOMO)
        74                         -0.2862554              -7.7894 (LUMO)
        75                         -0.2387394              -6.4964
        76                         -0.2319399              -6.3114
        77                         -0.2316472              -6.3034
        78                         -0.2292382              -6.2379
        79                         -0.2287777              -6.2254
        80                         -0.2275279              -6.1913
        81                         -0.1854427              -5.0462
        82                         -0.1798396              -4.8937
        83                         -0.1063500              -2.8939
        84                         -0.1041478              -2.8340
       ...                                ...                  ...
       142                          0.7054729              19.1969
      -------------------------------------------------------------
                  HL-Gap            0.0799973 Eh            2.1768 eV

     #   Z          covCN         q      C6AA      α(0)
     1   8 O        1.654    -0.466    22.183     6.358
     2   6 C        3.679     0.082    19.427     6.313
     3   6 C        2.969    -0.009    28.231     8.715
     4   6 C        2.923    -0.034    28.835     8.806
     5   6 C        2.918    -0.031    28.784     8.798
     6   6 C        2.918    -0.031    28.770     8.796
     7   6 C        2.923    -0.033    28.820     8.804
     8   6 C        2.980     0.009    27.814     8.651
     9   6 C        2.977    -0.006    28.162     8.705
    10   6 C        2.984     0.005    27.908     8.666
    11   6 C        2.917    -0.034    28.856     8.809
    12   6 C        2.914    -0.029    28.735     8.790
    13   6 C        2.914    -0.030    28.737     8.790
    14   6 C        2.916    -0.041    29.026     8.835
    15   6 C        2.983     0.002    27.979     8.677
    16   6 C        2.977    -0.006    28.166     8.705
    17   6 C        2.980     0.009    27.813     8.651
    18   6 C        2.923    -0.033    28.819     8.804
    19   6 C        2.918    -0.031    28.770     8.796
    20   6 C        2.918    -0.031    28.783     8.798
    21   6 C        2.923    -0.034    28.839     8.807
    22   6 C        2.969    -0.009    28.230     8.715
    23   6 C        3.679     0.082    19.426     6.313
    24   8 O        1.654    -0.467    22.189     6.359
    25   6 C        2.984     0.005    27.906     8.665
    26   6 C        2.917    -0.034    28.856     8.809
    27   6 C        2.914    -0.029    28.735     8.790
    28   6 C        2.914    -0.030    28.740     8.791
    29   6 C        2.916    -0.041    29.030     8.835
    30   6 C        2.983     0.002    27.971     8.675
    31   1 H        0.805     0.297     0.731     1.343
    32   1 H        0.923     0.021     2.720     2.579
    33   1 H        0.924     0.046     2.374     2.410
    34   1 H        0.926     0.038     2.478     2.461
    35   1 H        0.926     0.037     2.488     2.466
    36   1 H        0.926     0.037     2.484     2.465
    37   1 H        0.926     0.035     2.520     2.482
    38   1 H        0.926     0.034     2.535     2.490
    39   1 H        0.926     0.034     2.527     2.486
    40   1 H        0.926     0.034     2.524     2.484
    41   1 H        0.926     0.034     2.524     2.484
    42   1 H        0.926     0.035     2.520     2.482
    43   1 H        0.926     0.037     2.484     2.465
    44   1 H        0.926     0.037     2.487     2.466
    45   1 H        0.926     0.038     2.479     2.462
    46   1 H        0.924     0.046     2.375     2.410
    47   1 H        0.923     0.021     2.717     2.578
    48   1 H        0.805     0.297     0.731     1.343
    49   1 H        0.926     0.034     2.535     2.490
    50   1 H        0.926     0.034     2.527     2.486
    51   1 H        0.926     0.034     2.524     2.484
    52   1 H        0.926     0.034     2.525     2.485

molecular dipole:
                 x           y           z       tot (Debye)
 q only:        0.006      -0.034      -1.282
   full:        0.008      -0.044      -1.593       4.051

 projected vibrational frequencies (cm⁻¹)
eigval :       -0.00    -0.00     0.00     0.00     0.00     0.00
eigval :       21.24    23.54    26.86    46.68    56.22    65.10
eigval :       66.45    77.60    84.78   108.65   126.20   130.15
eigval :      166.25   177.60   190.50   205.12   214.67   225.12
eigval :      231.24   308.73   316.04   321.17   341.83   368.25
eigval :      387.52   394.75   395.44   399.07   412.41   447.64
eigval :      452.38   456.47   458.08   478.85   488.28   507.91
eigval :      569.61   571.21   585.58   591.13   598.17   599.26
eigval :      614.10   632.60   667.44   691.77   706.86   720.30
eigval :      724.44   739.42   773.66   776.75   776.81   780.04
eigval :      813.61   815.02   877.67   879.56   885.01   885.64
eigval :      897.26   905.85   911.01   917.53   919.46   920.12
eigval :      921.20   929.41   930.20   930.80   931.12   932.76
eigval :      945.81   948.74  1033.49  1035.13  1076.36  1077.16
eigval :     1089.50  1094.98  1095.11  1107.10  1132.60  1140.55
eigval :     1149.65  1159.45  1177.25  1179.18  1179.47  1180.43
eigval :     1196.55  1199.40  1224.21  1227.48  1236.35  1255.45
eigval :     1256.87  1257.16  1261.88  1289.32  1290.25  1312.59
eigval :     1312.82  1323.40  1337.26  1340.46  1346.71  1366.68
eigval :     1382.96  1416.00  1426.83  1431.03  1432.27  1443.82
eigval :     1462.92  1468.91  1471.26  1482.54  1491.48  1523.70
eigval :     1530.56  1541.57  1574.71  1575.22  1596.58  1596.61
eigval :     1605.69  1620.28  2868.70  2871.81  2978.24  2979.53
eigval :     3070.91  3070.98  3072.55  3073.26  3074.07  3074.28
eigval :     3077.54  3078.08  3080.62  3080.71  3084.93  3085.79
eigval :     3090.86  3090.93  3092.71  3094.17  3481.84  3484.69

   temp. (K)  partition function   enthalpy   heat capacity  entropy
                                   cal/mol     cal/K/mol   cal/K/mol   J/K/mol
 298.15  VIB  0.333E+11            14284.119     91.030     88.386
         ROT  0.721E+07              888.752      2.981     34.361
         INT  0.240E+18            15172.872     94.010    122.747
         TR   0.747E+28             1481.254      4.968     43.759
         TOT                       16654.1256    98.9786   166.5056   696.6594

       T/K    H(0)-H(T)+PV         H(T)/Eh          T*S/Eh         G(T)/Eh
   ------------------------------------------------------------------------
    298.15    0.265400E-01    0.432897E+00    0.791122E-01    0.353785E+00
   ------------------------------------------------------------------------

         :::::::::::::::::::::::::::::::::::::::::::::::::::::
         ::                  THERMODYNAMIC                  ::
         :::::::::::::::::::::::::::::::::::::::::::::::::::::
         :: total free energy         -78.970518659083 Eh   ::
         ::.................................................::
         :: total energy              -79.324303454668 Eh   ::
         :: zero point energy           0.406356939911 Eh   ::
         :: G(RRHO) w/o ZPVE           -0.052572144326 Eh   ::
         :: G(RRHO) contrib.            0.353784795585 Eh   ::
         :::::::::::::::::::::::::::::::::::::::::::::::::::::

           -------------------------------------------------
          | TOTAL ENERGY              -79.324303454668 Eh   |
          | TOTAL ENTHALPY            -78.891406476244 Eh   |
          | TOTAL FREE ENERGY         -78.970518659083 Eh   |
          | GRADIENT NORM               0.000032195730 Eh/α |
          | HOMO-LUMO GAP               2.176836296272 eV   |
           -------------------------------------------------

 * finished run on 2025/07/18 at 18:01:45.757
