   * xtb version 6.7.1 (edcfbbe) compiled by 'albert@albert-system' on 2024-07-22

   ID    Z sym.   atoms
    1    6 C      1-8, 10-19, 21-30, 32-44, 46-75
    2    7 N      9, 31, 45
    3    5 B      20
    4    1 H      76-145

          program call               : xtb data2507/toluene/tDPAC-BN/tDPAC-BN_toluene_T1_crest.xyz --gfn 2 --uhf 2 --gbsa toluene --ohess vtight --parallel 40 --molden --ceasefiles --namespace data2507/toluene/tDPAC-BN/tDPAC-BN_toluene_T1_finalOpt
      * Solvation model:               GBSA
        Solvent                        toluene
        Solvent mass                       9.2140E+01 g/mol
          :  Hamiltonian                  GFN2-xTB          :
 * total energy  :  -197.8655507 Eh     change       -0.5584042E-08 Eh
 * total energy  :  -197.8657161 Eh     change       -0.1654574E-03 Eh
 * total energy  :  -197.8658337 Eh     change       -0.1175888E-03 Eh
 * total energy  :  -197.8658890 Eh     change       -0.5526365E-04 Eh
 * total energy  :  -197.8659819 Eh     change       -0.9292743E-04 Eh
 * total energy  :  -197.8660676 Eh     change       -0.8570873E-04 Eh
 * total energy  :  -197.8661611 Eh     change       -0.9348105E-04 Eh
 * total energy  :  -197.8662670 Eh     change       -0.1059332E-03 Eh
 * total energy  :  -197.8663168 Eh     change       -0.4971502E-04 Eh
 * total energy  :  -197.8663984 Eh     change       -0.8167072E-04 Eh
 * total energy  :  -197.8681858 Eh     change       -0.2643092E-06 Eh
 * total energy  :  -197.8681861 Eh     change       -0.2583166E-06 Eh
 * total energy  :  -197.8681863 Eh     change       -0.2097021E-06 Eh
 * total energy  :  -197.8681865 Eh     change       -0.2054847E-06 Eh
 * total energy  :  -197.8681867 Eh     change       -0.1932937E-06 Eh
 * total energy  :  -197.8681868 Eh     change       -0.1388838E-06 Eh
 * total energy  :  -197.8681867 Eh     change        0.1231795E-06 Eh
 * total energy  :  -197.8681870 Eh     change       -0.3446086E-06 Eh
 * total energy  :  -197.8681870 Eh     change       -0.7577370E-08 Eh
   *** GEOMETRY OPTIMIZATION CONVERGED AFTER 90 ITERATIONS ***

 final structure:
================
145
 xtb: 6.7.1 (edcfbbe)
C           -2.66107079875368       -7.15297620045508       -1.97421128473464
C           -3.13988128609951       -6.14072654130503       -0.92184593689917
C           -4.34283809536710       -5.35645359256109       -1.46744012383701
C           -3.59849753173637       -6.91920693590991        0.31521913928522
C           -2.00161617914688       -5.17767937723346       -0.62200959914905
C           -1.48995947572048       -4.37961781792961       -1.64582566227092
C           -0.44462468781293       -3.50663112952655       -1.42922338269168
C            0.13110151954789       -3.40099705781559       -0.16681043803474
N            1.20232013047301       -2.49095135313823        0.03699045268385
C            2.47989911613239       -2.97613272311189        0.24812478087911
C            2.68198542808840       -4.35523353517891        0.34493190848505
C            3.92305344837178       -4.87244667572920        0.66680172427417
C            5.00711717783570       -4.02815294328875        0.92639628645086
C            6.33237374705507       -4.63458351854565        1.35776301782805
C            7.41217441193962       -3.58132642661333        1.62089159314458
C            6.84025489035855       -5.57318398758900        0.25232711605161
C            6.11686743252838       -5.43054084706239        2.65446671915282
C            4.81285027632168       -2.66684947364433        0.75067242109978
C            3.59455191328567       -2.09303619412108        0.35039602936703
B            3.37950329538578       -0.60444561241593        0.02446037458604
C            4.38939491947658        0.52388933057496       -0.25091759442814
C            5.76122913558290        0.34404285217190       -0.49281844420699
C            6.66057535587379        1.38498885814982       -0.66981605601716
C            8.14513306496937        1.17246150553126       -0.91839754361345
C            8.53569351727879       -0.30728446342728       -0.96744166004141
C            8.94430286713732        1.83800293012363        0.21276582584671
C            8.52173461555819        1.81117758427808       -2.26417328703481
C            6.16157926984410        2.68844573417197       -0.59824297390054
C            4.80931466770422        2.92202022975614       -0.42665325214722
C            3.90728647803390        1.86322082759521       -0.29832933400645
N            2.55567003854106        2.14149098547387       -0.21257017410868
C            2.13247968464386        3.50118361997714       -0.19002156034303
C            2.04542029829458        4.24594483133987       -1.35766057579849
C            1.59973827888903        5.55571379552488       -1.31753112041562
C            1.22841185459878        6.15836310979491       -0.12039591300856
C            0.71812118239591        7.58832731225628       -0.03548284363429
C           -0.70264604258446        7.57273654500827        0.54902563638949
C            1.64890628583611        8.40092570702546        0.87700810331833
C            0.66625940482368        8.27927930548095       -1.40144016427810
C            1.32944477866905        5.39677877011880        1.04288312434480
C            1.77194551398578        4.08942514549474        1.01603713378929
C            1.56058922499224        1.17505376560579       -0.16360412564871
C            0.22375396194099        1.56181365680125       -0.24875789440810
C           -0.78465652163816        0.60561115708119       -0.11211878640805
N           -2.16087681722953        0.93985574994390       -0.14648715541158
C           -2.75569788491122        1.73973103641608        0.81715757881425
C           -1.99376996750801        2.52699897341333        1.68318678740729
C           -2.60236482909128        3.39464298567397        2.56702189516314
C           -3.98206534301068        3.49991089632928        2.60170526492524
C           -4.74553011419617        2.67395348161278        1.79441028009179
C           -4.15498156755663        1.77576818227470        0.91995718630838
C           -4.97031927765792        0.71138121782193        0.20266263891930
C           -4.90425164218650       -0.50011974059399        1.13727620111526
C           -5.42546343742297       -0.39886898543876        2.42419541210881
C           -5.33113819108649       -1.45174964703378        3.31456964722875
C           -4.69505330752856       -2.62468528805632        2.94148516614106
C           -4.17035701421503       -2.73437530573930        1.66705956983615
C           -4.28011881966641       -1.68439423682317        0.77013062229809
C           -6.39218512164434        1.17362138955420       -0.05872682775238
C           -7.50171997686265        0.39051716607714        0.22902530684967
C           -8.77801167240376        0.84201531380324       -0.06598932594353
C           -8.96294610871533        2.07778417795941       -0.65995708366291
C           -7.86033697912676        2.85815401246035       -0.96880681281469
C           -6.58746417273685        2.40706738755223       -0.67469451266239
C           -4.30769012731688        0.38917316681919       -1.12057471072504
C           -5.03373059006060       -0.06666468543599       -2.20936105797881
C           -4.40476070788737       -0.43421998553371       -3.38691747793815
C           -3.02582769427366       -0.34151892503028       -3.48267257784376
C           -2.28613812784895        0.11538788466450       -2.41146143042456
C           -2.91332553021456        0.47650152121828       -1.21624070213984
C           -0.44656332557421       -0.74422655765173        0.01529364615926
C            0.88771019968479       -1.13719816530075       -0.00557700530456
C            1.92929983721346       -0.18406424250669       -0.05033113516612
C           -0.37349766245652       -4.17927429575361        0.86755190655876
C           -1.42035095400297       -5.05440095133770        0.63636737647079
H           -2.38579741365067       -6.65887249213347       -2.90194450915299
H           -3.45103494212867       -7.86905683266026       -2.19050650144757
H           -1.79291337220538       -7.69724673407674       -1.60701400267983
H           -5.15999631044763       -6.03877538568397       -1.69209120600599
H           -4.69136401656959       -4.63414294523568       -0.73217698259079
H           -4.09017095331792       -4.81887860743837       -2.37725795050030
H           -2.79117533232448       -7.52624954354990        0.71898441684675
H           -4.41311856236018       -7.58613629632340        0.04013993796247
H           -3.96441002374145       -6.24853078697822        1.08953068940452
H           -1.90864061506167       -4.43825348111959       -2.63868950805227
H           -0.06058010052163       -2.90087509342162       -2.23710643112283
H            1.86394398417790       -5.03935391371423        0.17728497192330
H            4.02914459622421       -5.94457974114962        0.73241967883818
H            8.32646751971325       -4.07191829178562        1.95029533099092
H            7.63827554729314       -3.02411233291939        0.71514203221759
H            7.10159059128457       -2.88775988355939        2.39930794213387
H            6.96757852102611       -5.02274302619297       -0.67813474075915
H            6.14367756125663       -6.38783307770374        0.07293305630029
H            7.80000347749292       -6.00117130322382        0.53557125705839
H            5.74492333720789       -4.77471267846257        3.43965385403406
H            5.39794552594566       -6.23299700810403        2.51238545117500
H            7.05642759524640       -5.86867490369132        2.98604049502656
H            5.62625224656232       -1.98741065144479        0.93488725433606
H            6.10949664513465       -0.67191048813826       -0.55111804906159
H            8.00249314073820       -0.82806576261157       -1.75980787637626
H            8.32776280725277       -0.79288034189031       -0.01703619790766
H            9.60280604585316       -0.39587718288720       -1.16397495408572
H            8.76663925594448        2.90953229561023        0.24673899228052
H           10.01017217467528        1.67372824673084        0.06593496452597
H            8.65774117676470        1.41445000625396        1.17370899238078
H            7.95264289067182        1.35071329421094       -3.06983631229869
H            9.58213003179678        1.66843569444376       -2.46368053121941
H            8.31466978681756        2.87802891830600       -2.26793231607365
H            6.81964467731493        3.53884994990519       -0.69252430651038
H            4.45817199461278        3.94288750595427       -0.40126353239644
H            2.32493377680065        3.79334173517015       -2.29819815033653
H            1.54314307684135        6.09839138850812       -2.24659088649257
H           -0.71414722258037        7.16549236145932        1.55614572522688
H           -1.35951696364689        6.96451507540018       -0.07024613036941
H           -1.10202829754661        8.58397872280410        0.58646344447797
H            1.67890837465205        7.99022719634159        1.88241577977649
H            2.66166386896761        8.40119525347102        0.47833740160613
H            1.30329517290450        9.43052815404823        0.94036589460519
H            1.65531070489640        8.33554905727201       -1.85060610518294
H            0.29652940381791        9.29519336874329       -1.27809629923854
H           -0.00615056421493        7.75813011959175       -2.07912678664673
H            1.05781195555432        5.82482713431286        1.99533720211010
H            1.84184623872366        3.51418040731240        1.92810086658125
H           -0.04884482576975        2.59156513739183       -0.41918805838541
H           -0.91879195419906        2.44936228467291        1.66811223750613
H           -1.99410994213954        3.99487933987749        3.22747327321209
H           -4.46370995424716        4.19466639268551        3.27315751499019
H           -5.82304675393988        2.72393406897172        1.85531585377702
H           -5.91059593078581        0.51501459936230        2.73269674703497
H           -5.74913216277170       -1.35287086809092        4.30617723888926
H           -4.60913565040780       -3.44375448896233        3.64067879961716
H           -3.66234384921607       -3.63717285907227        1.36087607537296
H           -3.87415823798686       -1.80068281413574       -0.22380187467151
H           -7.37349579544986       -0.58197085929677        0.68150009485905
H           -9.63047611609064        0.22027427379114        0.16785343741414
H           -9.95888729408508        2.42917862374949       -0.88747123660924
H           -7.99261915961187        3.82043509416555       -1.44232034319264
H           -5.72948000665775        3.01617226459124       -0.92305717125558
H           -6.10740039116294       -0.15195725743864       -2.13036356137435
H           -4.98869518426095       -0.79640368527178       -4.21951943967239
H           -2.52340303471796       -0.62147211164852       -4.39723089581464
H           -1.21276082927688        0.19898462652665       -2.49031324147648
H           -1.24346989353094       -1.46504655936797        0.11319615734801
H            0.05674337856882       -4.09424343844807        1.85509457799381
H           -1.77728966564808       -5.64282729957278        1.46608658767725

          :  Hamiltonian                  GFN2-xTB          :
         :: gradient norm              0.000091705407 Eh/a0 ::
         :: HOMO-LUMO gap              0.444137730990 eV    ::
         :: SCC energy              -201.378227552460 Eh    ::
         :: -> dispersion             -0.211532302986 Eh    ::
         :: -> Gsolv                  -0.070207935259 Eh    ::
         :: repulsion energy           3.510040462135 Eh    ::

    * Orbital Energies and Occupations

         #    Occupation            Energy/Eh            Energy/eV
      -------------------------------------------------------------
         1        2.0000           -0.6652439             -18.1022
       ...           ...                  ...                  ...
       175        2.0000           -0.3956776             -10.7669
       176        2.0000           -0.3917484             -10.6600
       177        2.0000           -0.3905586             -10.6276
       178        2.0000           -0.3901823             -10.6174
       179        2.0000           -0.3883195             -10.5667
       180        2.0000           -0.3818780             -10.3914
       181        2.0000           -0.3802922             -10.3483
       182        2.0000           -0.3680060             -10.0140
       183        2.0000           -0.3661016              -9.9621
       184        2.0000           -0.3540244              -9.6335
       185        1.9329           -0.3467950              -9.4368
       186        1.0671           -0.3417937              -9.3007
       187        0.9997           -0.2464618              -6.7066 (HOMO)
       188        0.0001           -0.2301401              -6.2624 (LUMO)
       189        0.0001           -0.2299345              -6.2568
       190        0.0000           -0.2281883              -6.2093
       191        0.0000           -0.2272428              -6.1836
       192        0.0000           -0.2262128              -6.1556
       193        0.0000           -0.2253940              -6.1333
       194        0.0000           -0.2234178              -6.0795
       195                         -0.2220736              -6.0429
       196                         -0.2205543              -6.0016
       197                         -0.2192225              -5.9653
       198                         -0.2180728              -5.9341
       ...                                ...                  ...
       370                          0.7261677              19.7600
      -------------------------------------------------------------
                  HL-Gap            0.0163217 Eh            0.4441 eV

     #   Z          covCN         q      C6AA      α(0)
     1   6 C        3.762    -0.106    22.567     6.772
     2   6 C        3.902     0.027    20.070     6.368
     3   6 C        3.761    -0.105    22.555     6.770
     4   6 C        3.761    -0.107    22.595     6.776
     5   6 C        2.972     0.008    27.831     8.654
     6   6 C        2.927    -0.035    28.863     8.810
     7   6 C        2.920    -0.041    29.012     8.833
     8   6 C        2.931     0.060    26.655     8.467
     9   7 N        2.754    -0.036    21.929     6.955
    10   6 C        2.922     0.058    26.696     8.473
    11   6 C        2.915    -0.063    29.580     8.918
    12   6 C        2.924    -0.049    29.221     8.865
    13   6 C        2.967     0.003    27.945     8.671
    14   6 C        3.902     0.024    20.115     6.375
    15   6 C        3.761    -0.104    22.538     6.768
    16   6 C        3.761    -0.102    22.498     6.762
    17   6 C        3.761    -0.102    22.499     6.762
    18   6 C        2.926    -0.061    29.510     8.909
    19   6 C        2.884    -0.073    29.821     8.953
    20   5 B        2.724     0.136    19.339     7.369
    21   6 C        2.883    -0.074    29.839     8.955
    22   6 C        2.926    -0.061    29.521     8.910
    23   6 C        2.967     0.003    27.957     8.673
    24   6 C        3.903     0.024    20.118     6.376
    25   6 C        3.761    -0.104    22.529     6.766
    26   6 C        3.761    -0.102    22.498     6.761
    27   6 C        3.761    -0.102    22.497     6.761
    28   6 C        2.923    -0.049    29.224     8.865
    29   6 C        2.915    -0.064    29.587     8.920
    30   6 C        2.923     0.058    26.704     8.474
    31   7 N        2.754    -0.038    21.970     6.961
    32   6 C        2.933     0.062    26.614     8.460
    33   6 C        2.920    -0.041    29.008     8.832
    34   6 C        2.925    -0.039    28.965     8.826
    35   6 C        2.973     0.010    27.780     8.645
    36   6 C        3.902     0.026    20.076     6.369
    37   6 C        3.761    -0.106    22.565     6.772
    38   6 C        3.761    -0.106    22.578     6.774
    39   6 C        3.761    -0.109    22.630     6.781
    40   6 C        2.927    -0.034    28.837     8.806
    41   6 C        2.920    -0.040    29.001     8.831
    42   6 C        2.926     0.051    26.850     8.498
    43   6 C        2.916    -0.064    29.592     8.920
    44   6 C        2.920     0.038    27.147     8.544
    45   7 N        2.754    -0.069    22.572     7.056
    46   6 C        2.926     0.059    26.668     8.469
    47   6 C        2.922    -0.059    29.456     8.900
    48   6 C        2.919    -0.035    28.860     8.810
    49   6 C        2.917    -0.045    29.119     8.849
    50   6 C        2.923    -0.038    28.935     8.821
    51   6 C        2.993    -0.010    28.257     8.720
    52   6 C        3.922     0.011    20.325     6.407
    53   6 C        2.985     0.012    27.738     8.639
    54   6 C        2.925    -0.035    28.878     8.813
    55   6 C        2.919    -0.032    28.798     8.800
    56   6 C        2.919    -0.034    28.838     8.806
    57   6 C        2.920    -0.033    28.822     8.804
    58   6 C        2.923    -0.037    28.911     8.818
    59   6 C        2.977     0.014    27.702     8.633
    60   6 C        2.923    -0.036    28.902     8.816
    61   6 C        2.919    -0.032    28.792     8.799
    62   6 C        2.919    -0.034    28.837     8.806
    63   6 C        2.919    -0.031    28.782     8.798
    64   6 C        2.926    -0.033    28.813     8.803
    65   6 C        2.985    -0.009    28.231     8.716
    66   6 C        2.922    -0.038    28.936     8.821
    67   6 C        2.918    -0.044    29.089     8.844
    68   6 C        2.919    -0.034    28.850     8.808
    69   6 C        2.922    -0.055    29.360     8.886
    70   6 C        2.936     0.061    26.632     8.464
    71   6 C        2.920    -0.058    29.452     8.900
    72   6 C        2.927     0.051    26.859     8.499
    73   6 C        2.894    -0.106    30.676     9.081
    74   6 C        2.919    -0.041    29.024     8.835
    75   6 C        2.925    -0.039    28.958     8.825
    76   1 H        0.925     0.038     2.480     2.463
    77   1 H        0.925     0.041     2.438     2.442
    78   1 H        0.925     0.033     2.539     2.492
    79   1 H        0.925     0.040     2.451     2.448
    80   1 H        0.925     0.035     2.514     2.479
    81   1 H        0.925     0.036     2.497     2.471
    82   1 H        0.925     0.037     2.492     2.469
    83   1 H        0.925     0.039     2.462     2.454
    84   1 H        0.925     0.036     2.497     2.471
    85   1 H        0.926     0.039     2.462     2.454
    86   1 H        0.926     0.035     2.518     2.482
    87   1 H        0.926     0.016     2.800     2.617
    88   1 H        0.926     0.015     2.813     2.623
    89   1 H        0.925     0.034     2.534     2.489
    90   1 H        0.925     0.036     2.500     2.473
    91   1 H        0.925     0.034     2.529     2.487
    92   1 H        0.925     0.032     2.564     2.504
    93   1 H        0.925     0.034     2.532     2.488
    94   1 H        0.925     0.036     2.504     2.474
    95   1 H        0.925     0.031     2.574     2.509
    96   1 H        0.925     0.034     2.527     2.486
    97   1 H        0.925     0.036     2.507     2.476
    98   1 H        0.926     0.034     2.527     2.486
    99   1 H        0.926     0.034     2.535     2.490
   100   1 H        0.925     0.034     2.531     2.488
   101   1 H        0.925     0.036     2.506     2.476
   102   1 H        0.925     0.034     2.536     2.491
   103   1 H        0.925     0.034     2.532     2.488
   104   1 H        0.925     0.036     2.508     2.476
   105   1 H        0.925     0.031     2.566     2.505
   106   1 H        0.925     0.031     2.575     2.509
   107   1 H        0.925     0.036     2.509     2.477
   108   1 H        0.925     0.034     2.530     2.487
   109   1 H        0.926     0.014     2.824     2.628
   110   1 H        0.926     0.014     2.831     2.631
   111   1 H        0.926     0.038     2.474     2.460
   112   1 H        0.926     0.048     2.343     2.394
   113   1 H        0.925     0.038     2.471     2.458
   114   1 H        0.925     0.033     2.543     2.494
   115   1 H        0.925     0.041     2.431     2.438
   116   1 H        0.925     0.038     2.472     2.459
   117   1 H        0.925     0.034     2.528     2.487
   118   1 H        0.925     0.041     2.431     2.438
   119   1 H        0.925     0.038     2.482     2.463
   120   1 H        0.925     0.040     2.450     2.448
   121   1 H        0.925     0.037     2.485     2.465
   122   1 H        0.926     0.042     2.427     2.436
   123   1 H        0.926     0.036     2.500     2.473
   124   1 H        0.926     0.032     2.555     2.499
   125   1 H        0.926     0.034     2.526     2.485
   126   1 H        0.926     0.030     2.585     2.514
   127   1 H        0.926     0.028     2.615     2.529
   128   1 H        0.926     0.029     2.607     2.525
   129   1 H        0.926     0.033     2.550     2.497
   130   1 H        0.926     0.030     2.580     2.512
   131   1 H        0.926     0.031     2.578     2.511
   132   1 H        0.926     0.032     2.556     2.500
   133   1 H        0.926     0.026     2.648     2.545
   134   1 H        0.926     0.030     2.584     2.514
   135   1 H        0.926     0.030     2.583     2.513
   136   1 H        0.926     0.030     2.581     2.513
   137   1 H        0.926     0.030     2.582     2.513
   138   1 H        0.926     0.027     2.632     2.537
   139   1 H        0.926     0.029     2.607     2.525
   140   1 H        0.926     0.029     2.605     2.524
   141   1 H        0.926     0.030     2.583     2.513
   142   1 H        0.926     0.029     2.605     2.524
   143   1 H        0.926     0.029     2.596     2.519
   144   1 H        0.926     0.037     2.487     2.466
   145   1 H        0.926     0.046     2.373     2.409

molecular dipole:
                 x           y           z       tot (Debye)
 q only:       -0.738       0.357      -0.092
   full:       -0.825       0.386      -0.098       2.327

 projected vibrational frequencies (cm⁻¹)
eigval :       -0.00    -0.00    -0.00     0.00     0.00     0.00
eigval :        7.66    10.98    12.47    14.77    18.86    21.72
eigval :       24.37    26.37    30.36    35.55    36.31    39.40
eigval :       42.58    44.95    48.28    55.90    60.16    64.57
eigval :       66.78    67.55    72.02    73.30    78.46    90.23
eigval :       92.63    94.31    97.84   107.69   110.40   114.48
eigval :      134.00   144.57   145.55   158.32   166.58   172.27
eigval :      174.47   177.39   178.67   180.72   183.97   192.19
eigval :      206.91   212.88   221.09   222.40   224.27   229.13
eigval :      229.80   232.49   235.57   238.78   247.99   250.46
eigval :      253.64   256.40   260.54   271.88   278.09   280.87
eigval :      286.83   301.88   306.03   309.58   311.76   315.61
eigval :      316.40   316.71   321.12   332.14   335.33   346.66
eigval :      348.40   352.21   354.02   361.13   367.44   370.52
eigval :      372.85   375.25   379.17   380.37   382.13   393.53
eigval :      395.51   398.40   402.37   405.63   407.09   416.74
eigval :      422.49   426.79   434.61   438.66   445.30   446.46
eigval :      453.49   458.83   459.89   468.45   470.51   474.80
eigval :      485.46   487.14   500.51   507.83   514.70   520.35
eigval :      523.25   527.52   528.34   552.82   558.05   563.37
eigval :      578.88   587.80   588.32   589.96   593.44   596.74
eigval :      599.04   605.85   608.94   610.58   615.76   616.23
eigval :      620.71   627.50   651.37   662.89   664.95   667.07
eigval :      671.53   676.29   687.97   688.49   695.25   697.34
eigval :      697.93   705.73   716.05   722.55   727.59   754.27
eigval :      758.55   768.91   772.86   776.43   785.74   789.40
eigval :      793.82   803.02   813.75   819.04   839.80   841.62
eigval :      861.97   867.92   868.61   868.80   869.48   870.16
eigval :      871.80   876.75   878.11   878.42   879.88   880.39
eigval :      881.86   891.93   897.91   898.67   902.26   904.61
eigval :      910.49   913.12   914.82   916.43   919.04   920.37
eigval :      922.14   923.39   924.40   928.28   928.73   931.79
eigval :      932.95   934.37   937.20   941.50   944.08   957.32
eigval :      958.55   959.53   959.86   960.65   961.39   961.69
eigval :      961.80   963.01   963.05   963.07   965.10   966.17
eigval :      984.90   999.62  1006.76  1012.62  1030.78  1032.70
eigval :     1033.90  1034.26  1034.28  1034.99  1035.18  1035.83
eigval :     1036.95  1086.01  1086.12  1088.39  1090.56  1101.22
eigval :     1104.82  1117.90  1121.82  1126.08  1132.55  1132.86
eigval :     1139.23  1139.46  1144.59  1145.48  1153.17  1159.99
eigval :     1170.94  1178.88  1180.00  1180.48  1182.02  1183.78
eigval :     1187.77  1194.11  1199.06  1200.85  1203.34  1204.28
eigval :     1210.25  1220.02  1221.21  1223.11  1223.68  1224.18
eigval :     1225.04  1226.55  1227.64  1228.73  1230.63  1231.40
eigval :     1240.32  1243.71  1246.77  1257.60  1259.99  1262.88
eigval :     1265.91  1273.69  1274.24  1278.09  1278.67  1284.05
eigval :     1286.36  1287.29  1291.92  1294.75  1301.37  1305.10
eigval :     1306.30  1314.01  1315.70  1316.99  1320.56  1322.29
eigval :     1328.14  1332.63  1338.51  1338.75  1351.07  1361.14
eigval :     1368.43  1383.58  1395.51  1396.61  1400.73  1401.09
eigval :     1401.68  1403.51  1404.10  1404.17  1406.57  1407.93
eigval :     1410.54  1416.20  1425.24  1426.31  1427.35  1428.18
eigval :     1429.18  1433.51  1435.80  1438.02  1446.74  1458.48
eigval :     1470.49  1471.27  1472.96  1475.11  1478.18  1480.90
eigval :     1483.21  1488.16  1488.49  1488.67  1489.09  1491.06
eigval :     1491.32  1492.83  1493.61  1494.05  1497.99  1498.51
eigval :     1498.70  1499.50  1501.29  1501.93  1502.54  1503.17
eigval :     1508.54  1509.25  1510.91  1511.27  1514.02  1516.20
eigval :     1516.68  1517.99  1520.08  1531.03  1539.75  1554.96
eigval :     1557.59  1562.36  1572.47  1578.51  1580.68  1584.99
eigval :     1588.11  1590.76  1592.90  1598.78  1601.07  3014.54
eigval :     3016.05  3016.08  3016.43  3020.70  3021.03  3021.26
eigval :     3021.39  3021.45  3021.56  3022.02  3022.12  3024.18
eigval :     3024.87  3025.07  3025.52  3025.87  3028.28  3029.67
eigval :     3029.77  3029.87  3030.49  3031.91  3033.33  3034.67
eigval :     3037.77  3037.85  3040.20  3041.14  3041.89  3044.34
eigval :     3044.43  3044.79  3046.34  3047.61  3049.89  3065.52
eigval :     3067.82  3068.95  3072.31  3072.82  3073.43  3074.51
eigval :     3074.72  3076.06  3076.75  3077.04  3079.09  3079.97
eigval :     3080.50  3080.88  3082.71  3083.40  3086.17  3088.39
eigval :     3089.48  3089.80  3089.96  3091.61  3093.34  3094.21
eigval :     3094.96  3096.39  3097.24  3099.00  3108.69  3110.19
eigval :     3116.89  3132.57  3139.02

   temp. (K)  partition function   enthalpy   heat capacity  entropy
                                   cal/mol     cal/K/mol   cal/K/mol   J/K/mol
 298.15  VIB  0.459E+33            41991.459    258.945    261.528
         ROT  0.261E+09              888.752      2.981     41.494
         INT  0.120E+42            42880.211    261.926    303.022
         TR   0.295E+29             1481.254      4.968     46.488
         TOT                       44361.4651   266.8942   349.5109  1462.3535

       T/K    H(0)-H(T)+PV         H(T)/Eh          T*S/Eh         G(T)/Eh
   ------------------------------------------------------------------------
    298.15    0.706945E-01    0.126265E+01    0.166064E+00    0.109659E+01
   ------------------------------------------------------------------------

         :::::::::::::::::::::::::::::::::::::::::::::::::::::
         ::                  THERMODYNAMIC                  ::
         :::::::::::::::::::::::::::::::::::::::::::::::::::::
         :: total free energy        -196.771598945486 Eh   ::
         ::.................................................::
         :: total energy             -197.868187080622 Eh   ::
         :: zero point energy           1.191957530245 Eh   ::
         :: G(RRHO) w/o ZPVE           -0.095369395110 Eh   ::
         :: G(RRHO) contrib.            1.096588135136 Eh   ::
         :::::::::::::::::::::::::::::::::::::::::::::::::::::

           -------------------------------------------------
          | TOTAL ENERGY             -197.868187080622 Eh   |
          | TOTAL ENTHALPY           -196.605535055903 Eh   |
          | TOTAL FREE ENERGY        -196.771598945486 Eh   |
          | GRADIENT NORM               0.000090746134 Eh/α |
          | HOMO-LUMO GAP               0.444134790095 eV   |
           -------------------------------------------------

 * finished run on 2025/09/11 at 15:43:12.972
