   * xtb version 6.7.1 (edcfbbe) compiled by 'albert@albert-system' on 2024-07-22

   ID    Z sym.   atoms
    1    6 C      1-8, 10-19, 21-30, 32-44, 46-75
    2    7 N      9, 31, 45
    3    5 B      20
    4    1 H      76-145

          program call               : xtb data2507/toluene/tDPAC-BN/tDPAC-BN_toluene_S0_finalOpt.xtbopt.xyz --gfn 2 --uhf 2 --gbsa toluene --ohess vtight --parallel 40 --molden --ceasefiles --namespace data2507/toluene/tDPAC-BN/tDPAC-BN_toluene_T1_preOpt
      * Solvation model:               GBSA
        Solvent                        toluene
        Solvent mass                       9.2140E+01 g/mol
          :  Hamiltonian                  GFN2-xTB          :
 * total energy  :  -197.8666515 Eh     change       -0.3727271E-07 Eh
 * total energy  :  -197.8676498 Eh     change       -0.9982701E-03 Eh
 * total energy  :  -197.8678871 Eh     change       -0.2372615E-03 Eh
 * total energy  :  -197.8679076 Eh     change       -0.2052711E-04 Eh
 * total energy  :  -197.8679218 Eh     change       -0.1419724E-04 Eh
 * total energy  :  -197.8679278 Eh     change       -0.5998789E-05 Eh
 * total energy  :  -197.8679455 Eh     change       -0.1775125E-04 Eh
 * total energy  :  -197.8679524 Eh     change       -0.6898255E-05 Eh
 * total energy  :  -197.8679681 Eh     change       -0.1565641E-04 Eh
 * total energy  :  -197.8679755 Eh     change       -0.7440561E-05 Eh
 * total energy  :  -197.8681031 Eh     change       -0.5549317E-06 Eh
 * total energy  :  -197.8681035 Eh     change       -0.3596132E-06 Eh
 * total energy  :  -197.8681038 Eh     change       -0.2814256E-06 Eh
 * total energy  :  -197.8681040 Eh     change       -0.2709288E-06 Eh
 * total energy  :  -197.8681046 Eh     change       -0.5811920E-06 Eh
 * total energy  :  -197.8681052 Eh     change       -0.5877671E-06 Eh
 * total energy  :  -197.8681060 Eh     change       -0.7638223E-06 Eh
 * total energy  :  -197.8681068 Eh     change       -0.8652976E-06 Eh
 * total energy  :  -197.8681068 Eh     change       -0.7983658E-08 Eh
   *** GEOMETRY OPTIMIZATION CONVERGED AFTER 68 ITERATIONS ***

 final structure:
================
145
 xtb: 6.7.1 (edcfbbe)
C           -2.34846710756088       -7.42046884571274       -1.72585319247483
C           -2.92195751013561       -6.35253482645138       -0.78123877870459
C           -4.13549352702611       -5.67854141670896       -1.43879264798952
C           -3.39802121659088       -7.05068619838618        0.49651971177323
C           -1.84186706829197       -5.31459549605365       -0.51638688605602
C           -1.32607080032994       -4.57331561247496       -1.57935228639053
C           -0.32151589123627       -3.64538638832667       -1.39525544709884
C            0.20638006369306       -3.42824916257942       -0.12745713051737
N            1.25300940901924       -2.47998861317082        0.04338878496286
C            2.54253533170412       -2.93320974605579        0.25019514960833
C            2.77277607545474       -4.30476226001389        0.37635487944017
C            4.02916322620560       -4.79757264730295        0.69102535977277
C            5.09762944620103       -3.92947665709700        0.90801862346449
C            6.47924362381834       -4.41034705064310        1.32077098061580
C            6.87691905194203       -3.72602684998999        2.63776112064991
C            7.48630673517402       -4.04174609389799        0.22111072824089
C            6.54103066996025       -5.92585598099451        1.53680877511446
C            4.87123981417256       -2.57184316931440        0.70706270570120
C            3.63947336537606       -2.02488834291882        0.32409865368929
B            3.38304942991871       -0.54220888214718       -0.00173727427920
C            4.36190709371121        0.61122997204950       -0.28456489379217
C            5.73507077123472        0.46622091110771       -0.54278500765666
C            6.60871085331142        1.52963518408857       -0.71506368280135
C            8.09646344159198        1.35450795977508       -0.97431717200164
C            8.52477578901210       -0.11474705913758       -1.02557510484567
C            8.88732286628001        2.04104477627948        0.15024568442118
C            8.44665070738047        2.00186779813043       -2.32306510750922
C            6.07968079321205        2.82023703986106       -0.62757270426707
C            4.72380813395576        3.02022003793155       -0.44148344299030
C            3.84838029614696        1.93941727078190       -0.31428355445756
N            2.49164614067006        2.18405422115586       -0.21166335368742
C            2.03516223687290        3.53158470562670       -0.15379153817853
C            1.92148599346396        4.30353575721634       -1.30143026293353
C            1.44326999609967        5.60016147550040       -1.22485476714009
C            1.06529960956191        6.16267753422733       -0.01032959166471
C            0.51930237291007        7.57652268381699        0.11430192215784
C           -0.89448754090492        7.51042766297976        0.71216454756796
C            1.43815368683663        8.39122864743079        1.03695440818107
C            0.43506079186751        8.29821597783866       -1.23402753424521
C            1.19393537053260        5.37454905224811        1.13246830860407
C            1.66840490236675        4.07983917945189        1.06922301484447
C            1.52095011226132        1.19222462774899       -0.16741112119379
C            0.17579298898948        1.54663563845131       -0.24898222668367
C           -0.81014546940667        0.56470674866948       -0.12360252320681
N           -2.19233073629001        0.87474628117886       -0.16330494962301
C           -2.80098367399918        1.65795741450837        0.80518506893773
C           -2.05151644143642        2.42149063455069        1.70282647643671
C           -2.67258501984720        3.27380375576066        2.59289541219970
C           -4.05212477654667        3.38639181612845        2.60330299570501
C           -4.80449292672387        2.58212359871991        1.76421143164199
C           -4.20177727560900        1.70010007843263        0.88186466829808
C           -5.00645417460863        0.65485336540465        0.12552922856109
C           -4.95303084313830       -0.57772643569667        1.03278710877088
C           -5.49136012016800       -0.50443212862427        2.31454915822274
C           -5.40425035981568       -1.57461928963149        3.18465123573482
C           -4.75836512373142       -2.73714632726315        2.79617568395190
C           -4.21842712183844       -2.81968793030335        1.52608821651535
C           -4.32113480318773       -1.75247285081858        0.64888775500483
C           -6.42409919704797        1.12333609257921       -0.14602153545143
C           -7.53753336144607        0.33355279648900        0.10621129188796
C           -8.80939282208329        0.79202008130596       -0.19712094310070
C           -8.98574034399724        2.04169157335957       -0.76400648473770
C           -7.87890466193839        2.82930296210907       -1.03733599834196
C           -6.61048969446070        2.37132910729078       -0.73491213305412
C           -4.32161582958047        0.36651341780124       -1.19424268124494
C           -5.02973100105772       -0.04838922614632       -2.31071665330936
C           -4.38076907308579       -0.38287053819975       -3.48737035512683
C           -2.99954105930192       -0.29976245740911       -3.55320828012496
C           -2.27713616679917        0.11637015837319       -2.45386414875463
C           -2.92490108744444        0.44687869287634       -1.26088300417001
C           -0.44109662000116       -0.77703743787513       -0.00145548264840
C            0.90338321602677       -1.13628420464115       -0.01173844970272
C            1.92235082117677       -0.15802557268319       -0.06000629526388
C           -0.30621212765414       -4.14498913599347        0.94574509303119
C           -1.31262158636522       -5.07430936954120        0.74789578258111
H           -2.06316273319590       -6.99037863356958       -2.68205920604751
H           -3.08977041410650       -8.19566130763913       -1.90784652799017
H           -1.46780287977767       -7.88226254640321       -1.28319158082791
H           -4.90691664813151       -6.41888804809880       -1.64020875148957
H           -4.55329114988343       -4.91942809382859       -0.78082623004741
H           -3.86861101845793       -5.20324218434298       -2.37861430474204
H           -2.58332730680223       -7.58643409671529        0.97857741979832
H           -4.17168423530937       -7.77362121825173        0.24574199419947
H           -3.82353951431418       -6.33808058649935        1.19957016212406
H           -1.70621675222157       -4.72241989721951       -2.57820308001184
H            0.06988877026667       -3.08852548673835       -2.23405816622386
H            1.96442871857647       -5.00734781726425        0.24091551191405
H            4.14635392486320       -5.86499911517724        0.77919365116052
H            7.86381638358194       -4.06127465343959        2.95126154566225
H            6.90102133887108       -2.64501627358155        2.53170980055149
H            6.16243899526148       -3.97417819281881        3.42067525331416
H            7.52233120065279       -2.96742228313049        0.06796544977432
H            7.20409137712819       -4.51028245419246       -0.72006953211519
H            8.48330384964583       -4.38324084784930        0.49289836403444
H            5.84353276419658       -6.23900404564326        2.31091748323237
H            6.31707418130739       -6.46286617054528        0.61762982584122
H            7.54409246802454       -6.20682103314898        1.85299792362068
H            5.68308970914835       -1.88051793007664        0.86304755138908
H            6.10581203256302       -0.54072300966170       -0.61775041422566
H            8.00124010128107       -0.64974361436695       -1.81471761168091
H            8.33570132966587       -0.60615413538905       -0.07392553176722
H            9.59262336889953       -0.17615302987284       -1.22800783823206
H            8.68450983914099        3.10805391674595        0.18400826431699
H            9.95575533146728        1.90218119713688       -0.00394009890799
H            8.61787670639639        1.61274495121870        1.11411155136441
H            7.88487155411286        1.52558142584157       -3.12462357711857
H            9.50915109881092        1.88763850627675       -2.52953877852723
H            8.21059155945769        3.06272455089890       -2.32559492848929
H            6.71647591403154        3.68680995208047       -0.72054128930762
H            4.34874670591049        4.03213194662235       -0.40394424133870
H            2.20551283228876        3.88218956601302       -2.25508583061754
H            1.36631156587850        6.16460757228738       -2.13939750340561
H           -0.88480269056524        7.08203251453242        1.71044504803861
H           -1.54128821368828        6.89808347198254        0.08637944949728
H           -1.32023840933967        8.50957067175780        0.77511958718696
H            1.49284983341979        7.95490885894311        2.03046297091579
H            2.44528172595397        8.43153793793671        0.62624948775024
H            1.06397740811195        9.40833772009692        1.13206881644142
H            1.41760283875328        8.39224306950647       -1.69107421854688
H            0.03908018334474        9.30039713354095       -1.08281669904595
H           -0.22975493669431        7.77490277544401       -1.91754012931819
H            0.91901968853598        5.77160363229305        2.09733743236282
H            1.75898652485736        3.48315928688756        1.96561678088587
H           -0.12278890260888        2.57075749538155       -0.41042882261094
H           -0.97668713501905        2.33833167693908        1.70619058749366
H           -2.07412050370819        3.85581813571471        3.27809256164115
H           -4.54279163926803        4.06929856300604        3.28035699149436
H           -5.88274846084766        2.63653963660323        1.80582513933640
H           -5.98344056867667        0.40157173937157        2.63506912493890
H           -5.83478520502544       -1.49725283499319        4.17280399772232
H           -4.67694161056522       -3.56894626835323        3.48068115196630
H           -3.70286402186448       -3.71435435269462        1.20906117514497
H           -3.90311231009568       -1.84663376671860       -0.34239837724774
H           -7.41561394755832       -0.64950688976407        0.53707683912887
H           -9.66511529554117        0.16487395084904        0.00873052028685
H           -9.97822519642572        2.39846017318548       -0.99816192868479
H           -8.00446723243479        3.80269666917921       -1.48948765938044
H           -5.74910729029322        2.98624600255911       -0.95562239325628
H           -6.10535607242344       -0.12703839701874       -2.25530456199543
H           -4.95112891465715       -0.71147022566270       -4.34298576958924
H           -2.48146396807836       -0.55492049671905       -4.46623363739891
H           -1.20185859243980        0.19309321817113       -2.50969342580776
H           -1.22016327274060       -1.51870940174693        0.08484006382765
H            0.09065908035765       -3.97476815761089        1.93617393271365
H           -1.67668616563326       -5.61292609287149        1.60763665657150

          :  Hamiltonian                  GFN2-xTB          :
         :: gradient norm              0.000057745916 Eh/a0 ::
         :: HOMO-LUMO gap              0.442176061726 eV    ::
         :: SCC energy              -201.378200467622 Eh    ::
         :: -> dispersion             -0.210991267274 Eh    ::
         :: -> Gsolv                  -0.070576469236 Eh    ::
         :: repulsion energy           3.510093625409 Eh    ::

    * Orbital Energies and Occupations

         #    Occupation            Energy/Eh            Energy/eV
      -------------------------------------------------------------
         1        2.0000           -0.6653099             -18.1040
       ...           ...                  ...                  ...
       175        2.0000           -0.3958407             -10.7714
       176        2.0000           -0.3916709             -10.6579
       177        2.0000           -0.3906122             -10.6291
       178        2.0000           -0.3902954             -10.6205
       179        2.0000           -0.3882994             -10.5662
       180        2.0000           -0.3821490             -10.3988
       181        2.0000           -0.3799599             -10.3392
       182        2.0000           -0.3679201             -10.0116
       183        2.0000           -0.3661856              -9.9644
       184        1.9999           -0.3537105              -9.6250
       185        1.9280           -0.3468766              -9.4390
       186        1.0721           -0.3420209              -9.3069
       187        0.9997           -0.2463820              -6.7044 (HOMO)
       188        0.0001           -0.2301324              -6.2622 (LUMO)
       189        0.0001           -0.2299347              -6.2568
       190        0.0000           -0.2283265              -6.2131
       191        0.0000           -0.2274847              -6.1902
       192        0.0000           -0.2268862              -6.1739
       193        0.0000           -0.2254414              -6.1346
       194        0.0000           -0.2234311              -6.0799
       195                         -0.2221061              -6.0438
       196                         -0.2204575              -5.9990
       197                         -0.2192156              -5.9652
       198                         -0.2180106              -5.9324
       ...                                ...                  ...
       370                          0.7271952              19.7880
      -------------------------------------------------------------
                  HL-Gap            0.0162496 Eh            0.4422 eV

     #   Z          covCN         q      C6AA      α(0)
     1   6 C        3.762    -0.106    22.569     6.772
     2   6 C        3.902     0.027    20.069     6.368
     3   6 C        3.761    -0.105    22.561     6.771
     4   6 C        3.761    -0.107    22.598     6.777
     5   6 C        2.972     0.009    27.808     8.650
     6   6 C        2.927    -0.034    28.854     8.809
     7   6 C        2.920    -0.040    29.004     8.832
     8   6 C        2.931     0.061    26.633     8.464
     9   7 N        2.754    -0.036    21.936     6.956
    10   6 C        2.923     0.059    26.682     8.471
    11   6 C        2.916    -0.064    29.590     8.920
    12   6 C        2.921    -0.053    29.315     8.879
    13   6 C        2.967     0.003    27.945     8.671
    14   6 C        3.902     0.024    20.116     6.375
    15   6 C        3.761    -0.103    22.507     6.763
    16   6 C        3.761    -0.102    22.499     6.762
    17   6 C        3.761    -0.104    22.535     6.767
    18   6 C        2.928    -0.057    29.422     8.895
    19   6 C        2.883    -0.074    29.839     8.955
    20   5 B        2.724     0.136    19.337     7.368
    21   6 C        2.883    -0.074    29.845     8.956
    22   6 C        2.926    -0.061    29.522     8.910
    23   6 C        2.967     0.003    27.966     8.674
    24   6 C        3.902     0.024    20.118     6.376
    25   6 C        3.761    -0.103    22.509     6.763
    26   6 C        3.761    -0.102    22.492     6.761
    27   6 C        3.761    -0.102    22.498     6.762
    28   6 C        2.923    -0.050    29.230     8.866
    29   6 C        2.915    -0.064    29.592     8.920
    30   6 C        2.923     0.058    26.701     8.474
    31   7 N        2.754    -0.038    21.982     6.963
    32   6 C        2.932     0.062    26.615     8.461
    33   6 C        2.920    -0.041    29.012     8.833
    34   6 C        2.925    -0.039    28.967     8.826
    35   6 C        2.972     0.010    27.784     8.646
    36   6 C        3.902     0.026    20.077     6.369
    37   6 C        3.761    -0.106    22.564     6.771
    38   6 C        3.761    -0.106    22.577     6.774
    39   6 C        3.761    -0.109    22.629     6.781
    40   6 C        2.927    -0.034    28.838     8.807
    41   6 C        2.920    -0.040    29.001     8.831
    42   6 C        2.926     0.051    26.852     8.498
    43   6 C        2.916    -0.063    29.568     8.917
    44   6 C        2.920     0.038    27.160     8.546
    45   7 N        2.754    -0.069    22.570     7.056
    46   6 C        2.927     0.060    26.666     8.469
    47   6 C        2.922    -0.058    29.451     8.899
    48   6 C        2.919    -0.034    28.859     8.809
    49   6 C        2.917    -0.045    29.119     8.849
    50   6 C        2.923    -0.038    28.935     8.821
    51   6 C        2.994    -0.010    28.255     8.720
    52   6 C        3.922     0.011    20.325     6.407
    53   6 C        2.985     0.012    27.736     8.639
    54   6 C        2.925    -0.035    28.877     8.813
    55   6 C        2.919    -0.032    28.799     8.800
    56   6 C        2.919    -0.034    28.838     8.806
    57   6 C        2.920    -0.033    28.820     8.803
    58   6 C        2.923    -0.037    28.912     8.818
    59   6 C        2.977     0.014    27.702     8.633
    60   6 C        2.923    -0.036    28.901     8.816
    61   6 C        2.919    -0.032    28.792     8.799
    62   6 C        2.919    -0.034    28.837     8.806
    63   6 C        2.919    -0.031    28.783     8.798
    64   6 C        2.926    -0.033    28.813     8.803
    65   6 C        2.985    -0.009    28.234     8.716
    66   6 C        2.922    -0.038    28.938     8.822
    67   6 C        2.918    -0.044    29.090     8.845
    68   6 C        2.919    -0.034    28.852     8.808
    69   6 C        2.922    -0.055    29.367     8.887
    70   6 C        2.936     0.061    26.629     8.463
    71   6 C        2.920    -0.059    29.464     8.901
    72   6 C        2.925     0.051    26.858     8.499
    73   6 C        2.894    -0.106    30.684     9.082
    74   6 C        2.919    -0.040    29.005     8.832
    75   6 C        2.925    -0.038    28.949     8.824
    76   1 H        0.925     0.038     2.477     2.461
    77   1 H        0.925     0.041     2.434     2.440
    78   1 H        0.925     0.033     2.538     2.491
    79   1 H        0.925     0.040     2.448     2.447
    80   1 H        0.925     0.035     2.513     2.479
    81   1 H        0.925     0.037     2.492     2.469
    82   1 H        0.925     0.037     2.489     2.467
    83   1 H        0.925     0.039     2.458     2.452
    84   1 H        0.925     0.037     2.495     2.470
    85   1 H        0.926     0.040     2.446     2.446
    86   1 H        0.926     0.036     2.505     2.475
    87   1 H        0.926     0.015     2.808     2.620
    88   1 H        0.926     0.022     2.705     2.572
    89   1 H        0.925     0.036     2.509     2.477
    90   1 H        0.925     0.037     2.492     2.468
    91   1 H        0.925     0.030     2.586     2.515
    92   1 H        0.925     0.038     2.471     2.458
    93   1 H        0.925     0.030     2.585     2.514
    94   1 H        0.925     0.035     2.511     2.478
    95   1 H        0.925     0.033     2.549     2.497
    96   1 H        0.925     0.033     2.544     2.494
    97   1 H        0.925     0.034     2.531     2.488
    98   1 H        0.926     0.026     2.641     2.541
    99   1 H        0.926     0.032     2.558     2.501
   100   1 H        0.925     0.035     2.515     2.480
   101   1 H        0.925     0.033     2.540     2.492
   102   1 H        0.925     0.034     2.531     2.488
   103   1 H        0.925     0.034     2.532     2.488
   104   1 H        0.925     0.036     2.508     2.476
   105   1 H        0.925     0.031     2.576     2.510
   106   1 H        0.925     0.031     2.570     2.507
   107   1 H        0.925     0.036     2.506     2.476
   108   1 H        0.925     0.034     2.529     2.487
   109   1 H        0.926     0.014     2.827     2.629
   110   1 H        0.926     0.014     2.832     2.632
   111   1 H        0.926     0.038     2.476     2.461
   112   1 H        0.926     0.048     2.345     2.395
   113   1 H        0.925     0.038     2.471     2.458
   114   1 H        0.925     0.033     2.544     2.494
   115   1 H        0.925     0.041     2.432     2.439
   116   1 H        0.925     0.038     2.473     2.459
   117   1 H        0.925     0.034     2.529     2.487
   118   1 H        0.925     0.041     2.430     2.438
   119   1 H        0.925     0.038     2.482     2.464
   120   1 H        0.925     0.040     2.450     2.448
   121   1 H        0.925     0.037     2.486     2.465
   122   1 H        0.926     0.042     2.429     2.437
   123   1 H        0.926     0.036     2.504     2.474
   124   1 H        0.926     0.032     2.560     2.502
   125   1 H        0.926     0.034     2.532     2.488
   126   1 H        0.926     0.030     2.585     2.514
   127   1 H        0.926     0.028     2.613     2.528
   128   1 H        0.926     0.029     2.606     2.524
   129   1 H        0.926     0.032     2.552     2.498
   130   1 H        0.926     0.030     2.580     2.512
   131   1 H        0.926     0.031     2.577     2.510
   132   1 H        0.926     0.032     2.555     2.500
   133   1 H        0.926     0.026     2.647     2.544
   134   1 H        0.926     0.030     2.584     2.514
   135   1 H        0.926     0.030     2.583     2.513
   136   1 H        0.926     0.030     2.581     2.512
   137   1 H        0.926     0.030     2.582     2.513
   138   1 H        0.926     0.027     2.632     2.537
   139   1 H        0.926     0.029     2.607     2.525
   140   1 H        0.926     0.029     2.605     2.524
   141   1 H        0.926     0.030     2.581     2.512
   142   1 H        0.926     0.029     2.602     2.522
   143   1 H        0.926     0.029     2.601     2.522
   144   1 H        0.926     0.037     2.483     2.464
   145   1 H        0.926     0.047     2.358     2.402

molecular dipole:
                 x           y           z       tot (Debye)
 q only:       -0.827       0.246      -0.063
   full:       -0.901       0.294      -0.067       2.415

 projected vibrational frequencies (cm⁻¹)
eigval :       -0.00    -0.00    -0.00     0.00     0.00     0.00
eigval :       -4.34     7.64    10.89    12.90    16.37    19.76
eigval :       23.57    24.84    28.36    31.01    34.28    36.01
eigval :       43.48    46.87    47.82    53.45    59.50    60.23
eigval :       65.35    66.45    69.67    71.15    77.93    89.92
eigval :       91.76    93.08    96.36   106.26   106.96   114.08
eigval :      132.32   139.95   143.33   154.72   163.67   170.03
eigval :      171.04   174.05   174.96   179.76   181.99   192.83
eigval :      203.96   210.64   217.17   220.49   222.35   226.80
eigval :      230.37   232.32   237.49   241.73   246.52   248.45
eigval :      253.69   258.38   260.49   269.55   280.49   283.62
eigval :      296.36   297.60   303.89   307.34   310.96   311.89
eigval :      315.34   317.03   322.29   324.06   335.46   345.45
eigval :      348.96   350.77   353.65   361.01   368.21   370.00
eigval :      372.50   375.13   379.15   379.64   381.19   392.43
eigval :      394.10   398.29   403.10   405.76   406.28   418.57
eigval :      421.67   427.03   434.10   438.59   445.13   447.14
eigval :      453.02   458.81   461.37   468.04   469.87   474.50
eigval :      484.62   486.24   499.54   506.78   514.72   520.11
eigval :      522.75   526.70   528.29   552.50   557.20   563.07
eigval :      578.65   587.34   588.15   589.40   593.21   595.86
eigval :      598.86   605.38   608.77   610.23   615.70   615.93
eigval :      620.57   627.56   650.54   661.87   664.16   666.68
eigval :      671.22   676.13   687.30   687.83   695.60   696.72
eigval :      697.10   705.70   715.96   722.47   727.42   752.48
eigval :      756.82   769.04   769.39   776.01   780.09   789.63
eigval :      790.35   804.16   812.96   818.54   842.49   844.62
eigval :      862.41   867.27   867.95   868.32   869.48   870.89
eigval :      872.17   875.04   876.39   877.90   878.06   879.17
eigval :      880.77   891.48   897.27   898.78   900.10   904.59
eigval :      909.56   913.58   914.02   915.06   917.02   919.13
eigval :      920.30   923.19   924.41   926.60   928.96   930.79
eigval :      931.41   932.84   935.20   941.27   943.39   957.83
eigval :      958.88   959.08   959.35   959.36   960.91   961.28
eigval :      961.76   962.43   962.63   963.13   963.45   964.36
eigval :      984.98   999.85  1006.95  1012.57  1030.08  1031.37
eigval :     1032.87  1033.74  1034.18  1034.59  1034.87  1034.91
eigval :     1036.00  1086.07  1086.20  1089.03  1090.74  1101.77
eigval :     1104.71  1117.78  1121.60  1125.60  1131.48  1133.42
eigval :     1137.74  1138.86  1142.76  1143.09  1154.10  1161.82
eigval :     1171.58  1179.26  1179.63  1180.42  1181.21  1182.57
eigval :     1190.58  1194.34  1199.61  1200.17  1203.02  1204.18
eigval :     1210.88  1219.98  1221.33  1221.83  1223.24  1223.78
eigval :     1224.99  1226.59  1227.57  1230.88  1231.19  1231.44
eigval :     1240.97  1244.72  1247.60  1257.40  1260.33  1263.64
eigval :     1264.78  1272.55  1273.33  1276.60  1278.45  1283.79
eigval :     1286.05  1287.11  1292.04  1294.72  1301.88  1303.06
eigval :     1306.39  1314.03  1314.86  1315.72  1320.55  1321.91
eigval :     1328.42  1332.69  1338.64  1340.08  1352.55  1361.47
eigval :     1370.11  1380.98  1395.37  1395.81  1399.55  1401.14
eigval :     1401.93  1402.83  1403.64  1404.13  1406.46  1407.49
eigval :     1407.88  1415.63  1424.47  1425.74  1426.78  1427.42
eigval :     1428.33  1433.00  1435.73  1437.77  1446.19  1458.20
eigval :     1470.44  1472.82  1473.17  1474.91  1478.80  1480.71
eigval :     1483.35  1487.22  1487.82  1488.67  1488.73  1490.44
eigval :     1490.73  1491.06  1491.97  1494.12  1496.25  1498.25
eigval :     1499.08  1500.28  1501.05  1502.02  1502.29  1502.65
eigval :     1508.61  1510.55  1510.89  1511.08  1511.63  1514.91
eigval :     1516.43  1519.00  1520.07  1528.75  1546.43  1554.58
eigval :     1557.30  1562.54  1572.53  1578.73  1583.64  1584.70
eigval :     1587.80  1590.11  1592.98  1598.76  1601.01  3014.75
eigval :     3015.85  3016.23  3016.54  3020.60  3020.71  3020.87
eigval :     3020.96  3021.44  3021.50  3021.80  3021.99  3023.87
eigval :     3024.59  3024.87  3025.50  3025.59  3027.37  3027.79
eigval :     3029.32  3029.56  3029.74  3031.70  3032.80  3033.02
eigval :     3034.11  3037.24  3037.39  3041.28  3044.39  3044.77
eigval :     3046.22  3046.26  3048.30  3049.84  3055.63  3065.04
eigval :     3067.95  3068.33  3072.13  3073.32  3073.40  3074.66
eigval :     3076.04  3076.69  3076.94  3079.26  3079.80  3080.73
eigval :     3081.09  3082.30  3083.36  3083.52  3086.48  3089.44
eigval :     3089.85  3090.30  3091.63  3093.74  3093.97  3095.04
eigval :     3096.04  3096.82  3098.19  3104.20  3106.23  3109.67
eigval :     3112.26  3116.87  3136.11

   temp. (K)  partition function   enthalpy   heat capacity  entropy
                                   cal/mol     cal/K/mol   cal/K/mol   J/K/mol
 298.15  VIB  0.420E+34            42124.627    258.753    263.975
         ROT  0.262E+09              888.752      2.981     41.501
         INT  0.110E+43            43013.379    261.734    305.475
         TR   0.295E+29             1481.254      4.968     46.488
         TOT                       44494.6331   266.7022   351.9637  1472.6162

       T/K    H(0)-H(T)+PV         H(T)/Eh          T*S/Eh         G(T)/Eh
   ------------------------------------------------------------------------
    298.15    0.709067E-01    0.126242E+01    0.167229E+00    0.109519E+01
   ------------------------------------------------------------------------

         :::::::::::::::::::::::::::::::::::::::::::::::::::::
         ::                  THERMODYNAMIC                  ::
         :::::::::::::::::::::::::::::::::::::::::::::::::::::
         :: total free energy        -196.772919916906 Eh   ::
         ::.................................................::
         :: total energy             -197.868106840636 Eh   ::
         :: zero point energy           1.191509527381 Eh   ::
         :: G(RRHO) w/o ZPVE           -0.096322603652 Eh   ::
         :: G(RRHO) contrib.            1.095186923730 Eh   ::
         :::::::::::::::::::::::::::::::::::::::::::::::::::::

           -------------------------------------------------
          | TOTAL ENERGY             -197.868106840636 Eh   |
          | TOTAL ENTHALPY           -196.605690602075 Eh   |
          | TOTAL FREE ENERGY        -196.772919916906 Eh   |
          | GRADIENT NORM               0.000058009909 Eh/α |
          | HOMO-LUMO GAP               0.442173483226 eV   |
           -------------------------------------------------

 * finished run on 2025/09/11 at 15:00:12.466
