   * xtb version 6.7.1 (edcfbbe) compiled by 'albert@albert-system' on 2024-07-22

   ID    Z sym.   atoms
    1    6 C      1-8, 10-19, 21-30, 32-44, 46-75
    2    7 N      9, 31, 45
    3    5 B      20
    4    1 H      76-145

          program call               : xtb data2507/toluene/tDPAC-BN/tDPAC-BN_toluene_S0_crest.xyz --gfn 2 --gbsa toluene --ohess vtight --parallel 40 --molden --ceasefiles --namespace data2507/toluene/tDPAC-BN/tDPAC-BN_toluene_S0_finalOpt
      * Solvation model:               GBSA
        Solvent                        toluene
        Solvent mass                       9.2140E+01 g/mol
          :  Hamiltonian                  GFN2-xTB          :
 * total energy  :  -197.9568856 Eh     change       -0.8300844E-08 Eh
 * total energy  :  -197.9570514 Eh     change       -0.1657950E-03 Eh
 * total energy  :  -197.9572160 Eh     change       -0.1646892E-03 Eh
 * total energy  :  -197.9573202 Eh     change       -0.1041652E-03 Eh
 * total energy  :  -197.9574952 Eh     change       -0.1749792E-03 Eh
 * total energy  :  -197.9577164 Eh     change       -0.2211652E-03 Eh
 * total energy  :  -197.9579235 Eh     change       -0.2071975E-03 Eh
 * total energy  :  -197.9580931 Eh     change       -0.1695365E-03 Eh
 * total energy  :  -197.9582238 Eh     change       -0.1307100E-03 Eh
 * total energy  :  -197.9583133 Eh     change       -0.8945575E-04 Eh
 * total energy  :  -197.9598400 Eh     change       -0.2816758E-06 Eh
 * total energy  :  -197.9598402 Eh     change       -0.2284667E-06 Eh
 * total energy  :  -197.9598404 Eh     change       -0.1801952E-06 Eh
 * total energy  :  -197.9598406 Eh     change       -0.1778029E-06 Eh
 * total energy  :  -197.9598408 Eh     change       -0.1937700E-06 Eh
 * total energy  :  -197.9598410 Eh     change       -0.2668129E-06 Eh
 * total energy  :  -197.9598414 Eh     change       -0.3379743E-06 Eh
 * total energy  :  -197.9598417 Eh     change       -0.3854133E-06 Eh
 * total energy  :  -197.9598418 Eh     change       -0.6427996E-08 Eh
   *** GEOMETRY OPTIMIZATION CONVERGED AFTER 94 ITERATIONS ***

 final structure:
================
145
 xtb: 6.7.1 (edcfbbe)
C           -2.19630372287281       -7.57225903347134       -1.58614252209093
C           -2.84846370748693       -6.44159700794649       -0.77515545279274
C           -4.01094820017083       -5.83491093052216       -1.57498956921598
C           -3.41785820766321       -7.04647553690005        0.51198006928220
C           -1.80004805424540       -5.37102970332649       -0.50970465005310
C           -1.20050307258390       -4.71776079485254       -1.58506549162037
C           -0.21461687191717       -3.76916014823526       -1.39719958534518
C            0.20030987290739       -3.44015955862220       -0.11381751688473
N            1.23723013292951       -2.47472054343850        0.06317794862353
C            2.53069452759649       -2.92064732489211        0.27707162587229
C            2.76094432839775       -4.28864995076780        0.45854122924879
C            4.01385674596554       -4.76783671183464        0.76748623519072
C            5.09665621921225       -3.90437283438236        0.92661405228875
C            6.48573452650300       -4.38016318173455        1.32762977994248
C            6.91035406812360       -3.66511833682931        2.61912530280650
C            7.47453713543863       -4.04641092622013        0.20113024264758
C            6.54203145825719       -5.89000933368179        1.58096070463809
C            4.86623210696114       -2.56002639174757        0.68787503919529
C            3.62478562289770       -2.02723358141296        0.32530274028419
B            3.36205137147016       -0.54334680902817       -0.01718423483689
C            4.33898220634011        0.61238548343741       -0.32959621355460
C            5.70536734815719        0.45705865917181       -0.60437737689675
C            6.57280590764602        1.51035193988997       -0.81912597941354
C            8.05472080654968        1.33412395082196       -1.11857811881405
C            8.48437017294617       -0.13569613742795       -1.13301043607147
C            8.87855066004361        2.05888296297944       -0.04329807875094
C            8.36135024993523        1.93619095283519       -2.49800749698647
C            6.03501431123845        2.79891560144810       -0.75064040119835
C            4.69513745384609        3.00446483699443       -0.53163655523467
C            3.82065973114439        1.92506904328072       -0.35180213622188
N            2.46796638043370        2.17586593336033       -0.21110866902865
C            2.02155024418333        3.52813440895477       -0.10690323013545
C            1.76659321451367        4.29008685325787       -1.23706426727872
C            1.29558072189905        5.58604699327247       -1.11201211842807
C            1.06381643325267        6.15429665850651        0.13585089870739
C            0.53318040245152        7.56822204205754        0.31637395116766
C           -0.78602307103582        7.50906708441174        1.10154698031594
C            1.56725853122713        8.39392507996909        1.09634411910915
C            0.26452143402104        8.27323497608093       -1.01666453189595
C            1.33467289588531        5.37586548084740        1.25962073922961
C            1.80573387807260        4.08251507908056        1.14723915262033
C            1.50544790486621        1.19323870431070       -0.16043196262173
C            0.15455744588643        1.54309793255055       -0.21889729235004
C           -0.81007599844627        0.55520194472145       -0.11256419846253
N           -2.19439856204925        0.86953637268477       -0.15203489919530
C           -2.80050337122998        1.65310544126768        0.81895317790949
C           -2.05373956843751        2.39281105308565        1.73746442026921
C           -2.67474695108845        3.24290545546836        2.63049375636149
C           -4.05200291163176        3.37464657495727        2.62574445730371
C           -4.80340065011222        2.59122873609600        1.76664874924434
C           -4.20083303737970        1.71379679748405        0.87941108457225
C           -5.01073793414676        0.69536009566339        0.09181563769354
C           -4.98515508232974       -0.56278304008643        0.96339834661493
C           -5.51309491070315       -0.51094906861384        2.25059154286495
C           -5.45833588666529       -1.60999983459417        3.08667921770071
C           -4.85720870879839       -2.78210659165229        2.65747383223089
C           -4.32753848032314       -2.84342585639839        1.38189084214431
C           -4.39612939104697       -1.74602532628654        0.53948683061786
C           -6.41936109961414        1.18986816032740       -0.18001612055100
C           -7.54780708691448        0.41850392796090        0.06166518573281
C           -8.81047676158951        0.90428800064164       -0.23785119265317
C           -8.96265802961489        2.16353750307934       -0.79015120027045
C           -7.84078971537511        2.93339252832404       -1.05297005583114
C           -6.58180546065772        2.44820044121462       -0.75414705344284
C           -4.31483943354097        0.43293752247618       -1.22789182698846
C           -5.01632207603861        0.07016852351967       -2.36679971761751
C           -4.35810214270497       -0.24833127275215       -3.54236528172835
C           -2.97493154714353       -0.20220525736409       -3.58345644387346
C           -2.25907965503584        0.16526932725058       -2.46187314051287
C           -2.91662568715211        0.48045722009127       -1.27109886323180
C           -0.45995532200898       -0.78121322937496       -0.00109112231545
C            0.88640429874606       -1.14554697070052        0.00101954151982
C            1.89373132524086       -0.15862088041298       -0.05768334198969
C           -0.40154061779329       -4.06134181459689        0.97003930207141
C           -1.38415472984689       -5.01641867098951        0.76931616344933
H           -1.83088194756083       -7.21288214067418       -2.54418673514403
H           -2.91930266417372       -8.36369050624235       -1.77196244124220
H           -1.35657567374551       -7.99418048630985       -1.03701996781062
H           -4.76391166448379       -6.59550821286321       -1.77082852711699
H           -4.47819333927398       -5.02687459491937       -1.01572491586467
H           -3.67495995724792       -5.43725364572213       -2.52856559697097
H           -2.63790198108836       -7.52619311869886        1.09905487145287
H           -4.15841478257397       -7.80232602568000        0.25817392593788
H           -3.90930416581663       -6.29012631186005        1.11970389720769
H           -1.49619016221989       -4.95419907436656       -2.59565860306929
H            0.24474886211487       -3.28107794893922       -2.24467430489682
H            1.94462424926296       -4.98996746675142        0.37027137778021
H            4.12862923690025       -5.83161868904419        0.90089998784382
H            7.89822134354358       -4.00193376092226        2.92791447012829
H            6.94495417504218       -2.58760848655106        2.48321359891977
H            6.20529404503011       -3.88368484593867        3.41919373664372
H            7.51941505216261       -2.97611481611645        0.02347758868040
H            7.16970262540687       -4.53245040538278       -0.72394489208219
H            8.47346922032263       -4.39194253603578        0.46042202483396
H            5.86007475707723       -6.17862502845608        2.37808854312684
H            6.29474119620197       -6.44858107792430        0.68073136230340
H            7.54980878833998       -6.17012537441537        1.88255719483669
H            5.68067951595785       -1.86415181148505        0.80696814585603
H            6.07242867374678       -0.55219642599993       -0.66923628606111
H            7.94443436586798       -0.69614409539750       -1.89292757909451
H            8.31898812063300       -0.59679581148192       -0.16191622574501
H            9.54730601734672       -0.20202052824507       -1.35819544321869
H            8.66754945508571        3.12482414315164       -0.03211693434601
H            9.94201773589166        1.92544450172213       -0.23254178586330
H            8.65019769081202        1.65631845720981        0.94195988070168
H            7.76876994503522        1.43993159629332       -3.26451085271906
H            9.41500913581635        1.80821751199764       -2.73888719784820
H            8.13265819638697        2.99841694300912       -2.52516967549548
H            6.66852036610971        3.66276727770795       -0.88929609273550
H            4.31524679883459        4.01534637268724       -0.51201242177806
H            1.93439574701215        3.86304088297838       -2.21556491798261
H            1.10650658220254        6.14455556881543       -2.01383859557230
H           -0.63905451026910        7.09792012759083        2.09628087484140
H           -1.50964709412768        6.88529218165987        0.57981074574445
H           -1.20302308454689        8.50846425318202        1.20574192786353
H            1.75399296398661        7.97008686795600        2.07923441566254
H            2.51023114971353        8.42639060499958        0.55381382802447
H            1.20927298849515        9.41289775375832        1.22701895860486
H            1.17699563723966        8.37004402774954       -1.60069622574127
H           -0.11763778332207        9.27392900664045       -0.82526915691873
H           -0.47974740787042        7.73609367889386       -1.60042085346800
H            1.17415818133907        5.77786520725336        2.24808826863786
H            2.00507108448832        3.49181288052182        2.03002471663523
H           -0.14924737826168        2.56744315668844       -0.36406081587688
H           -0.98040142315070        2.29558290809701        1.75680767384295
H           -2.07537519457898        3.80893512431830        3.32847689110670
H           -4.54226031975546        4.05529241981316        3.30553062061574
H           -5.88153336321434        2.65892853265160        1.79528374104451
H           -5.97160677194844        0.40136661787122        2.60198187610309
H           -5.87998701006736       -1.54830485519184        4.07980895294445
H           -4.80306823139980       -3.63783499587540        3.31473103470576
H           -3.84600680581922       -3.74508366672568        1.03316675999001
H           -3.98396231972547       -1.82309788605294       -0.45586985691076
H           -7.44507968497726       -0.57151861751286        0.48140638353199
H           -9.67808544738063        0.29096047285299       -0.04009790193412
H           -9.94800929577650        2.54161912458503       -1.02102870116729
H           -7.94737709068789        3.91428460869588       -1.49369358489760
H           -5.70843466591612        3.04941188554568       -0.96565540949492
H           -6.09444137501261        0.01778989210594       -2.32935498335164
H           -4.92310432948994       -0.53752487111298       -4.41569716048179
H           -2.44853682179637       -0.44785496289307       -4.49442763278659
H           -1.18139100311821        0.21273584774457       -2.50077574574690
H           -1.24137185364959       -1.52050013292299        0.07775524122164
H           -0.09158757900898       -3.80226261860032        1.97229385021436
H           -1.81742825167889       -5.48430106597396        1.63829611774021

          :  Hamiltonian                  GFN2-xTB          :
         :: gradient norm              0.000052973371 Eh/a0 ::
         :: HOMO-LUMO gap              2.367957170263 eV    ::
         :: SCC energy              -201.486302488480 Eh    ::
         :: -> dispersion             -0.210559624167 Eh    ::
         :: -> Gsolv                  -0.070788152248 Eh    ::
         :: repulsion energy           3.526460732834 Eh    ::

    * Orbital Energies and Occupations

         #    Occupation            Energy/Eh            Energy/eV
      -------------------------------------------------------------
         1        2.0000           -0.6628196             -18.0362
       ...           ...                  ...                  ...
       174        2.0000           -0.3973640             -10.8128
       175        2.0000           -0.3952369             -10.7549
       176        2.0000           -0.3949226             -10.7464
       177        2.0000           -0.3909939             -10.6395
       178        2.0000           -0.3889794             -10.5847
       179        2.0000           -0.3877995             -10.5526
       180        2.0000           -0.3870976             -10.5335
       181        2.0000           -0.3856619             -10.4944
       182        2.0000           -0.3743116             -10.1855
       183        2.0000           -0.3740007             -10.1771
       184        2.0000           -0.3574018              -9.7254
       185        2.0000           -0.3444328              -9.3725
       186        2.0000           -0.3392249              -9.2308 (HOMO)
       187                         -0.2522041              -6.8628 (LUMO)
       188                         -0.2286342              -6.2215
       189                         -0.2280852              -6.2065
       190                         -0.2278096              -6.1990
       191                         -0.2266985              -6.1688
       192                         -0.2261483              -6.1538
       193                         -0.2237387              -6.0882
       194                         -0.2223442              -6.0503
       195                         -0.2210394              -6.0148
       196                         -0.2190369              -5.9603
       197                         -0.2182332              -5.9384
       ...                                ...                  ...
       370                          0.7200084              19.5924
      -------------------------------------------------------------
                  HL-Gap            0.0870208 Eh            2.3680 eV

     #   Z          covCN         q      C6AA      α(0)
     1   6 C        3.762    -0.106    22.573     6.773
     2   6 C        3.902     0.027    20.071     6.368
     3   6 C        3.761    -0.105    22.552     6.770
     4   6 C        3.761    -0.107    22.596     6.776
     5   6 C        2.972     0.010    27.786     8.646
     6   6 C        2.927    -0.034    28.850     8.809
     7   6 C        2.921    -0.041    29.010     8.832
     8   6 C        2.932     0.064    26.563     8.452
     9   7 N        2.754    -0.057    22.352     7.022
    10   6 C        2.926     0.057    26.724     8.478
    11   6 C        2.918    -0.060    29.504     8.907
    12   6 C        2.926    -0.040    29.006     8.832
    13   6 C        2.968    -0.007    28.191     8.709
    14   6 C        3.902     0.024    20.119     6.376
    15   6 C        3.761    -0.104    22.526     6.766
    16   6 C        3.761    -0.104    22.526     6.766
    17   6 C        3.761    -0.105    22.547     6.769
    18   6 C        2.932    -0.042    29.042     8.838
    19   6 C        2.886    -0.087    30.172     9.005
    20   5 B        2.724     0.189    18.543     7.216
    21   6 C        2.886    -0.087    30.184     9.007
    22   6 C        2.930    -0.046    29.146     8.854
    23   6 C        2.968    -0.007    28.192     8.709
    24   6 C        3.902     0.024    20.119     6.376
    25   6 C        3.761    -0.104    22.529     6.766
    26   6 C        3.761    -0.103    22.515     6.764
    27   6 C        3.761    -0.103    22.519     6.765
    28   6 C        2.927    -0.036    28.894     8.815
    29   6 C        2.917    -0.059    29.479     8.903
    30   6 C        2.926     0.057    26.722     8.477
    31   7 N        2.755    -0.057    22.338     7.020
    32   6 C        2.933     0.064    26.574     8.454
    33   6 C        2.920    -0.041    29.020     8.834
    34   6 C        2.925    -0.039    28.975     8.827
    35   6 C        2.973     0.011    27.776     8.645
    36   6 C        3.902     0.026    20.079     6.370
    37   6 C        3.761    -0.105    22.559     6.771
    38   6 C        3.761    -0.106    22.576     6.773
    39   6 C        3.761    -0.109    22.625     6.781
    40   6 C        2.927    -0.034    28.838     8.807
    41   6 C        2.920    -0.041    29.013     8.833
    42   6 C        2.930     0.062    26.617     8.461
    43   6 C        2.919    -0.085    30.140     9.003
    44   6 C        2.924     0.065    26.546     8.449
    45   7 N        2.755    -0.080    22.791     7.090
    46   6 C        2.926     0.061    26.636     8.464
    47   6 C        2.922    -0.060    29.496     8.906
    48   6 C        2.920    -0.036    28.886     8.814
    49   6 C        2.917    -0.047    29.169     8.857
    50   6 C        2.923    -0.038    28.954     8.824
    51   6 C        2.994    -0.012    28.299     8.726
    52   6 C        3.922     0.011    20.326     6.407
    53   6 C        2.984     0.012    27.741     8.640
    54   6 C        2.925    -0.035    28.879     8.813
    55   6 C        2.919    -0.032    28.806     8.801
    56   6 C        2.919    -0.034    28.844     8.807
    57   6 C        2.920    -0.033    28.820     8.804
    58   6 C        2.923    -0.036    28.906     8.817
    59   6 C        2.977     0.014    27.701     8.633
    60   6 C        2.923    -0.036    28.906     8.817
    61   6 C        2.919    -0.032    28.796     8.800
    62   6 C        2.919    -0.034    28.844     8.807
    63   6 C        2.919    -0.032    28.787     8.798
    64   6 C        2.926    -0.032    28.806     8.802
    65   6 C        2.986    -0.010    28.268     8.721
    66   6 C        2.923    -0.038    28.956     8.824
    67   6 C        2.918    -0.045    29.128     8.850
    68   6 C        2.919    -0.035    28.871     8.811
    69   6 C        2.923    -0.056    29.404     8.892
    70   6 C        2.936     0.063    26.585     8.456
    71   6 C        2.923    -0.083    30.088     8.995
    72   6 C        2.928     0.063    26.588     8.456
    73   6 C        2.897    -0.110    30.777     9.096
    74   6 C        2.920    -0.040    29.003     8.831
    75   6 C        2.925    -0.038    28.949     8.824
    76   1 H        0.925     0.038     2.476     2.461
    77   1 H        0.925     0.041     2.433     2.439
    78   1 H        0.925     0.034     2.533     2.489
    79   1 H        0.925     0.040     2.445     2.445
    80   1 H        0.925     0.034     2.526     2.485
    81   1 H        0.925     0.037     2.491     2.468
    82   1 H        0.925     0.037     2.487     2.466
    83   1 H        0.925     0.039     2.458     2.452
    84   1 H        0.925     0.036     2.496     2.471
    85   1 H        0.926     0.040     2.453     2.449
    86   1 H        0.926     0.035     2.514     2.479
    87   1 H        0.926     0.018     2.760     2.598
    88   1 H        0.926     0.028     2.608     2.525
    89   1 H        0.925     0.035     2.512     2.479
    90   1 H        0.925     0.036     2.506     2.476
    91   1 H        0.925     0.030     2.588     2.516
    92   1 H        0.925     0.038     2.480     2.463
    93   1 H        0.925     0.030     2.584     2.514
    94   1 H        0.925     0.035     2.514     2.480
    95   1 H        0.925     0.033     2.548     2.496
    96   1 H        0.925     0.033     2.542     2.493
    97   1 H        0.925     0.034     2.527     2.486
    98   1 H        0.926     0.033     2.539     2.492
    99   1 H        0.926     0.039     2.457     2.451
   100   1 H        0.925     0.035     2.514     2.479
   101   1 H        0.925     0.033     2.538     2.492
   102   1 H        0.925     0.035     2.520     2.482
   103   1 H        0.925     0.034     2.537     2.491
   104   1 H        0.925     0.036     2.509     2.477
   105   1 H        0.925     0.031     2.574     2.509
   106   1 H        0.925     0.031     2.573     2.509
   107   1 H        0.925     0.035     2.510     2.477
   108   1 H        0.925     0.034     2.537     2.491
   109   1 H        0.926     0.022     2.706     2.573
   110   1 H        0.926     0.018     2.758     2.597
   111   1 H        0.926     0.037     2.484     2.465
   112   1 H        0.926     0.047     2.358     2.401
   113   1 H        0.925     0.038     2.475     2.460
   114   1 H        0.925     0.033     2.547     2.496
   115   1 H        0.925     0.041     2.435     2.440
   116   1 H        0.925     0.038     2.473     2.459
   117   1 H        0.925     0.034     2.527     2.486
   118   1 H        0.925     0.041     2.430     2.438
   119   1 H        0.925     0.038     2.480     2.463
   120   1 H        0.925     0.040     2.452     2.449
   121   1 H        0.925     0.037     2.491     2.468
   122   1 H        0.926     0.040     2.443     2.444
   123   1 H        0.926     0.035     2.514     2.480
   124   1 H        0.926     0.026     2.648     2.544
   125   1 H        0.926     0.032     2.563     2.504
   126   1 H        0.926     0.028     2.612     2.527
   127   1 H        0.926     0.026     2.646     2.544
   128   1 H        0.926     0.026     2.638     2.540
   129   1 H        0.926     0.031     2.565     2.505
   130   1 H        0.926     0.030     2.587     2.515
   131   1 H        0.926     0.030     2.580     2.512
   132   1 H        0.926     0.032     2.559     2.501
   133   1 H        0.926     0.025     2.657     2.549
   134   1 H        0.926     0.030     2.593     2.518
   135   1 H        0.926     0.030     2.587     2.515
   136   1 H        0.926     0.030     2.583     2.513
   137   1 H        0.926     0.030     2.586     2.515
   138   1 H        0.926     0.026     2.641     2.542
   139   1 H        0.926     0.027     2.634     2.538
   140   1 H        0.926     0.027     2.629     2.536
   141   1 H        0.926     0.029     2.603     2.523
   142   1 H        0.926     0.027     2.632     2.537
   143   1 H        0.926     0.022     2.702     2.571
   144   1 H        0.926     0.037     2.487     2.466
   145   1 H        0.926     0.047     2.362     2.403

molecular dipole:
                 x           y           z       tot (Debye)
 q only:        0.130      -0.010      -0.034
   full:        0.036       0.058      -0.039       0.199

 projected vibrational frequencies (cm⁻¹)
eigval :       -0.00    -0.00    -0.00    -0.00     0.00     0.00
eigval :        8.67    11.17    13.10    15.00    18.55    19.47
eigval :       22.80    26.80    31.61    34.18    35.46    39.12
eigval :       43.13    45.25    48.17    53.32    58.72    63.02
eigval :       66.17    67.89    71.62    73.39    76.48    88.80
eigval :       91.66    93.74    96.31   104.30   107.43   114.32
eigval :      133.03   143.46   144.71   155.42   165.98   170.34
eigval :      173.68   177.00   177.82   179.97   183.80   194.93
eigval :      207.62   214.71   217.75   221.90   224.41   229.31
eigval :      230.45   232.04   237.80   242.03   247.23   249.49
eigval :      254.50   258.17   261.09   271.66   284.47   289.81
eigval :      297.64   302.53   306.48   309.45   311.87   313.11
eigval :      315.64   316.55   323.05   326.03   336.35   348.56
eigval :      353.12   354.44   358.97   362.15   370.90   372.97
eigval :      376.95   379.35   380.05   382.20   382.52   395.56
eigval :      400.47   403.50   406.29   407.89   414.82   419.30
eigval :      426.52   431.98   439.45   447.32   447.77   451.04
eigval :      454.52   462.01   464.94   471.49   474.04   475.63
eigval :      487.11   489.28   501.68   514.67   516.76   521.24
eigval :      526.63   530.32   553.13   555.00   568.51   571.02
eigval :      583.47   588.09   588.58   590.86   594.54   595.44
eigval :      602.26   608.37   611.80   617.64   618.47   623.60
eigval :      628.65   648.64   659.26   665.67   668.24   672.14
eigval :      677.00   687.22   689.84   697.29   698.50   698.71
eigval :      709.29   713.36   718.80   725.02   732.70   753.96
eigval :      757.96   776.46   776.65   778.80   794.03   813.73
eigval :      816.43   822.50   822.93   824.16   846.28   865.54
eigval :      870.15   870.92   871.86   872.65   874.17   879.13
eigval :      879.30   880.17   880.36   881.58   892.92   897.29
eigval :      898.97   902.07   904.86   905.25   911.43   914.13
eigval :      914.59   916.54   918.53   919.12   920.47   923.57
eigval :      924.28   929.54   930.15   930.74   931.24   931.73
eigval :      933.21   934.05   935.84   943.66   947.13   958.91
eigval :      959.06   960.07   960.10   960.87   961.48   961.64
eigval :      962.13   962.71   963.27   963.52   963.69   969.00
eigval :      985.33  1000.45  1011.27  1014.96  1033.42  1033.91
eigval :     1034.37  1034.59  1035.02  1035.35  1035.59  1036.88
eigval :     1044.48  1086.45  1091.19  1096.71  1103.71  1105.81
eigval :     1108.32  1118.65  1125.08  1129.91  1135.08  1138.59
eigval :     1139.19  1142.64  1142.97  1144.41  1160.33  1169.00
eigval :     1178.83  1180.01  1180.93  1181.77  1183.46  1184.48
eigval :     1195.81  1199.27  1201.99  1202.33  1205.60  1212.51
eigval :     1214.74  1222.53  1224.17  1225.58  1225.60  1225.97
eigval :     1229.78  1231.16  1231.30  1231.67  1233.27  1241.96
eigval :     1244.66  1251.65  1260.50  1263.94  1265.07  1273.33
eigval :     1273.71  1277.08  1277.47  1280.96  1287.13  1291.08
eigval :     1293.60  1293.90  1297.02  1305.53  1307.07  1311.03
eigval :     1314.26  1316.01  1316.53  1320.89  1325.07  1330.73
eigval :     1333.84  1338.71  1347.11  1349.89  1378.34  1395.31
eigval :     1395.89  1396.77  1402.04  1402.73  1402.80  1403.22
eigval :     1403.41  1407.23  1407.29  1407.73  1424.58  1426.03
eigval :     1426.67  1427.64  1427.70  1427.91  1429.32  1433.90
eigval :     1438.26  1440.23  1441.81  1455.39  1465.95  1473.40
eigval :     1474.17  1475.90  1485.03  1486.40  1488.12  1488.59
eigval :     1488.68  1489.06  1489.45  1490.51  1491.40  1492.43
eigval :     1493.92  1498.15  1498.89  1499.72  1500.88  1502.54
eigval :     1503.00  1503.20  1503.65  1511.28  1511.30  1511.69
eigval :     1512.13  1515.20  1516.35  1518.52  1520.14  1537.13
eigval :     1542.80  1544.57  1563.08  1568.10  1568.96  1569.62
eigval :     1580.84  1585.42  1585.90  1588.38  1594.53  1598.25
eigval :     1599.12  1600.23  1600.42  1601.26  1602.53  3015.36
eigval :     3016.33  3016.60  3017.04  3021.12  3021.37  3021.52
eigval :     3021.71  3021.83  3021.84  3022.03  3022.30  3025.03
eigval :     3025.09  3025.38  3025.42  3025.95  3027.54  3027.78
eigval :     3029.74  3029.97  3030.03  3031.72  3032.90  3033.07
eigval :     3034.25  3037.63  3038.19  3041.22  3044.85  3044.93
eigval :     3045.52  3045.84  3049.25  3049.55  3054.76  3064.58
eigval :     3067.52  3067.75  3069.81  3070.17  3072.48  3073.97
eigval :     3074.57  3074.75  3075.81  3076.86  3077.75  3079.04
eigval :     3079.54  3082.21  3082.47  3082.83  3085.33  3088.19
eigval :     3089.05  3089.30  3089.79  3092.19  3092.61  3094.39
eigval :     3095.98  3101.83  3103.35  3105.68  3106.64  3109.42
eigval :     3112.65  3116.61  3135.48

   temp. (K)  partition function   enthalpy   heat capacity  entropy
                                   cal/mol     cal/K/mol   cal/K/mol   J/K/mol
 298.15  VIB  0.455E+33            41801.479    257.204    260.664
         ROT  0.262E+09              888.752      2.981     41.504
         INT  0.119E+42            42690.232    260.185    302.168
         TR   0.295E+29             1481.254      4.968     46.488
         TOT                       44171.4857   265.1528   348.6566  1458.7792

       T/K    H(0)-H(T)+PV         H(T)/Eh          T*S/Eh         G(T)/Eh
   ------------------------------------------------------------------------
    298.15    0.703917E-01    0.126629E+01    0.165658E+00    0.110064E+01
   ------------------------------------------------------------------------

         :::::::::::::::::::::::::::::::::::::::::::::::::::::
         ::                  THERMODYNAMIC                  ::
         :::::::::::::::::::::::::::::::::::::::::::::::::::::
         :: total free energy        -196.859205947781 Eh   ::
         ::.................................................::
         :: total energy             -197.959841750194 Eh   ::
         :: zero point energy           1.195902058822 Eh   ::
         :: G(RRHO) w/o ZPVE           -0.095266256409 Eh   ::
         :: G(RRHO) contrib.            1.100635802414 Eh   ::
         :::::::::::::::::::::::::::::::::::::::::::::::::::::

           -------------------------------------------------
          | TOTAL ENERGY             -197.959841750194 Eh   |
          | TOTAL ENTHALPY           -196.693547948317 Eh   |
          | TOTAL FREE ENERGY        -196.859205947781 Eh   |
          | GRADIENT NORM               0.000052955819 Eh/α |
          | HOMO-LUMO GAP               2.367956275886 eV   |
           -------------------------------------------------

 * finished run on 2025/09/11 at 14:58:54.269
