   * xtb version 6.7.1 (edcfbbe) compiled by 'albert@albert-system' on 2024-07-22

   ID    Z sym.   atoms
    1    6 C      1-8, 10-19, 21-30, 32-44, 46-75
    2    7 N      9, 31, 45
    3    5 B      20
    4    1 H      76-145

          program call               : xtb data2507/toluene/tDPAC-BN/tDPAC-BN.xyz --gfn 2 --gbsa toluene --ohess vtight --parallel 40 --molden --ceasefiles --namespace data2507/toluene/tDPAC-BN/tDPAC-BN_toluene_S0_preOpt
      * Solvation model:               GBSA
        Solvent                        toluene
        Solvent mass                       9.2140E+01 g/mol
          :  Hamiltonian                  GFN2-xTB          :
 * total energy  :  -197.8271298 Eh     change       -0.5257533E-08 Eh
 * total energy  :  -197.8947079 Eh     change       -0.6757806E-01 Eh
 * total energy  :  -197.9205539 Eh     change       -0.2584595E-01 Eh
 * total energy  :  -197.9303378 Eh     change       -0.9783977E-02 Eh
 * total energy  :  -197.9358524 Eh     change       -0.5514540E-02 Eh
 * total energy  :  -197.9397772 Eh     change       -0.3924834E-02 Eh
 * total energy  :  -197.9430300 Eh     change       -0.3252764E-02 Eh
 * total energy  :  -197.9459057 Eh     change       -0.2875675E-02 Eh
 * total energy  :  -197.9483613 Eh     change       -0.2455657E-02 Eh
 * total energy  :  -197.9503146 Eh     change       -0.1953302E-02 Eh
 * total energy  :  -197.9593298 Eh     change       -0.4530409E-06 Eh
 * total energy  :  -197.9593303 Eh     change       -0.4506124E-06 Eh
 * total energy  :  -197.9593307 Eh     change       -0.4735647E-06 Eh
 * total energy  :  -197.9593312 Eh     change       -0.4832181E-06 Eh
 * total energy  :  -197.9593317 Eh     change       -0.4577977E-06 Eh
 * total energy  :  -197.9593321 Eh     change       -0.4474471E-06 Eh
 * total energy  :  -197.9593326 Eh     change       -0.4752590E-06 Eh
 * total energy  :  -197.9593331 Eh     change       -0.4970250E-06 Eh
 * total energy  :  -197.9593331 Eh     change       -0.5260546E-08 Eh
   *** GEOMETRY OPTIMIZATION CONVERGED AFTER 152 ITERATIONS ***

 final structure:
================
145
 xtb: 6.7.1 (edcfbbe)
C           -0.35862600982527       -8.22328410893629        0.52751387408543
C           -0.05572047618440       -7.49594487868225       -0.78611216844694
C            0.97197317805230       -8.32776961046964       -1.56809526179338
C           -1.36140697564493       -7.39244626420867       -1.58856656387375
C            0.50267891895685       -6.09796105553090       -0.56735450690609
C            0.83330071520160       -5.31079742325028       -1.66906260825476
C            1.34528622003921       -4.03606780757611       -1.52164610802873
C            1.54301194330186       -3.51135614099991       -0.25224791734914
N            2.05986342304347       -2.18917432190828       -0.09490059608305
C            3.42059328755060       -2.03273980241450        0.10034723512834
C            4.23135456546595       -3.17309288421928        0.17170657342426
C            5.57375842488159       -3.06968990011698        0.44178929456761
C            6.17553764967247       -1.83053876577151        0.67799082374141
C            7.65179486417042       -1.77525203811476        1.04337171602591
C            8.15794082548855       -0.34431289172756        1.24657111309866
C            8.47757649617987       -2.41542972780795       -0.08273727525028
C            7.86868538150547       -2.55113659367294        2.35130371796867
C            5.37231292778808       -0.71245981760887        0.56571876086122
C            4.00900317827072       -0.75777381484273        0.24005333613115
B            3.10317826207635        0.47940866411351        0.04937685188226
C            3.45838121054788        1.97330159431509       -0.12120180980166
C            4.73856606007944        2.46959058978704       -0.38915633888966
C            5.04615946301915        3.81559979811031       -0.49435243939350
C            6.47608520605595        4.24950065768816       -0.78444033855401
C            6.62285283068964        5.77120074053919       -0.88346825223023
C            6.92988002733868        3.63974916537284       -2.11917727285202
C            7.38750885078858        3.75443060932928        0.34815127671777
C            3.99964847559773        4.71851541321430       -0.31289166064717
C            2.71278002754294        4.28112182927630       -0.09586123411817
C            2.41081747591157        2.91652245022576       -0.02836947655223
N            1.09047954401779        2.52649496120302        0.11824053802163
C            0.09310925529808        3.54535989005808        0.20605678592743
C           -0.45282446012073        4.09223442386031       -0.94812948310163
C           -1.41215262692015        5.08078176392971       -0.85679446950624
C           -1.86098391407770        5.55095096703197        0.37638793202639
C           -2.91253945786787        6.64893458486126        0.41818983130863
C           -4.16087053877593        6.17503016993053       -0.34069924791012
C           -3.33030100495071        7.01097840353570        1.84648141932514
C           -2.34165036553347        7.90851113073201       -0.25067148190670
C           -1.30852788196023        4.98656125554054        1.52028260163296
C           -0.34313882334315        3.99653825788877        1.44128913487235
C            0.66423128957686        1.21989790206813        0.06934010345572
C           -0.70317559644405        0.93173288345405        0.07920245701193
C           -1.12126173963882       -0.38403211464501       -0.00525262421133
N           -2.52174974780669       -0.65063648582444       -0.01721316638911
C           -3.11699551328405       -1.26869735303681        1.07063056831864
C           -2.35462504430064       -1.71784223154493        2.15161172494217
C           -2.94718601964924       -2.38145231489282        3.20694914870101
C           -4.31249363928884       -2.60960571542485        3.20883788354812
C           -5.08093159127875       -2.12491834778101        2.16460131936663
C           -4.50721960973337       -1.44471122144010        1.10095841284468
C           -5.36952757962463       -0.79088206369523        0.03816298071882
C           -6.63767935090225       -1.61085341223687       -0.14156254821280
C           -7.89666344687621       -1.15181916802259        0.21890382116620
C           -9.01319003260485       -1.95621492409284        0.05447987098427
C           -8.88668969711039       -3.23116030459184       -0.46693612769735
C           -7.63179047834307       -3.70309835214764       -0.81788281495007
C           -6.51901818088797       -2.90078755154410       -0.65332529319018
C           -5.68174281560840        0.65413059291996        0.44163941704217
C           -6.28718350653614        1.50976608183261       -0.47440105511414
C           -6.60495320800071        2.81087205044694       -0.13161079415037
C           -6.31666633346799        3.28805413773477        1.13632862708584
C           -5.69950841999505        2.45258863885357        2.04943191717612
C           -5.38549270402906        1.14789118699984        1.70572019078724
C           -4.59018998214444       -0.72970182865691       -1.26359723491078
C           -5.23117946129056       -0.74634943770538       -2.49329485191278
C           -4.53118816569179       -0.56402806891232       -3.67342141429891
C           -3.16340161496421       -0.35716947880033       -3.62695653473995
C           -2.50119092174293       -0.37149722806497       -2.41632761871476
C           -3.20009300372232       -0.56906991869512       -1.22316238772142
C           -0.21540349259794       -1.42832304669550       -0.09125843494150
C            1.15312633000364       -1.15516726350862       -0.05159363298606
C            1.61434199073911        0.17679912685144        0.02206775582015
C            1.21774333169750       -4.27858471343586        0.85634427452750
C            0.70521568774417       -5.55422566351824        0.69641275610036
H            0.54177077402809       -8.34380570901786        1.12574599204125
H           -0.75073934625700       -9.21456660447422        0.30913976529604
H           -1.10629342424180       -7.68803501353602        1.10868280345277
H            0.59701258164648       -9.33781160805188       -1.71883312233063
H            1.17745304504769       -7.89268104620646       -2.54220603204011
H            1.90792110134846       -8.38609757081324       -1.01572336149825
H           -1.78634584495475       -8.38265815045339       -1.73845309635963
H           -1.19471862839336       -6.94287125996594       -2.56363139795688
H           -2.08659020115069       -6.78347004051840       -1.05173062318669
H            0.69076141579637       -5.69176427188236       -2.66868434289817
H            1.59388579362621       -3.44042103850489       -2.38815298229408
H            3.79996310319572       -4.15246153717004        0.02636789840447
H            6.15626914723283       -3.97794739177136        0.49067651897692
H            9.21370654535598       -0.36592100035093        1.51075795546155
H            8.05386192491000        0.23661475192989        0.33300971353033
H            7.62057311010289        0.15272466947380        2.05114717810551
H            9.53850907412582       -2.36542451283143        0.15491145712228
H            8.30846655349319       -1.88822959145510       -1.01999737636263
H            8.21153476411246       -3.45909888327606       -0.22706088462190
H            7.26884588498519       -2.11687495547072        3.14915541192071
H            7.58572093713089       -3.59496134527661        2.24290947376693
H            8.91603654661909       -2.51032783455518        2.64455854727504
H            5.79020572026179        0.25932245600124        0.76094095980405
H            5.52169893757890        1.74547416345143       -0.54263001825107
H            6.35177308610778        6.25292198790520        0.05357411029870
H            6.00423352814977        6.17334608333218       -1.68297452213642
H            7.65936957666192        6.02230156888016       -1.10159247333546
H            6.89339691452901        2.55407481979180       -2.09233922535582
H            7.95166553406355        3.94147033471008       -2.34164623257309
H            6.28531436324588        3.98118476401780       -2.92727716387974
H            8.41502707677754        4.06562178920665        0.16966992037327
H            7.36742399330408        2.67137277397163        0.42280395828348
H            7.06179532119373        4.16738981509875        1.30118039043949
H            4.17078166052486        5.78215725282186       -0.35651890991050
H            1.92613725083244        5.01339342998037        0.00969108648109
H           -0.11726590710632        3.74047131037604       -1.91317841003682
H           -1.81380187072971        5.48945895721617       -1.77120436075212
H           -4.52816664697732        5.24376328015385        0.08558034448369
H           -3.94830993949562        6.00523217333262       -1.39249504351680
H           -4.94693483066710        6.92405227432642       -0.27115630416329
H           -3.74809082151348        6.14856273065513        2.36054441991114
H           -2.48752744531614        7.39434585478126        2.41726416251670
H           -4.09271710761175        7.78680236565167        1.81467687258227
H           -1.44775603732986        8.24203590020277        0.27312022173482
H           -3.07605916634350        8.71075860440693       -0.22477483371669
H           -2.07823226294817        7.72076475579363       -1.28805642905153
H           -1.62073586787780        5.31114050010468        2.49899343277129
H            0.07720040879886        3.57165838479732        2.34148587372863
H           -1.44495450419062        1.71289329024935        0.13217315048223
H           -1.29104675584356       -1.53906262313566        2.16327453952469
H           -2.33640445574290       -2.72175063513391        4.03066879184081
H           -4.78128262574324       -3.13537967752288        4.02706008208389
H           -6.15276036282443       -2.25834161906881        2.18641343276816
H           -8.01275412275113       -0.16213849664088        0.63537654695307
H           -9.98591126244075       -1.58116308192012        0.33938657279504
H           -9.75851230214636       -3.85619321520889       -0.59503384020261
H           -7.52011472239536       -4.69999474267073       -1.21967342840497
H           -5.54094298563362       -3.27331537699276       -0.92493903311048
H           -6.52132351727841        1.15297554672890       -1.46581455771911
H           -7.08206396630098        3.45378467404189       -0.85742739651382
H           -6.57567868763012        4.30057589558773        1.40962526495650
H           -5.46368296954788        2.81125985110387        3.04140478105225
H           -4.91315404338672        0.51233009904837        2.43954446431108
H           -6.29955263739380       -0.90614070558842       -2.53110212975178
H           -5.05327605472423       -0.57391161541435       -4.61852551728213
H           -2.60486622018197       -0.19856636812715       -4.53808463725852
H           -1.43073931506295       -0.23662869156238       -2.38763770223438
H           -0.58536977042223       -2.43849302791468       -0.17070017594817
H            1.37010835316990       -3.87314241100544        1.84635241924146
H            0.46461071684354       -6.11757732050999        1.58267204918643

          :  Hamiltonian                  GFN2-xTB          :
         :: gradient norm              0.000050868972 Eh/a0 ::
         :: HOMO-LUMO gap              2.370941923074 eV    ::
         :: SCC energy              -201.485005380166 Eh    ::
         :: -> dispersion             -0.206283444059 Eh    ::
         :: -> Gsolv                  -0.072303940009 Eh    ::
         :: repulsion energy           3.525672267811 Eh    ::

    * Orbital Energies and Occupations

         #    Occupation            Energy/Eh            Energy/eV
      -------------------------------------------------------------
         1        2.0000           -0.6628506             -18.0371
       ...           ...                  ...                  ...
       174        2.0000           -0.3970262             -10.8036
       175        2.0000           -0.3951438             -10.7524
       176        2.0000           -0.3942823             -10.7290
       177        2.0000           -0.3918042             -10.6615
       178        2.0000           -0.3900395             -10.6135
       179        2.0000           -0.3878785             -10.5547
       180        2.0000           -0.3872861             -10.5386
       181        2.0000           -0.3853977             -10.4872
       182        2.0000           -0.3752299             -10.2105
       183        2.0000           -0.3748205             -10.1994
       184        2.0000           -0.3576259              -9.7315
       185        2.0000           -0.3448657              -9.3843
       186        2.0000           -0.3397875              -9.2461 (HOMO)
       187                         -0.2526570              -6.8751 (LUMO)
       188                         -0.2286759              -6.2226
       189                         -0.2271704              -6.1816
       190                         -0.2267284              -6.1696
       191                         -0.2263507              -6.1593
       192                         -0.2258756              -6.1464
       193                         -0.2239816              -6.0949
       194                         -0.2226877              -6.0596
       195                         -0.2205600              -6.0017
       196                         -0.2189740              -5.9586
       197                         -0.2180568              -5.9336
       ...                                ...                  ...
       370                          0.7186704              19.5560
      -------------------------------------------------------------
                  HL-Gap            0.0871305 Eh            2.3709 eV

     #   Z          covCN         q      C6AA      α(0)
     1   6 C        3.761    -0.109    22.626     6.781
     2   6 C        3.902     0.026    20.080     6.370
     3   6 C        3.761    -0.106    22.578     6.774
     4   6 C        3.761    -0.105    22.562     6.771
     5   6 C        2.972     0.010    27.781     8.646
     6   6 C        2.927    -0.035    28.859     8.810
     7   6 C        2.920    -0.041    29.025     8.835
     8   6 C        2.933     0.064    26.570     8.454
     9   7 N        2.755    -0.056    22.329     7.018
    10   6 C        2.927     0.057    26.721     8.477
    11   6 C        2.918    -0.059    29.478     8.903
    12   6 C        2.927    -0.036    28.890     8.815
    13   6 C        2.968    -0.007    28.188     8.709
    14   6 C        3.902     0.024    20.118     6.376
    15   6 C        3.761    -0.104    22.532     6.767
    16   6 C        3.761    -0.103    22.517     6.764
    17   6 C        3.761    -0.103    22.520     6.765
    18   6 C        2.930    -0.046    29.147     8.854
    19   6 C        2.886    -0.087    30.179     9.006
    20   5 B        2.724     0.189    18.538     7.215
    21   6 C        2.886    -0.087    30.167     9.005
    22   6 C        2.932    -0.042    29.043     8.838
    23   6 C        2.968    -0.007    28.181     8.708
    24   6 C        3.902     0.024    20.118     6.376
    25   6 C        3.761    -0.105    22.549     6.769
    26   6 C        3.761    -0.104    22.528     6.766
    27   6 C        3.761    -0.104    22.530     6.766
    28   6 C        2.926    -0.040    28.997     8.831
    29   6 C        2.918    -0.060    29.493     8.906
    30   6 C        2.927     0.057    26.726     8.478
    31   7 N        2.754    -0.056    22.320     7.017
    32   6 C        2.933     0.064    26.574     8.454
    33   6 C        2.920    -0.040    29.006     8.832
    34   6 C        2.927    -0.035    28.861     8.810
    35   6 C        2.973     0.010    27.779     8.645
    36   6 C        3.903     0.026    20.080     6.370
    37   6 C        3.761    -0.106    22.570     6.772
    38   6 C        3.761    -0.108    22.618     6.780
    39   6 C        3.761    -0.106    22.570     6.772
    40   6 C        2.925    -0.039    28.964     8.826
    41   6 C        2.920    -0.041    29.029     8.835
    42   6 C        2.927     0.063    26.584     8.455
    43   6 C        2.921    -0.083    30.084     8.995
    44   6 C        2.926     0.066    26.523     8.446
    45   7 N        2.755    -0.082    22.842     7.098
    46   6 C        2.929     0.063    26.586     8.456
    47   6 C        2.922    -0.059    29.474     8.903
    48   6 C        2.919    -0.035    28.883     8.813
    49   6 C        2.917    -0.047    29.173     8.857
    50   6 C        2.924    -0.038    28.956     8.825
    51   6 C        2.985    -0.012    28.302     8.727
    52   6 C        3.921     0.011    20.337     6.409
    53   6 C        2.978     0.014    27.691     8.632
    54   6 C        2.922    -0.037    28.917     8.819
    55   6 C        2.920    -0.032    28.795     8.800
    56   6 C        2.919    -0.034    28.845     8.807
    57   6 C        2.919    -0.031    28.784     8.798
    58   6 C        2.926    -0.032    28.798     8.801
    59   6 C        2.978     0.012    27.750     8.641
    60   6 C        2.925    -0.036    28.897     8.816
    61   6 C        2.919    -0.032    28.804     8.801
    62   6 C        2.919    -0.034    28.857     8.809
    63   6 C        2.920    -0.032    28.799     8.800
    64   6 C        2.924    -0.037    28.922     8.819
    65   6 C        2.987    -0.011    28.293     8.725
    66   6 C        2.923    -0.037    28.932     8.821
    67   6 C        2.917    -0.047    29.166     8.856
    68   6 C        2.919    -0.035    28.878     8.812
    69   6 C        2.923    -0.058    29.443     8.898
    70   6 C        2.933     0.062    26.610     8.460
    71   6 C        2.920    -0.084    30.095     8.996
    72   6 C        2.928     0.062    26.609     8.459
    73   6 C        2.897    -0.109    30.768     9.095
    74   6 C        2.920    -0.040    29.003     8.831
    75   6 C        2.925    -0.039    28.967     8.826
    76   1 H        0.925     0.038     2.479     2.462
    77   1 H        0.925     0.040     2.450     2.448
    78   1 H        0.925     0.037     2.489     2.467
    79   1 H        0.925     0.041     2.430     2.438
    80   1 H        0.925     0.038     2.471     2.458
    81   1 H        0.925     0.034     2.526     2.485
    82   1 H        0.925     0.041     2.431     2.438
    83   1 H        0.925     0.038     2.478     2.462
    84   1 H        0.925     0.033     2.550     2.497
    85   1 H        0.926     0.040     2.443     2.444
    86   1 H        0.926     0.037     2.491     2.468
    87   1 H        0.926     0.018     2.759     2.597
    88   1 H        0.926     0.022     2.702     2.571
    89   1 H        0.925     0.035     2.519     2.482
    90   1 H        0.925     0.034     2.535     2.490
    91   1 H        0.925     0.035     2.513     2.479
    92   1 H        0.925     0.036     2.508     2.477
    93   1 H        0.925     0.031     2.571     2.508
    94   1 H        0.925     0.034     2.536     2.490
    95   1 H        0.925     0.031     2.573     2.509
    96   1 H        0.925     0.034     2.536     2.491
    97   1 H        0.925     0.036     2.509     2.477
    98   1 H        0.926     0.040     2.450     2.448
    99   1 H        0.926     0.034     2.525     2.485
   100   1 H        0.925     0.033     2.541     2.493
   101   1 H        0.925     0.033     2.547     2.496
   102   1 H        0.925     0.034     2.525     2.485
   103   1 H        0.925     0.036     2.505     2.475
   104   1 H        0.925     0.036     2.509     2.477
   105   1 H        0.925     0.030     2.587     2.515
   106   1 H        0.925     0.035     2.513     2.479
   107   1 H        0.925     0.038     2.478     2.461
   108   1 H        0.925     0.030     2.583     2.513
   109   1 H        0.926     0.029     2.601     2.522
   110   1 H        0.926     0.018     2.759     2.597
   111   1 H        0.926     0.036     2.503     2.474
   112   1 H        0.926     0.040     2.449     2.447
   113   1 H        0.925     0.035     2.515     2.480
   114   1 H        0.925     0.037     2.494     2.470
   115   1 H        0.925     0.041     2.441     2.443
   116   1 H        0.925     0.037     2.484     2.465
   117   1 H        0.925     0.037     2.484     2.464
   118   1 H        0.925     0.040     2.453     2.449
   119   1 H        0.925     0.034     2.530     2.487
   120   1 H        0.925     0.042     2.428     2.437
   121   1 H        0.925     0.038     2.480     2.463
   122   1 H        0.926     0.048     2.350     2.397
   123   1 H        0.926     0.037     2.485     2.465
   124   1 H        0.926     0.023     2.684     2.562
   125   1 H        0.926     0.029     2.606     2.524
   126   1 H        0.926     0.028     2.622     2.532
   127   1 H        0.926     0.025     2.661     2.551
   128   1 H        0.926     0.025     2.656     2.548
   129   1 H        0.926     0.029     2.601     2.522
   130   1 H        0.926     0.030     2.587     2.515
   131   1 H        0.926     0.030     2.580     2.512
   132   1 H        0.926     0.030     2.581     2.512
   133   1 H        0.925     0.025     2.659     2.550
   134   1 H        0.926     0.033     2.548     2.496
   135   1 H        0.926     0.032     2.563     2.504
   136   1 H        0.926     0.033     2.544     2.494
   137   1 H        0.926     0.029     2.603     2.523
   138   1 H        0.926     0.027     2.624     2.533
   139   1 H        0.926     0.026     2.637     2.539
   140   1 H        0.926     0.026     2.646     2.544
   141   1 H        0.926     0.028     2.618     2.530
   142   1 H        0.926     0.026     2.639     2.540
   143   1 H        0.926     0.023     2.689     2.564
   144   1 H        0.926     0.037     2.495     2.470
   145   1 H        0.926     0.047     2.354     2.399

molecular dipole:
                 x           y           z       tot (Debye)
 q only:        0.228       0.116      -0.047
   full:        0.108       0.025      -0.071       0.335

 projected vibrational frequencies (cm⁻¹)
eigval :       -0.00    -0.00    -0.00    -0.00     0.00     0.00
eigval :        6.52     6.91    11.45    13.98    16.70    19.18
eigval :       23.52    24.71    27.81    31.45    32.97    36.11
eigval :       40.73    42.26    46.85    53.60    55.68    60.25
eigval :       62.80    66.46    68.44    71.59    74.91    85.19
eigval :       88.81    93.68    95.68    99.45   110.44   111.51
eigval :      134.26   144.71   148.36   152.70   167.56   175.13
eigval :      178.50   179.47   181.72   183.34   186.71   192.18
eigval :      202.28   218.35   220.85   221.11   226.44   229.15
eigval :      232.61   232.77   235.64   242.14   246.50   250.68
eigval :      254.30   257.87   261.39   272.05   283.46   290.21
eigval :      297.25   301.64   303.69   309.30   310.58   312.59
eigval :      314.85   316.57   317.21   324.84   337.40   350.92
eigval :      351.97   353.94   358.21   361.96   369.03   370.74
eigval :      373.84   378.96   379.63   380.85   382.35   394.06
eigval :      399.37   400.57   406.80   410.09   414.83   419.33
eigval :      426.79   431.84   444.78   447.70   448.61   451.31
eigval :      451.87   461.72   464.54   471.23   473.68   474.44
eigval :      485.47   490.30   502.24   515.91   519.32   520.36
eigval :      526.97   529.87   552.33   554.87   567.20   570.47
eigval :      584.11   587.97   588.48   589.07   595.17   596.22
eigval :      602.61   606.47   613.02   617.41   617.78   621.76
eigval :      628.55   652.12   659.47   665.55   667.51   673.08
eigval :      676.79   684.70   688.11   694.29   698.42   698.83
eigval :      710.04   712.28   718.81   725.54   732.48   754.43
eigval :      757.79   774.20   776.86   778.70   794.05   815.89
eigval :      816.46   818.68   821.34   823.06   841.60   865.47
eigval :      868.22   868.78   870.64   872.52   872.85   873.72
eigval :      874.96   875.74   879.90   881.01   893.60   896.62
eigval :      899.01   900.71   903.61   905.16   912.28   914.29
eigval :      915.53   916.91   917.24   918.19   921.12   921.26
eigval :      928.39   929.35   929.80   930.60   931.06   931.70
eigval :      933.33   933.73   934.25   944.60   946.42   959.08
eigval :      959.50   959.70   960.19   960.88   961.01   962.03
eigval :      962.13   962.52   963.03   964.24   964.55   968.87
eigval :      985.16   998.91  1011.39  1015.21  1033.28  1034.22
eigval :     1034.93  1035.08  1035.21  1035.50  1036.00  1036.25
eigval :     1044.33  1087.90  1091.51  1097.35  1105.36  1106.73
eigval :     1107.68  1120.21  1125.84  1131.06  1135.45  1138.72
eigval :     1139.27  1142.26  1143.61  1144.09  1160.63  1169.27
eigval :     1180.29  1181.18  1181.31  1182.53  1183.12  1185.87
eigval :     1196.69  1198.74  1202.61  1203.27  1207.81  1213.48
eigval :     1214.77  1222.61  1225.46  1225.69  1226.07  1226.33
eigval :     1228.51  1231.37  1231.76  1231.81  1232.06  1236.20
eigval :     1244.02  1251.97  1259.81  1263.53  1266.59  1273.16
eigval :     1273.93  1277.75  1277.89  1281.26  1288.64  1291.51
eigval :     1291.93  1294.48  1296.59  1307.21  1307.53  1310.28
eigval :     1314.44  1315.83  1316.13  1319.03  1326.58  1332.69
eigval :     1333.97  1339.34  1344.77  1348.24  1378.22  1395.52
eigval :     1396.13  1396.43  1401.82  1402.56  1403.11  1403.35
eigval :     1403.48  1406.86  1407.32  1407.52  1424.70  1426.24
eigval :     1426.74  1427.25  1427.45  1428.34  1428.69  1432.69
eigval :     1438.03  1440.08  1441.12  1455.91  1469.03  1473.35
eigval :     1473.60  1475.22  1485.57  1486.94  1488.40  1489.05
eigval :     1489.09  1489.65  1490.74  1490.87  1492.20  1492.97
eigval :     1493.44  1498.96  1499.44  1500.41  1500.53  1502.69
eigval :     1503.09  1503.88  1504.22  1510.06  1510.84  1511.46
eigval :     1511.63  1516.44  1516.57  1518.09  1519.17  1537.84
eigval :     1543.21  1545.83  1563.41  1568.74  1569.42  1569.71
eigval :     1581.68  1585.31  1586.08  1587.65  1594.77  1597.67
eigval :     1599.03  1600.36  1601.11  1601.29  1602.32  3015.34
eigval :     3015.45  3016.28  3017.31  3020.76  3020.99  3021.50
eigval :     3021.58  3021.88  3022.25  3022.47  3022.84  3024.72
eigval :     3025.45  3025.60  3025.62  3026.50  3028.07  3028.27
eigval :     3029.79  3030.03  3031.55  3031.83  3033.17  3033.75
eigval :     3033.92  3037.76  3038.33  3041.02  3044.54  3044.62
eigval :     3044.78  3045.00  3048.52  3048.56  3055.42  3065.42
eigval :     3066.17  3068.36  3069.63  3070.77  3071.00  3071.09
eigval :     3071.81  3074.99  3077.11  3077.68  3078.06  3079.39
eigval :     3079.89  3081.84  3083.68  3084.15  3086.36  3086.48
eigval :     3090.16  3091.20  3092.74  3092.87  3094.35  3096.79
eigval :     3098.34  3101.21  3102.48  3103.66  3104.47  3109.06
eigval :     3117.30  3117.81  3138.01

   temp. (K)  partition function   enthalpy   heat capacity  entropy
                                   cal/mol     cal/K/mol   cal/K/mol   J/K/mol
 298.15  VIB  0.284E+34            41874.108    256.699    262.141
         ROT  0.268E+09              888.752      2.981     41.544
         INT  0.761E+42            42762.861    259.680    303.685
         TR   0.295E+29             1481.254      4.968     46.488
         TOT                       44244.1147   264.6481   350.1731  1465.1242

       T/K    H(0)-H(T)+PV         H(T)/Eh          T*S/Eh         G(T)/Eh
   ------------------------------------------------------------------------
    298.15    0.705075E-01    0.126628E+01    0.166379E+00    0.109990E+01
   ------------------------------------------------------------------------

         :::::::::::::::::::::::::::::::::::::::::::::::::::::
         ::                  THERMODYNAMIC                  ::
         :::::::::::::::::::::::::::::::::::::::::::::::::::::
         :: total free energy        -196.859433464790 Eh   ::
         ::.................................................::
         :: total energy             -197.959333109772 Eh   ::
         :: zero point energy           1.195770689157 Eh   ::
         :: G(RRHO) w/o ZPVE           -0.095871044175 Eh   ::
         :: G(RRHO) contrib.            1.099899644982 Eh   ::
         :::::::::::::::::::::::::::::::::::::::::::::::::::::

           -------------------------------------------------
          | TOTAL ENERGY             -197.959333109772 Eh   |
          | TOTAL ENTHALPY           -196.693054935891 Eh   |
          | TOTAL FREE ENERGY        -196.859433464790 Eh   |
          | GRADIENT NORM               0.000050865879 Eh/α |
          | HOMO-LUMO GAP               2.370942748214 eV   |
           -------------------------------------------------

 * finished run on 2025/09/11 at 13:48:56.508
