   * xtb version 6.7.1 (edcfbbe) compiled by 'albert@albert-system' on 2024-07-22

   ID    Z sym.   atoms
    1    6 C      1, 3-7, 9-15, 17-32
    2    7 N      2, 8, 16
    3    1 H      33-57

          program call               : xtb data2507/gas/InDM/InDM_gas_S0_crest.xyz --gfn 2 --ohess vtight --parallel 40 --molden --ceasefiles --namespace data2507/gas/InDM/InDM_gas_S0_finalOpt
          :  Hamiltonian                  GFN2-xTB          :
 * total energy  :   -83.6307002 Eh     change       -0.1278934E-08 Eh
 * total energy  :   -83.6307007 Eh     change       -0.5489298E-06 Eh
 * total energy  :   -83.6307012 Eh     change       -0.4316239E-06 Eh
 * total energy  :   -83.6307023 Eh     change       -0.1160819E-05 Eh
 * total energy  :   -83.6307030 Eh     change       -0.6982784E-06 Eh
 * total energy  :   -83.6307033 Eh     change       -0.2457882E-06 Eh
 * total energy  :   -83.6307035 Eh     change       -0.1948074E-06 Eh
 * total energy  :   -83.6307037 Eh     change       -0.2395253E-06 Eh
 * total energy  :   -83.6307039 Eh     change       -0.2195959E-06 Eh
 * total energy  :   -83.6307041 Eh     change       -0.1796881E-06 Eh
 * total energy  :   -83.6307043 Eh     change       -0.1610139E-06 Eh
 * total energy  :   -83.6307044 Eh     change       -0.9407327E-07 Eh
   *** GEOMETRY OPTIMIZATION CONVERGED AFTER 12 ITERATIONS ***

 final structure:
================
57
 xtb: 6.7.1 (edcfbbe)
C            5.59317939199297        2.68731996030133        0.74852015181584
N            5.19033953068688        1.61185155337694       -0.12185539646929
C            6.17933257565744        1.02339811487114       -0.99021347764276
C            3.91663145100239        1.11264718421013       -0.07621651126849
C            3.46660221080677        0.18136294131132       -1.02577919506988
C            2.18184450908423       -0.31378183940187       -0.98695728830841
C            1.29713894820413        0.09483603450678        0.00431083836441
N           -0.01898368822274       -0.40573817688937        0.03116648165392
C           -0.41588339770589       -1.71608010332287        0.03886498295609
C            0.46526263491466       -2.86940704989385        0.11274788952413
C            0.04659879567454       -4.05793849851581       -0.48617266868739
C            0.83953089167519       -5.18682100080689       -0.42981627197747
C            2.05873853530977       -5.14882473909940        0.22797172574592
C            2.47024212737036       -3.97897976625226        0.84439872081307
C            1.68068899768540       -2.84535084174925        0.79463091084189
N           -1.72405828470570       -1.81155746404616        0.00559408701439
C           -2.21685406115152       -0.54437680156374       -0.01619111605483
C           -3.65028778903162       -0.30713293198728       -0.08966259283050
C           -4.18072033340154        0.84812791029845       -0.66082917903284
C           -5.54931437298963        1.03314788186428       -0.71390183486834
C           -6.40699429306617        0.06990926113231       -0.20848478586725
C           -5.88760275472641       -1.09048076424450        0.34241451601925
C           -4.52086918332909       -1.28006967237197        0.39995512106938
C           -1.16346735496514        0.35758515433873        0.00476961047299
C           -1.14160006243809        1.81391064480238        0.02483153376914
C           -0.32719092332841        2.53460380721787       -0.84670458046807
C           -0.31031633709776        3.91618777193122       -0.80322017058750
C           -1.10308773343300        4.59640436245307        0.10561419791260
C           -1.92035680413833        3.88719408643102        0.97139096422856
C           -1.93990350354623        2.50662107851463        0.93476450611178
C            1.72433621706819        1.01544916963253        0.95306498334797
C            3.00831006667699        1.51460780974747        0.91525317202418
H            6.53693070140048        3.10006295926418        0.39857213498763
H            5.72623297858759        2.35050125733915        1.78369164480881
H            4.85149950498144        3.48885927864347        0.73495726445323
H            6.17127502371896       -0.06615170449941       -0.90545195865657
H            7.16785523585446        1.37443644388688       -0.70280990007556
H            6.01013183239084        1.29373720014002       -2.03880446871832
H            4.11785385673607       -0.14980415713370       -1.81722616291765
H            1.85466300351116       -1.02492613826961       -1.73149915621445
H           -0.90757084764013       -4.07098975116117       -0.98942279954712
H            0.50833490657501       -6.10097007692759       -0.90066925095244
H            2.68181201227266       -6.03031853345512        0.26852617244876
H            3.41130784739599       -3.95000458411714        1.37476484922836
H            2.00341303144589       -1.94814217294913        1.30134911255685
H           -3.52051801890041        1.59589976151593       -1.07475614367316
H           -5.95006846935522        1.93339963811967       -1.15795947519064
H           -7.47609042952359        0.22043318488647       -0.25088964330567
H           -6.55323303543240       -1.84918273994800        0.72882987658190
H           -4.10075295706331       -2.18023202537222        0.82140169252232
H            0.28379614028724        2.01094333458251       -1.56771839996601
H            0.32324673898444        4.46449866257519       -1.48544554102110
H           -1.08707498373837        5.67593027539464        0.13764129951372
H           -2.54217674252291        4.41330272291114        1.68103175962291
H           -2.57337749954772        1.95027448660252        1.61024234395987
H            1.04633474602248        1.33491762568121        1.73081575368212
H            3.30541169172713        2.21438677679348        1.67828068021990

          :  Hamiltonian                  GFN2-xTB          :
         :: gradient norm              0.000040489633 Eh/a0 ::
         :: HOMO-LUMO gap              2.820248760179 eV    ::
         :: SCC energy               -85.147998118987 Eh    ::
         :: -> dispersion             -0.073836858791 Eh    ::
         :: repulsion energy           1.517293757226 Eh    ::

    * Orbital Energies and Occupations

         #    Occupation            Energy/Eh            Energy/eV
      -------------------------------------------------------------
         1        2.0000           -0.6739528             -18.3392
       ...           ...                  ...                  ...
        66        2.0000           -0.4142668             -11.2728
        67        2.0000           -0.4117757             -11.2050
        68        2.0000           -0.4083286             -11.1112
        69        2.0000           -0.4069128             -11.0727
        70        2.0000           -0.4049641             -11.0196
        71        2.0000           -0.4013102             -10.9202
        72        2.0000           -0.3991323             -10.8609
        73        2.0000           -0.3970848             -10.8052
        74        2.0000           -0.3883152             -10.5666
        75        2.0000           -0.3850908             -10.4789
        76        2.0000           -0.3647069              -9.9242
        77        2.0000           -0.3533774              -9.6159
        78        2.0000           -0.3475170              -9.4564 (HOMO)
        79                         -0.2438747              -6.6362 (LUMO)
        80                         -0.2321177              -6.3162
        81                         -0.2253559              -6.1322
        82                         -0.2195167              -5.9734
        83                         -0.2162047              -5.8832
        84                         -0.2146833              -5.8418
        85                         -0.2064759              -5.6185
        86                         -0.2055916              -5.5944
        87                         -0.1610841              -4.3833
        88                         -0.1367281              -3.7206
        89                         -0.0919390              -2.5018
       ...                                ...                  ...
       153                          0.7183030              19.5460
      -------------------------------------------------------------
                  HL-Gap            0.1036423 Eh            2.8202 eV

     #   Z          covCN         q      C6AA      α(0)
     1   6 C        3.695    -0.045    21.559     6.642
     2   7 N        2.735    -0.085    22.903     7.108
     3   6 C        3.695    -0.045    21.562     6.643
     4   6 C        2.913     0.061    26.629     8.462
     5   6 C        2.924    -0.063    29.564     8.917
     6   6 C        2.920    -0.040    28.991     8.830
     7   6 C        2.912     0.045    26.994     8.520
     8   7 N        2.850    -0.035    21.909     6.952
     9   6 C        3.163     0.118    25.095     8.188
    10   6 C        2.974     0.004    27.925     8.668
    11   6 C        2.928    -0.029    28.729     8.790
    12   6 C        2.918    -0.028    28.710     8.787
    13   6 C        2.920    -0.031    28.778     8.797
    14   6 C        2.919    -0.030    28.754     8.793
    15   6 C        2.922    -0.035    28.864     8.810
    16   7 N        1.914    -0.295    28.493     7.914
    17   6 C        3.167     0.050    26.536     8.418
    18   6 C        2.973     0.011    27.776     8.645
    19   6 C        2.923    -0.038    28.936     8.821
    20   6 C        2.919    -0.031    28.773     8.796
    21   6 C        2.920    -0.033    28.832     8.805
    22   6 C        2.918    -0.030    28.759     8.794
    23   6 C        2.927    -0.031    28.763     8.795
    24   6 C        3.074     0.012    27.662     8.623
    25   6 C        2.972     0.010    27.780     8.646
    26   6 C        2.924    -0.033    28.834     8.806
    27   6 C        2.919    -0.030    28.752     8.793
    28   6 C        2.920    -0.032    28.804     8.801
    29   6 C        2.919    -0.029    28.725     8.789
    30   6 C        2.925    -0.032    28.810     8.802
    31   6 C        2.920    -0.040    28.987     8.829
    32   6 C        2.924    -0.063    29.579     8.919
    33   1 H        0.925     0.051     2.309     2.376
    34   1 H        0.924     0.041     2.439     2.442
    35   1 H        0.924     0.051     2.311     2.378
    36   1 H        0.924     0.049     2.332     2.388
    37   1 H        0.925     0.051     2.306     2.375
    38   1 H        0.924     0.043     2.416     2.431
    39   1 H        0.926     0.033     2.543     2.494
    40   1 H        0.926     0.032     2.553     2.499
    41   1 H        0.926     0.051     2.305     2.374
    42   1 H        0.926     0.033     2.551     2.498
    43   1 H        0.926     0.029     2.598     2.520
    44   1 H        0.926     0.027     2.627     2.535
    45   1 H        0.926     0.027     2.626     2.534
    46   1 H        0.926     0.024     2.670     2.555
    47   1 H        0.926     0.024     2.673     2.557
    48   1 H        0.926     0.025     2.663     2.552
    49   1 H        0.926     0.027     2.631     2.536
    50   1 H        0.926     0.048     2.340     2.392
    51   1 H        0.926     0.026     2.642     2.542
    52   1 H        0.926     0.027     2.635     2.539
    53   1 H        0.926     0.028     2.617     2.530
    54   1 H        0.926     0.030     2.588     2.515
    55   1 H        0.926     0.033     2.551     2.498
    56   1 H        0.926     0.033     2.551     2.498
    57   1 H        0.926     0.032     2.554     2.499

molecular dipole:
                 x           y           z       tot (Debye)
 q only:        2.203       0.777      -0.005
   full:        2.510       1.145       0.002       7.013

 projected vibrational frequencies (cm⁻¹)
eigval :       -0.00     0.00     0.00     0.00     0.00     0.00
eigval :       12.17    20.07    22.95    31.62    35.54    40.11
eigval :       43.65    50.76    55.66    66.97    79.29   111.51
eigval :      114.89   130.22   150.61   172.74   187.12   198.25
eigval :      212.32   240.37   241.00   254.42   261.58   288.52
eigval :      324.73   353.51   371.32   373.83   376.61   390.05
eigval :      404.66   415.34   445.69   452.68   473.80   487.69
eigval :      494.74   503.35   529.78   584.91   586.93   588.74
eigval :      598.63   604.72   624.44   652.18   659.90   659.99
eigval :      665.76   674.13   679.39   682.17   687.74   743.85
eigval :      759.46   763.47   765.81   786.52   796.34   842.78
eigval :      876.99   877.72   878.48   896.27   900.53   901.26
eigval :      902.09   912.13   928.98   929.14   929.85   931.00
eigval :      931.21   931.64   943.34   947.64   972.38   980.79
eigval :     1001.87  1017.47  1038.04  1045.09  1081.89  1082.71
eigval :     1084.09  1084.15  1109.91  1114.66  1118.92  1120.31
eigval :     1121.65  1153.80  1166.20  1174.13  1181.56  1182.00
eigval :     1182.24  1195.81  1198.57  1201.84  1208.92  1225.19
eigval :     1273.00  1274.07  1279.88  1283.01  1287.66  1292.10
eigval :     1316.79  1321.23  1322.42  1331.12  1335.71  1357.22
eigval :     1383.00  1412.32  1417.58  1427.12  1430.74  1431.84
eigval :     1434.70  1443.35  1449.80  1461.56  1479.30  1481.77
eigval :     1490.02  1498.19  1507.34  1515.20  1532.36  1553.52
eigval :     1559.46  1578.72  1580.56  1582.54  1597.31  1598.49
eigval :     1600.29  1613.34  2908.00  2915.87  2965.84  2975.13
eigval :     3029.19  3037.31  3066.09  3070.12  3070.53  3070.90
eigval :     3074.33  3076.04  3081.96  3082.56  3083.20  3086.22
eigval :     3086.49  3086.87  3090.39  3092.58  3093.16  3102.78
eigval :     3105.88  3117.53  3119.25

   temp. (K)  partition function   enthalpy   heat capacity  entropy
                                   cal/mol     cal/K/mol   cal/K/mol   J/K/mol
 298.15  VIB  0.152E+14            15948.056     96.192    100.892
         ROT  0.235E+08              888.752      2.981     36.706
         INT  0.357E+21            16836.808     99.173    137.598
         TR   0.820E+28             1481.254      4.968     43.944
         TOT                       18318.0620   104.1411   181.5414   759.5692

       T/K    H(0)-H(T)+PV         H(T)/Eh          T*S/Eh         G(T)/Eh
   ------------------------------------------------------------------------
    298.15    0.291917E-01    0.481894E+00    0.862562E-01    0.395638E+00
   ------------------------------------------------------------------------

         :::::::::::::::::::::::::::::::::::::::::::::::::::::
         ::                  THERMODYNAMIC                  ::
         :::::::::::::::::::::::::::::::::::::::::::::::::::::
         :: total free energy         -83.235066821540 Eh   ::
         ::.................................................::
         :: total energy              -83.630704361758 Eh   ::
         :: zero point energy           0.452702022433 Eh   ::
         :: G(RRHO) w/o ZPVE           -0.057064482215 Eh   ::
         :: G(RRHO) contrib.            0.395637540218 Eh   ::
         :::::::::::::::::::::::::::::::::::::::::::::::::::::

           -------------------------------------------------
          | TOTAL ENERGY              -83.630704361758 Eh   |
          | TOTAL ENTHALPY            -83.148810649350 Eh   |
          | TOTAL FREE ENERGY         -83.235066821540 Eh   |
          | GRADIENT NORM               0.000040527185 Eh/α |
          | HOMO-LUMO GAP               2.820249776493 eV   |
           -------------------------------------------------

 * finished run on 2025/08/24 at 04:53:33.311
