   * xtb version 6.7.1 (edcfbbe) compiled by 'albert@albert-system' on 2024-07-22

   ID    Z sym.   atoms
    1    6 C      1, 3-7, 9-15, 17-32
    2    7 N      2, 8, 16
    3    1 H      33-57

          program call               : xtb data2507/gas/InDM/InDM_gas_S0_finalOpt.xtbopt.xyz --gfn 2 --spinpol --tblite --uhf 2 --ohess vtight --parallel 40 --molden --ceasefiles --namespace data2507/gas/InDM/InDM_gas_T1_preOpt
 * total energy  :   -83.5248714 Eh     change       -0.3694788E-07 Eh
 * total energy  :   -83.5319629 Eh     change       -0.7091496E-02 Eh
 * total energy  :   -83.5346790 Eh     change       -0.2716094E-02 Eh
 * total energy  :   -83.5354826 Eh     change       -0.8036182E-03 Eh
 * total energy  :   -83.5362550 Eh     change       -0.7723806E-03 Eh
 * total energy  :   -83.5367622 Eh     change       -0.5072229E-03 Eh
 * total energy  :   -83.5371117 Eh     change       -0.3494943E-03 Eh
 * total energy  :   -83.5373942 Eh     change       -0.2825149E-03 Eh
 * total energy  :   -83.5376487 Eh     change       -0.2544617E-03 Eh
 * total energy  :   -83.5378524 Eh     change       -0.2037385E-03 Eh
 * total energy  :   -83.5384370 Eh     change       -0.9002062E-06 Eh
 * total energy  :   -83.5384376 Eh     change       -0.6474299E-06 Eh
 * total energy  :   -83.5384382 Eh     change       -0.5949459E-06 Eh
 * total energy  :   -83.5384385 Eh     change       -0.2918685E-06 Eh
 * total energy  :   -83.5384391 Eh     change       -0.5892023E-06 Eh
 * total energy  :   -83.5384393 Eh     change       -0.2111251E-06 Eh
 * total energy  :   -83.5384396 Eh     change       -0.3036228E-06 Eh
 * total energy  :   -83.5384398 Eh     change       -0.1733616E-06 Eh
 * total energy  :   -83.5384399 Eh     change       -0.5561135E-07 Eh
   *** GEOMETRY OPTIMIZATION CONVERGED AFTER 49 ITERATIONS ***

 final structure:
================
57
 xtb: 6.7.1 (edcfbbe)
C            5.71906988066908        2.71847417225888        0.53551984040567
N            5.31895496490517        1.53546733521702       -0.18223867435464
C            6.32495605162280        0.85242061480182       -0.95404650841158
C            4.02592844122783        1.08130695319768       -0.13957179159408
C            3.55643476109812        0.12899398052971       -1.05932520797984
C            2.25885230573024       -0.32418489690416       -1.01555101064447
C            1.36639758582997        0.15224676643750       -0.04961170079387
N            0.05423451192470       -0.30655428667514       -0.02424421786772
C           -0.35333317795035       -1.66566848886281        0.01303427274302
C            0.46340248664312       -2.81145159571036        0.13429516675729
C           -0.11911883033002       -4.06532082935661       -0.18648501695942
C            0.60960209052486       -5.22256276659253       -0.10531104734926
C            1.93946029656137       -5.19403214451437        0.31623242188588
C            2.51187694766973       -3.98034626366906        0.68314957292243
C            1.79924949707324       -2.80780442809418        0.60419483278045
N           -1.68493646113372       -1.74553939604503       -0.01125586122272
C           -2.18002220249642       -0.51811716280807        0.02174058821280
C           -3.59754621539443       -0.30457280904998       -0.12111769700713
C           -4.13248983031577        0.83184230415518       -0.74318695423642
C           -5.49883947051399        0.97269458829224       -0.87502098225048
C           -6.35775823429283       -0.00679009082653       -0.39949615913079
C           -5.83704541566449       -1.15044061563187        0.19274710792058
C           -4.47441372097505       -1.30408031775475        0.32338302634176
C           -1.10219878035550        0.45566507002126        0.07233528676775
C           -1.18389382238794        1.86521780428692        0.14792451841782
C           -0.25468573568556        2.72442153158237       -0.49086993584811
C           -0.38512365250368        4.08793915012676       -0.40472231592166
C           -1.42315083110433        4.66315589592451        0.32515670779426
C           -2.34513299507841        3.83743514621623        0.96357086556097
C           -2.23782670750651        2.47171353236681        0.88020228063712
C            1.82306861534343        1.09908948069405        0.87145864471824
C            3.12156147087101        1.55040893705350        0.82808997719966
H            6.61261088469344        3.13435504778709        0.07238750723936
H            5.94235906966980        2.50454181197857        1.58782379660292
H            4.93439639602103        3.47489205077052        0.49161955672992
H            6.19338725339503       -0.22787434649161       -0.88017191672001
H            7.30920048444016        1.09862868667580       -0.55848361268624
H            6.29578507575706        1.13827885974283       -2.01255997602197
H            4.20449109167995       -0.24355936832750       -1.83559092279115
H            1.91576028586338       -1.04855318819239       -1.73926339011773
H           -1.14533449661845       -4.07029078401044       -0.51757836109543
H            0.15404290022936       -6.16560660202476       -0.37125642897005
H            2.51222181512539       -6.10688150925546        0.37642028476119
H            3.52872500965067       -3.95900493474258        1.04963473642296
H            2.24641321514907       -1.89090853628771        0.95238611300246
H           -3.47237786509426        1.58230425135954       -1.14965078541461
H           -5.89969537782860        1.85153559404048       -1.35917865027010
H           -7.42629482129209        0.11394803479317       -0.49973882872128
H           -6.50333730219763       -1.92086805295353        0.55297102785317
H           -4.05346709154919       -2.18541852211280        0.78183887790538
H            0.53252572214634        2.29926399813911       -1.09434443088210
H            0.32354355459394        4.72361498710683       -0.91709248233846
H           -1.51095987021274        5.73648843110909        0.39529425004453
H           -3.14784373802702        4.27575963882301        1.53939195646191
H           -2.93650152143700        1.83995685932014        1.40774192216235
H            1.15233784934360        1.46498472837654        1.63404688750497
H            3.44304733317630        2.25877273209554        1.57400153809525

 projected vibrational frequencies (cm⁻¹)
eigval :       -0.00    -0.00    -0.00     0.00     0.00     0.00
eigval :       16.65    22.08    30.11    38.37    40.91    45.42
eigval :       55.58    57.60    68.49    77.98    94.18   105.34
eigval :      127.02   135.11   140.78   162.34   175.36   194.12
eigval :      204.25   225.95   239.78   245.99   256.67   280.30
eigval :      315.56   334.63   371.35   374.20   378.42   382.95
eigval :      390.86   407.47   419.44   429.97   447.10   469.81
eigval :      479.40   485.06   499.18   576.95   578.81   581.43
eigval :      584.76   591.65   602.61   621.07   636.69   642.96
eigval :      646.95   649.78   666.69   667.93   671.23   729.84
eigval :      732.52   742.31   755.71   777.29   794.50   832.10
eigval :      840.23   846.79   862.43   863.86   865.50   894.27
eigval :      896.27   906.49   911.30   914.22   916.81   918.43
eigval :      919.47   924.50   925.51   925.65   936.96   960.87
eigval :      979.63   981.41  1010.73  1049.32  1055.01  1062.73
eigval :     1071.16  1077.88  1084.83  1094.95  1102.26  1117.85
eigval :     1120.11  1122.07  1134.23  1152.69  1165.51  1171.55
eigval :     1174.80  1175.84  1179.30  1193.24  1200.00  1213.88
eigval :     1227.05  1248.50  1267.75  1272.90  1274.52  1278.28
eigval :     1285.47  1317.61  1326.87  1330.67  1332.46  1339.51
eigval :     1340.15  1375.68  1404.08  1406.18  1411.86  1413.03
eigval :     1416.78  1424.62  1428.47  1429.21  1441.37  1467.20
eigval :     1478.90  1482.82  1493.76  1494.20  1496.78  1497.32
eigval :     1500.81  1515.77  1533.74  1545.47  1551.06  1563.95
eigval :     1577.49  1602.58  2907.09  2907.51  2993.07  2993.38
eigval :     3015.64  3022.42  3065.02  3067.19  3069.11  3072.32
eigval :     3073.22  3076.22  3086.55  3087.72  3088.93  3090.79
eigval :     3091.10  3092.63  3096.33  3100.13  3103.56  3109.49
eigval :     3110.15  3111.05  3112.06

   temp. (K)  partition function   enthalpy   heat capacity  entropy
                                   cal/mol     cal/K/mol   cal/K/mol   J/K/mol
 298.15  VIB  0.372E+13            16187.958     99.566    101.640
         ROT  0.239E+08              888.752      2.981     36.745
         INT  0.891E+20            17076.710    102.547    138.385
         TR   0.820E+28             1481.254      4.968     43.944
         TOT                       18557.9639   107.5155   182.3292   762.8654

       T/K    H(0)-H(T)+PV         H(T)/Eh          T*S/Eh         G(T)/Eh
   ------------------------------------------------------------------------
    298.15    0.295740E-01    0.477388E+00    0.866305E-01    0.390757E+00
   ------------------------------------------------------------------------

         :::::::::::::::::::::::::::::::::::::::::::::::::::::
         ::                  THERMODYNAMIC                  ::
         :::::::::::::::::::::::::::::::::::::::::::::::::::::
         :: total free energy         -83.147682391175 Eh   ::
         ::.................................................::
         :: total energy              -83.538439885634 Eh   ::
         :: zero point energy           0.447813990259 Eh   ::
         :: G(RRHO) w/o ZPVE           -0.057056495800 Eh   ::
         :: G(RRHO) contrib.            0.390757494459 Eh   ::
         :::::::::::::::::::::::::::::::::::::::::::::::::::::

           -------------------------------------------------
          | TOTAL ENERGY              -83.538439885634 Eh   |
          | TOTAL ENTHALPY            -83.061051897442 Eh   |
          | TOTAL FREE ENERGY         -83.147682391175 Eh   |
          | GRADIENT NORM               0.000145307921 Eh/α |
           -------------------------------------------------

 * finished run on 2025/08/24 at 04:53:38.320
