   * xtb version 6.7.1 (edcfbbe) compiled by 'albert@albert-system' on 2024-07-22

   ID    Z sym.   atoms
    1    6 C      1, 3-7, 9-15, 17-32
    2    7 N      2, 8, 16
    3    1 H      33-57

          program call               : xtb data2507/gas/InDM/InDM_gas_T1_crest.xyz --gfn 2 --spinpol --tblite --uhf 2 --ohess vtight --parallel 40 --molden --ceasefiles --namespace data2507/gas/InDM/InDM_gas_T1_finalOpt
 * total energy  :   -83.5383961 Eh     change       -0.7145886E-08 Eh
 * total energy  :   -83.5384142 Eh     change       -0.1812603E-04 Eh
 * total energy  :   -83.5384231 Eh     change       -0.8873845E-05 Eh
 * total energy  :   -83.5384248 Eh     change       -0.1718075E-05 Eh
 * total energy  :   -83.5384267 Eh     change       -0.1836550E-05 Eh
 * total energy  :   -83.5384286 Eh     change       -0.1943205E-05 Eh
 * total energy  :   -83.5384312 Eh     change       -0.2570543E-05 Eh
 * total energy  :   -83.5384335 Eh     change       -0.2357492E-05 Eh
 * total energy  :   -83.5384349 Eh     change       -0.1379200E-05 Eh
 * total energy  :   -83.5384357 Eh     change       -0.8140108E-06 Eh
 * total energy  :   -83.5384387 Eh     change       -0.6714561E-06 Eh
 * total energy  :   -83.5384393 Eh     change       -0.5838249E-06 Eh
 * total energy  :   -83.5384397 Eh     change       -0.4176226E-06 Eh
 * total energy  :   -83.5384400 Eh     change       -0.2953611E-06 Eh
 * total energy  :   -83.5384403 Eh     change       -0.2169815E-06 Eh
 * total energy  :   -83.5384402 Eh     change        0.3296675E-07 Eh
 * total energy  :   -83.5384404 Eh     change       -0.2191977E-06 Eh
 * total energy  :   -83.5384406 Eh     change       -0.1514830E-06 Eh
 * total energy  :   -83.5384406 Eh     change       -0.1803721E-07 Eh
   *** GEOMETRY OPTIMIZATION CONVERGED AFTER 22 ITERATIONS ***

 final structure:
================
57
 xtb: 6.7.1 (edcfbbe)
C            5.68173248256357        2.79172045308482        0.49585864902478
N            5.29676868737484        1.59099665376513       -0.20042311727871
C            6.31223714063073        0.91022552240376       -0.96166332090228
C            4.00903288177954        1.12243106193296       -0.15273843267811
C            3.54938402460445        0.15805730499870       -1.06479026658249
C            2.25731365038791       -0.30979755599754       -1.01548053650644
C            1.36086647829913        0.16328015015797       -0.05140922795272
N            0.05511495892452       -0.31256707919294       -0.02013430849557
C           -0.33221563252897       -1.67772515251517        0.01918698395976
C            0.50236316925840       -2.80988833670814        0.14815945960654
C           -0.05747490438855       -4.07407339234923       -0.17207408186617
C            0.68955213972952       -5.21898273969715       -0.08222223460162
C            2.01605516533426       -5.16724975263178        0.34759418881780
C            2.56638452729733       -3.94309639156902        0.71334730124780
C            1.83517852451599       -2.78260901588188        0.62574050088393
N           -1.66216414220865       -1.77793833311551       -0.00973305564776
C           -2.17574106344029       -0.55788043707988        0.01866310778790
C           -3.59557249999780       -0.36581705547347       -0.13071831570775
C           -4.14475714563563        0.76168804527716       -0.75665699325924
C           -5.51245542545079        0.88206799217898       -0.89431928014859
C           -6.35871378985838       -0.10943110181463       -0.42099974935388
C           -5.82355084994131       -1.24454031189687        0.17479993163892
C           -4.45936264129163       -1.37777247309943        0.31127471596216
C           -1.11294750372777        0.43223852985687        0.07127192434118
C           -1.21783238442261        1.84037223956352        0.14589778056291
C           -0.30174653891923        2.71493586010011       -0.49081820659256
C           -0.45656323524680        4.07608896173472       -0.40691649881204
C           -1.50712186042457        4.63387019773413        0.31845571857148
C           -2.41627897749469        3.79289719691198        0.95526268860645
C           -2.28439461567956        2.42920716978377        0.87427719770680
C            1.80792404585931        1.12198392230202        0.86221692614234
C            3.10095390601305        1.58815784337272        0.81306357560301
H            6.56262974780760        3.21722488145225        0.01726448841391
H            5.91975908350790        2.59768880094974        1.54875056806230
H            4.88256502521953        3.53243836627866        0.44893617248453
H            6.18615441822279       -0.17022305589338       -0.88314676415032
H            7.29205468632240        1.16412273026139       -0.55969455698598
H            6.28957642630815        1.19065455836946       -2.02182616672059
H            4.20061523415797       -0.21209138962117       -1.83959435710694
H            1.92124709892126       -1.04304489672272       -1.73351230373894
H           -1.08139387200531       -4.09703079169523       -0.50948213788421
H            0.25110062014172       -6.17029887011954       -0.34744555078060
H            2.60306532795192       -6.07048472391298        0.41519697913699
H            3.58046270741302       -3.90371298028632        1.08594364781819
H            2.26535720280866       -1.85731072702205        0.97312398205133
H           -3.49418830425681        1.52122951563057       -1.16162231481825
H           -5.92432442943835        1.75424066230405       -1.38128493325863
H           -7.42849458287849       -0.00464123027523       -0.52575163397318
H           -6.47983720389781       -2.02433796465122        0.53322490668044
H           -4.02720799537677       -2.25213983430052        0.77265011744185
H            0.49501418582755        2.30307882604909       -1.09094739937429
H            0.24265433604566        4.72353076559806       -0.91753862362887
H           -1.61436802858967        5.70557945810234        0.38634812771141
H           -3.22848253353391        4.21768434536635        1.52791849752077
H           -2.97327447842819        1.78592007830389        1.40074576357580
H            1.13430617011300        1.48515860853615        1.62353942364290
H            3.41604413292114        2.30532410906109        1.55333374080233

 projected vibrational frequencies (cm⁻¹)
eigval :       -0.00    -0.00    -0.00     0.00     0.00     0.00
eigval :       16.58    22.31    30.87    38.34    41.02    46.35
eigval :       55.75    58.71    69.44    79.19    94.87   105.42
eigval :      127.61   134.63   139.76   161.72   174.53   194.40
eigval :      204.30   226.15   239.83   246.02   256.48   280.46
eigval :      315.26   334.51   371.29   374.08   378.59   382.98
eigval :      390.69   407.50   419.60   429.82   446.68   469.66
eigval :      479.32   484.64   499.45   577.03   578.78   581.32
eigval :      584.62   591.67   602.54   621.07   636.72   643.14
eigval :      646.93   649.80   666.54   667.97   671.13   729.91
eigval :      732.71   742.78   755.72   777.47   794.90   831.93
eigval :      840.52   847.10   862.54   864.09   865.56   894.27
eigval :      896.36   906.90   911.52   914.32   916.87   918.51
eigval :      919.56   924.54   925.36   925.70   937.29   961.02
eigval :      979.77   981.62  1010.85  1049.63  1054.93  1063.43
eigval :     1071.40  1078.03  1085.04  1094.96  1101.76  1117.50
eigval :     1120.26  1122.16  1133.87  1152.57  1165.13  1171.17
eigval :     1175.09  1176.07  1179.36  1193.13  1200.18  1213.34
eigval :     1227.78  1248.73  1267.31  1272.97  1274.54  1278.36
eigval :     1285.11  1317.72  1326.89  1330.41  1332.52  1339.47
eigval :     1340.01  1375.93  1404.29  1406.40  1411.91  1413.05
eigval :     1416.86  1424.56  1428.55  1429.07  1441.38  1467.20
eigval :     1478.78  1483.21  1493.78  1494.43  1497.15  1497.52
eigval :     1500.21  1515.43  1533.74  1545.51  1551.10  1563.97
eigval :     1577.69  1602.63  2906.24  2907.56  2994.29  2995.24
eigval :     3013.76  3020.67  3065.00  3066.67  3069.08  3072.13
eigval :     3073.08  3076.14  3086.46  3087.74  3088.65  3090.72
eigval :     3090.84  3092.66  3096.25  3100.09  3103.15  3109.39
eigval :     3109.79  3110.59  3111.68

   temp. (K)  partition function   enthalpy   heat capacity  entropy
                                   cal/mol     cal/K/mol   cal/K/mol   J/K/mol
 298.15  VIB  0.341E+13            16182.240     99.634    101.587
         ROT  0.239E+08              888.752      2.981     36.745
         INT  0.815E+20            17070.992    102.614    138.332
         TR   0.820E+28             1481.254      4.968     43.944
         TOT                       18552.2460   107.5826   182.2757   762.6415

       T/K    H(0)-H(T)+PV         H(T)/Eh          T*S/Eh         G(T)/Eh
   ------------------------------------------------------------------------
    298.15    0.295649E-01    0.477386E+00    0.866051E-01    0.390781E+00
   ------------------------------------------------------------------------

         :::::::::::::::::::::::::::::::::::::::::::::::::::::
         ::                  THERMODYNAMIC                  ::
         :::::::::::::::::::::::::::::::::::::::::::::::::::::
         :: total free energy         -83.147659422275 Eh   ::
         ::.................................................::
         :: total energy              -83.538440604856 Eh   ::
         :: zero point energy           0.447821355511 Eh   ::
         :: G(RRHO) w/o ZPVE           -0.057040172930 Eh   ::
         :: G(RRHO) contrib.            0.390781182581 Eh   ::
         :::::::::::::::::::::::::::::::::::::::::::::::::::::

           -------------------------------------------------
          | TOTAL ENERGY              -83.538440604856 Eh   |
          | TOTAL ENTHALPY            -83.061054363451 Eh   |
          | TOTAL FREE ENERGY         -83.147659422275 Eh   |
          | GRADIENT NORM               0.000044990634 Eh/α |
           -------------------------------------------------

 * finished run on 2025/08/24 at 04:55:25.480
