   * xtb version 6.7.1 (edcfbbe) compiled by 'albert@albert-system' on 2024-07-22

   ID    Z sym.   atoms
    1    6 C      1, 3-7, 9-15, 17-32
    2    7 N      2, 8, 16
    3    1 H      33-57

          program call               : xtb data2507/gas/InDM/InDM.xyz --gfn 2 --ohess vtight --parallel 40 --molden --ceasefiles --namespace data2507/gas/InDM/InDM_gas_S0_preOpt
          :  Hamiltonian                  GFN2-xTB          :
 * total energy  :   -83.6165816 Eh     change       -0.1733383E-08 Eh
 * total energy  :   -83.6242032 Eh     change       -0.7621576E-02 Eh
 * total energy  :   -83.6263055 Eh     change       -0.2102309E-02 Eh
 * total energy  :   -83.6269739 Eh     change       -0.6683737E-03 Eh
 * total energy  :   -83.6274478 Eh     change       -0.4738931E-03 Eh
 * total energy  :   -83.6277595 Eh     change       -0.3117191E-03 Eh
 * total energy  :   -83.6281066 Eh     change       -0.3471447E-03 Eh
 * total energy  :   -83.6285504 Eh     change       -0.4437878E-03 Eh
 * total energy  :   -83.6290163 Eh     change       -0.4658858E-03 Eh
 * total energy  :   -83.6294208 Eh     change       -0.4045273E-03 Eh
 * total energy  :   -83.6306990 Eh     change       -0.1109345E-05 Eh
 * total energy  :   -83.6307001 Eh     change       -0.1050499E-05 Eh
 * total energy  :   -83.6307010 Eh     change       -0.8664636E-06 Eh
 * total energy  :   -83.6307015 Eh     change       -0.5625876E-06 Eh
 * total energy  :   -83.6307019 Eh     change       -0.4039933E-06 Eh
 * total energy  :   -83.6307023 Eh     change       -0.3453150E-06 Eh
 * total energy  :   -83.6307025 Eh     change       -0.2516343E-06 Eh
 * total energy  :   -83.6307027 Eh     change       -0.1995971E-06 Eh
 * total energy  :   -83.6307027 Eh     change       -0.3661796E-08 Eh
   *** GEOMETRY OPTIMIZATION CONVERGED AFTER 44 ITERATIONS ***

 final structure:
================
57
 xtb: 6.7.1 (edcfbbe)
C            5.84370747326668        0.90769448767770        0.95606848454863
N            4.84051646109728        1.50969140927391        0.11333723268401
C            5.23065290722906        2.59149523822484       -0.75488401489703
C            3.57286281098299        0.99505681372905        0.06494167085089
C            2.65108699654213        1.40834423493070       -0.90926675711195
C            1.37298070786519        0.89430460147770       -0.94769692224625
C            0.96512814523970       -0.05283352367354       -0.01673762406910
N           -0.34477819329736       -0.56943901987447       -0.04501262953341
C           -0.72514113088657       -1.88413793971427       -0.08283221810416
C            0.16945633984795       -3.02452692801313       -0.18874693745506
C            1.38198850934793       -2.96961779949020       -0.87395377413012
C            2.18501396119481       -4.09209059285246       -0.95312364514652
C            1.78985117274998       -5.28117141478253       -0.36343049163645
C            0.57327903571678       -5.34968787010629        0.29678158941820
C           -0.23289948543729       -4.23214362172997        0.38265055685880
N           -2.03181114158028       -1.99700401459255       -0.04419903809610
C           -2.54037519865237       -0.73722142073425        0.01205465737768
C           -3.97647950275180       -0.52096875304985        0.09825035504366
C           -4.51981519828052        0.60993891725859        0.70485070610084
C           -5.89055043479179        0.77503594074428        0.76809622683065
C           -6.73739862304301       -0.18430444284590        0.23759670964988
C           -6.20491273819410       -1.32109623361292       -0.34883430604519
C           -4.83602687950990       -1.49071192727394       -0.41653454617344
C           -1.49860798933217        0.17842790583380        0.00750730931401
C           -1.49514754037560        1.63485349395300        0.02535207505149
C           -2.31275252369917        2.34121378179470       -0.85654856827530
C           -2.31042394765725        3.72241200341943       -0.85704273562861
C           -1.49117063764279        4.41894888313229        0.01710763135631
C           -0.67939022910745        3.72510442839486        0.89842882259183
C           -0.67930929916727        2.34277673287723        0.90606629024657
C            1.86311036382687       -0.47254404293166        0.95779947346377
C            3.14214894854925        0.03718486322329        0.99689497009203
H            5.67398994491200        1.13943163961112        2.01352937852861
H            6.82478381719208        1.28578027075652        0.67801405587188
H            5.85423758628811       -0.17867546401746        0.83470393388218
H            5.34843258839656        2.26310161740079       -1.79467890926540
H            6.17931630235175        3.00176356846596       -0.41559825312532
H            4.48918119696721        3.39273029111495       -0.72380711921693
H            2.93235928499341        2.12946849378418       -1.65824078423195
H            0.68444122938925        1.22303651505464       -1.71221888355343
H            1.69212495210726       -2.05689203760662       -1.36037625074906
H            3.12389523104800       -4.03900821424389       -1.48548744757976
H            2.42351202330258       -6.15373774596564       -0.42663784391674
H            0.25464663512368       -6.27877868681865        0.74657271246975
H           -1.18510644841410       -4.26869952877100        0.88843735195474
H           -3.86788335184804        1.35405994716739        1.13806987795308
H           -6.30150284792498        1.65645407643143        1.23974128065086
H           -7.80821882065584       -0.04929863218657        0.28803996998153
H           -6.86191599802050       -2.07699367137826       -0.75499747230698
H           -4.40568351895834       -2.37251592745063       -0.86558141338920
H           -2.94746408684687        1.79502977264100       -1.53911066795860
H           -2.94725024533979        4.25908160791527       -1.54513971206865
H           -1.48839482622361        5.49905488250080        0.01308050070692
H           -0.04406305434060        4.26311598092246        1.58718310311047
H           -0.05363033195601        1.80833715654180        1.60623794953933
H            1.55110690161016       -1.20444949587364        1.68860353197789
H            3.80429569679926       -0.30437760666011        1.77472155780392

          :  Hamiltonian                  GFN2-xTB          :
         :: gradient norm              0.000044332640 Eh/a0 ::
         :: HOMO-LUMO gap              2.819706755924 eV    ::
         :: SCC energy               -85.147956037673 Eh    ::
         :: -> dispersion             -0.073841168892 Eh    ::
         :: repulsion energy           1.517253312325 Eh    ::

    * Orbital Energies and Occupations

         #    Occupation            Energy/Eh            Energy/eV
      -------------------------------------------------------------
         1        2.0000           -0.6739563             -18.3393
       ...           ...                  ...                  ...
        66        2.0000           -0.4142798             -11.2731
        67        2.0000           -0.4117930             -11.2055
        68        2.0000           -0.4083316             -11.1113
        69        2.0000           -0.4069348             -11.0733
        70        2.0000           -0.4049845             -11.0202
        71        2.0000           -0.4012436             -10.9184
        72        2.0000           -0.3991341             -10.8610
        73        2.0000           -0.3970922             -10.8054
        74        2.0000           -0.3883432             -10.5674
        75        2.0000           -0.3850921             -10.4789
        76        2.0000           -0.3647312              -9.9248
        77        2.0000           -0.3533933              -9.6163
        78        2.0000           -0.3475809              -9.4582 (HOMO)
        79                         -0.2439586              -6.6385 (LUMO)
        80                         -0.2321108              -6.3161
        81                         -0.2253657              -6.1325
        82                         -0.2194595              -5.9718
        83                         -0.2162046              -5.8832
        84                         -0.2146301              -5.8404
        85                         -0.2064532              -5.6179
        86                         -0.2056238              -5.5953
        87                         -0.1610458              -4.3823
        88                         -0.1367640              -3.7215
        89                         -0.0919043              -2.5008
       ...                                ...                  ...
       153                          0.7183434              19.5471
      -------------------------------------------------------------
                  HL-Gap            0.1036223 Eh            2.8197 eV

     #   Z          covCN         q      C6AA      α(0)
     1   6 C        3.696    -0.045    21.561     6.642
     2   7 N        2.735    -0.085    22.906     7.108
     3   6 C        3.695    -0.045    21.557     6.642
     4   6 C        2.913     0.061    26.628     8.462
     5   6 C        2.924    -0.063    29.579     8.919
     6   6 C        2.920    -0.040    28.987     8.829
     7   6 C        2.912     0.045    26.992     8.519
     8   7 N        2.850    -0.035    21.909     6.952
     9   6 C        3.163     0.118    25.095     8.188
    10   6 C        2.974     0.004    27.925     8.668
    11   6 C        2.922    -0.035    28.865     8.811
    12   6 C        2.919    -0.030    28.754     8.793
    13   6 C        2.920    -0.031    28.778     8.797
    14   6 C        2.918    -0.028    28.710     8.787
    15   6 C        2.928    -0.029    28.729     8.790
    16   7 N        1.914    -0.295    28.493     7.914
    17   6 C        3.167     0.050    26.535     8.418
    18   6 C        2.973     0.011    27.775     8.645
    19   6 C        2.923    -0.038    28.934     8.821
    20   6 C        2.919    -0.031    28.773     8.796
    21   6 C        2.920    -0.033    28.832     8.805
    22   6 C        2.918    -0.030    28.759     8.794
    23   6 C        2.927    -0.031    28.763     8.795
    24   6 C        3.073     0.012    27.662     8.624
    25   6 C        2.972     0.010    27.782     8.646
    26   6 C        2.925    -0.033    28.811     8.802
    27   6 C        2.919    -0.029    28.725     8.789
    28   6 C        2.920    -0.032    28.804     8.801
    29   6 C        2.919    -0.030    28.753     8.793
    30   6 C        2.924    -0.034    28.835     8.806
    31   6 C        2.920    -0.040    28.991     8.830
    32   6 C        2.924    -0.063    29.564     8.917
    33   1 H        0.924     0.043     2.408     2.427
    34   1 H        0.925     0.051     2.306     2.375
    35   1 H        0.924     0.048     2.340     2.392
    36   1 H        0.924     0.041     2.442     2.444
    37   1 H        0.925     0.051     2.309     2.376
    38   1 H        0.924     0.051     2.310     2.377
    39   1 H        0.926     0.032     2.554     2.499
    40   1 H        0.926     0.033     2.551     2.498
    41   1 H        0.926     0.027     2.626     2.534
    42   1 H        0.926     0.027     2.628     2.535
    43   1 H        0.926     0.029     2.598     2.521
    44   1 H        0.926     0.033     2.551     2.498
    45   1 H        0.926     0.051     2.304     2.374
    46   1 H        0.926     0.024     2.669     2.555
    47   1 H        0.926     0.024     2.672     2.556
    48   1 H        0.926     0.025     2.663     2.552
    49   1 H        0.926     0.027     2.631     2.536
    50   1 H        0.926     0.048     2.341     2.392
    51   1 H        0.926     0.033     2.551     2.498
    52   1 H        0.926     0.030     2.588     2.516
    53   1 H        0.926     0.028     2.617     2.530
    54   1 H        0.926     0.027     2.635     2.538
    55   1 H        0.926     0.026     2.642     2.542
    56   1 H        0.926     0.032     2.553     2.498
    57   1 H        0.926     0.033     2.542     2.493

molecular dipole:
                 x           y           z       tot (Debye)
 q only:        2.192       0.800       0.003
   full:        2.497       1.167      -0.002       7.006

 projected vibrational frequencies (cm⁻¹)
eigval :       -0.00    -0.00    -0.00     0.00     0.00     0.00
eigval :        4.70    19.89    22.82    31.79    36.78    40.10
eigval :       43.87    50.90    55.76    67.48    79.52   111.76
eigval :      114.86   130.39   150.76   174.14   189.29   198.20
eigval :      212.91   240.45   241.06   254.32   261.66   288.21
eigval :      325.42   353.31   371.37   373.89   376.74   390.19
eigval :      404.50   415.20   445.89   452.70   474.09   487.76
eigval :      494.77   503.30   529.78   584.92   586.93   588.75
eigval :      598.76   604.89   624.47   652.20   659.81   660.05
eigval :      665.79   674.18   679.42   682.21   687.82   743.87
eigval :      759.49   763.48   765.80   786.42   796.26   842.54
eigval :      876.99   877.75   878.49   896.20   900.59   901.28
eigval :      902.11   912.09   928.99   929.17   929.84   931.00
eigval :      931.20   931.66   943.33   947.63   972.35   980.77
eigval :     1001.81  1017.47  1038.05  1044.68  1081.90  1082.73
eigval :     1084.13  1084.26  1110.04  1114.66  1118.89  1120.31
eigval :     1121.72  1153.91  1166.19  1174.13  1181.54  1182.00
eigval :     1182.23  1195.80  1198.60  1201.90  1209.00  1225.29
eigval :     1273.11  1274.15  1279.87  1283.05  1287.73  1292.22
eigval :     1316.84  1321.21  1322.39  1331.14  1335.78  1356.90
eigval :     1382.84  1412.21  1417.56  1427.05  1430.73  1432.01
eigval :     1434.72  1443.31  1449.79  1461.55  1478.64  1481.83
eigval :     1490.01  1498.30  1507.67  1515.00  1532.21  1553.54
eigval :     1559.43  1578.68  1580.57  1582.55  1597.30  1598.46
eigval :     1600.28  1613.28  2907.12  2918.49  2962.23  2975.20
eigval :     3029.94  3038.36  3066.12  3070.14  3070.57  3070.93
eigval :     3074.37  3076.10  3082.01  3082.58  3083.27  3086.21
eigval :     3086.56  3086.96  3090.21  3092.62  3093.30  3102.71
eigval :     3105.98  3117.93  3119.65

   temp. (K)  partition function   enthalpy   heat capacity  entropy
                                   cal/mol     cal/K/mol   cal/K/mol   J/K/mol
 298.15  VIB  0.365E+14            15950.118     96.220    101.765
         ROT  0.235E+08              888.752      2.981     36.706
         INT  0.857E+21            16838.870     99.201    138.471
         TR   0.820E+28             1481.254      4.968     43.944
         TOT                       18320.1239   104.1688   182.4146   763.2226

       T/K    H(0)-H(T)+PV         H(T)/Eh          T*S/Eh         G(T)/Eh
   ------------------------------------------------------------------------
    298.15    0.291950E-01    0.481900E+00    0.866711E-01    0.395229E+00
   ------------------------------------------------------------------------

         :::::::::::::::::::::::::::::::::::::::::::::::::::::
         ::                  THERMODYNAMIC                  ::
         :::::::::::::::::::::::::::::::::::::::::::::::::::::
         :: total free energy         -83.235473449527 Eh   ::
         ::.................................................::
         :: total energy              -83.630702725347 Eh   ::
         :: zero point energy           0.452705354329 Eh   ::
         :: G(RRHO) w/o ZPVE           -0.057476078509 Eh   ::
         :: G(RRHO) contrib.            0.395229275820 Eh   ::
         :::::::::::::::::::::::::::::::::::::::::::::::::::::

           -------------------------------------------------
          | TOTAL ENERGY              -83.630702725347 Eh   |
          | TOTAL ENTHALPY            -83.148802395282 Eh   |
          | TOTAL FREE ENERGY         -83.235473449527 Eh   |
          | GRADIENT NORM               0.000044326492 Eh/α |
          | HOMO-LUMO GAP               2.819707053734 eV   |
           -------------------------------------------------

 * finished run on 2025/08/24 at 04:52:11.344
