   * xtb version 6.7.1 (edcfbbe) compiled by 'albert@albert-system' on 2024-07-22

   ID    Z sym.   atoms
    1    6 C      1-6, 8-49, 51-73
    2    7 N      7, 50
    3    1 H      74-133

          program call               : xtb data2507/gas/MDP3FL/MDP3FL_gas_T1_crest.xyz --gfn 2 --spinpol --tblite --uhf 2 --ohess vtight --parallel 40 --molden --ceasefiles --namespace data2507/gas/MDP3FL/MDP3FL_gas_T1_finalOpt
 * total energy  :  -188.5299386 Eh     change       -0.5672328E-07 Eh
 * total energy  :  -188.5299471 Eh     change       -0.8510299E-05 Eh
 * total energy  :  -188.5299521 Eh     change       -0.5021711E-05 Eh
 * total energy  :  -188.5299532 Eh     change       -0.1089798E-05 Eh
 * total energy  :  -188.5299553 Eh     change       -0.2100326E-05 Eh
 * total energy  :  -188.5299589 Eh     change       -0.3616191E-05 Eh
 * total energy  :  -188.5299636 Eh     change       -0.4612454E-05 Eh
 * total energy  :  -188.5299672 Eh     change       -0.3688169E-05 Eh
 * total energy  :  -188.5299699 Eh     change       -0.2612472E-05 Eh
 * total energy  :  -188.5299725 Eh     change       -0.2614934E-05 Eh
 * total energy  :  -188.5300208 Eh     change       -0.1638992E-06 Eh
 * total energy  :  -188.5300210 Eh     change       -0.1651416E-06 Eh
 * total energy  :  -188.5300212 Eh     change       -0.2011337E-06 Eh
 * total energy  :  -188.5300214 Eh     change       -0.2045957E-06 Eh
 * total energy  :  -188.5300215 Eh     change       -0.1582204E-06 Eh
 * total energy  :  -188.5300218 Eh     change       -0.3197701E-06 Eh
 * total energy  :  -188.5300222 Eh     change       -0.3133462E-06 Eh
 * total energy  :  -188.5300221 Eh     change        0.2632410E-07 Eh
 * total energy  :  -188.5300221 Eh     change       -0.8607032E-08 Eh
   *** GEOMETRY OPTIMIZATION CONVERGED AFTER 69 ITERATIONS ***

 final structure:
================
133
 xtb: 6.7.1 (edcfbbe)
C           12.75726728638156       -4.16476632125700       -2.39397980457310
C           13.42609196149125       -3.25476195113344       -1.40883223914848
C           14.52168150000993       -3.69902064460536       -0.67447686739967
C           15.14890926649747       -2.85505584554638        0.22465555357335
C           14.69457265465721       -1.56389374847839        0.41219325058848
C           13.60068052961945       -1.10180781642442       -0.31827063208386
N           13.12254691795671        0.20052805412013       -0.13802498224461
C           14.01751530997404        1.24830618300393        0.09302819284558
C           15.25761109296944        1.27549243470395       -0.54670787623278
C           16.13800283578929        2.31310245802660       -0.31244271303107
C           15.79865165759402        3.34051881750215        0.55320949977928
C           14.56716168324128        3.32028834952908        1.18824756606782
C           13.68195932518072        2.28424912877469        0.96608275782699
C           11.74986628192910        0.44922015588107       -0.19828787335775
C           11.26968211362415        1.63193644028460       -0.77526689333266
C            9.91865113332286        1.88460880681652       -0.86024476287403
C            9.01716537447022        0.94078857451846       -0.36747166414988
C            9.50122050886458       -0.25043459581890        0.21808463214384
C           10.84438578328448       -0.49659061358623        0.30875891440131
C            8.35303709857874       -1.11952268415315        0.67918362922578
C            8.36461980977195       -2.46945722164753       -0.04475344932661
C            8.38951524853678       -1.32523571533753        2.19649548782459
C            7.15854340172609       -0.28522985616673        0.26757663982212
C            5.83245990366803       -0.56903843312546        0.41308293441947
C            4.85165075281557        0.35283336262541       -0.03007591547867
C            3.45019571400798        0.06992397146403        0.09937264897889
C            2.97481268682883       -1.26581905029019        0.16376374247425
C            1.64525813736331       -1.56674891528254        0.25422067300548
C            0.70385418042091       -0.52285138962150        0.30443368986063
C            1.16372711250877        0.82465214732698        0.25617203326122
C            2.48808771413277        1.11404041937441        0.15047641030567
C           -0.01056969319488        1.77690561642591        0.33377342237717
C           -0.09303125055405        2.65624981945779       -0.91766262835825
C            0.06528190099120        2.64598084589913        1.59337369574450
C           -1.17741420449495        0.81529404123841        0.40758634336272
C           -2.50713560310452        1.09411087421644        0.47118065654004
C           -3.45974441128615        0.04190187921847        0.50356285080070
C           -4.86989391321751        0.31609917902879        0.53651299574669
C           -5.36937118789187        1.52746740076479        1.06939857872130
C           -6.71017834572299        1.81489321295832        1.10286108415068
C           -7.61904020381880        0.89088586310325        0.58237651850965
C           -7.14068589516655       -0.32674424068126        0.04410736971228
C           -5.80713571030505       -0.61478999650548        0.02654840345003
C           -8.29299368098036       -1.16221992273242       -0.47159103981927
C           -8.17028875700793       -1.40823014603255       -1.97814093916099
C           -8.39543152262615       -2.49233820313893        0.28166016356672
C           -9.47459876428472       -0.27324830011536       -0.15625345035331
C          -10.80152999145045       -0.50439235105640       -0.40004096959828
C          -11.74609645013341        0.46146911093619       -0.01871165329380
N          -13.10512674640684        0.23379698636952       -0.24528415181937
C          -13.94500462212959        1.29156189222062       -0.60329195691216
C          -13.48340179581290        2.30866854153576       -1.44016765553103
C          -14.31562256515642        3.35396132199698       -1.78820179589387
C          -15.61781961261109        3.40212473647049       -1.31688237610798
C          -16.08217826832977        2.39339874419707       -0.48808732838647
C          -15.25624334839954        1.34687092885305       -0.12856794859994
C          -13.62368318165954       -1.05914562871479       -0.11657682700680
C          -14.62188012869298       -1.51297451981891       -0.97763946421936
C          -15.11639634797247       -2.79550055029766       -0.83941724694490
C          -14.62273954580546       -3.63925777542913        0.13970351230705
C          -13.62379387246973       -3.20326396112028        1.00495162767100
C          -13.10160739285399       -4.11141480501422        2.07669165258431
C          -13.13745591243762       -1.91408426282362        0.87294789305618
C          -11.32015511405977        1.64531878567729        0.59663703485133
C           -9.98453215161148        1.88233301534018        0.83591769879660
C           -9.04531977868657        0.92148445057580        0.46257542001839
C           -2.97171456690418       -1.28979614946903        0.49358247195719
C           -1.63709802737219       -1.58008040543016        0.44971168509493
C           -0.70502334382152       -0.52844306914550        0.39205340950655
C            5.30310263107691        1.55905350739083       -0.61789638058561
C            6.63477194267322        1.84343207453860       -0.77689504234298
C            7.58733777593369        0.92177662779531       -0.33450150010906
C           12.97909635557052       -1.95734593176567       -1.22848951103289
H           11.82059313157358       -3.73903002903829       -2.74460689448128
H           12.55619860847366       -5.13473298455708       -1.94261074004664
H           13.40569750809918       -4.32723480562662       -3.25488490888912
H           14.88045610592581       -4.70863258218491       -0.80982056739922
H           15.99509584936966       -3.20908098537801        0.79493735661937
H           15.17517618252397       -0.91196502321237        1.12634537802884
H           15.51909528993943        0.48192940945292       -1.23130172969595
H           17.09319511890925        2.32412212301752       -0.81650514014585
H           16.48878619986207        4.15101166990803        0.73145178737092
H           14.29688822990270        4.11397812444187        1.86906527537096
H           12.72704220107172        2.26354400662261        1.47037680178559
H           11.97923371076989        2.34394098199963       -1.17160460129182
H            9.56338383090231        2.79557816260236       -1.31774832588533
H           11.22132381812034       -1.39982333340568        0.76626764693955
H            8.32831071102741       -2.31748092677312       -1.12165382427997
H            7.50272290787192       -3.06332838576922        0.25016567458259
H            9.26924647645572       -3.02250563619905        0.19889258321068
H            9.28738010203110       -1.86796604879910        2.48381384273872
H            7.52007548118967       -1.89198354695309        2.52127295651098
H            8.38565354947248       -0.36359859250892        2.70541239137891
H            5.52500893780764       -1.48097702262941        0.90210182687449
H            3.68704242289710       -2.07414133829162        0.09117093488470
H            1.31351687657542       -2.59472453549959        0.27746266479574
H            2.81935102849105        2.14162205742183        0.14389978775299
H           -0.14334063274265        2.03524270953962       -1.80970914663442
H           -0.98039811630414        3.28423927302204       -0.88189903643695
H            0.78358343333898        3.29624610852197       -0.98893207303500
H            0.12091968596085        2.01748077800608        2.47985205953019
H            0.94783279251000        3.28105839452991        1.56273231616720
H           -0.81674027180569        3.27789486972188        1.67049779770324
H           -2.84857222563249        2.11819057975075        0.44951735518286
H           -4.67518578769579        2.23265108072153        1.50099978270701
H           -7.06141172033425        2.74253353621084        1.53139282515508
H           -5.45748116233464       -1.53444627770889       -0.41766900152312
H           -8.10172135328096       -0.46063859028647       -2.50834588293205
H           -7.27767056663298       -1.99068309139187       -2.19389283813678
H           -9.03834957539591       -1.95113550512786       -2.34548186451595
H           -9.27440357632083       -3.04495626734181       -0.04337056934135
H           -8.47306306875091       -2.31198583666363        1.35197702840413
H           -7.51282570923580       -3.09993026849952        0.09616078622242
H          -11.13466262420759       -1.40977926118305       -0.88633809108781
H          -12.47234080797433        2.26614524042596       -1.81773411398441
H          -13.94728646225986        4.13275831625133       -2.43960810970749
H          -16.26598785958391        4.21967271549738       -1.59339702273420
H          -17.09386981168088        2.42610005361072       -0.11124458431336
H          -15.61645975140511        0.56772375656399        0.52715253377635
H          -14.99643838162478       -0.86168838624442       -1.75323636555338
H          -15.88752707536453       -3.14332069512130       -1.51096873019561
H          -15.01127253996951       -4.64234077400770        0.23572542817423
H          -12.89731144755071       -5.10151961427496        1.67343243691726
H          -12.18934593137380       -3.71391619388681        2.51420374199580
H          -13.84287176711426       -4.22144640368369        2.86830938336851
H          -12.37106214970407       -1.55642994657117        1.54570809387383
H          -12.06085692382997        2.37262447183010        0.89642248857603
H           -9.67245516827292        2.79601267809739        1.31885058281151
H           -3.67982694510812       -2.10202578742888        0.56506311229033
H           -1.29531858301133       -2.60493700682199        0.46202030028773
H            4.57412314872483        2.26001231599241       -0.99523247997928
H            6.94617776467522        2.76462762427902       -1.24798363525794
H           12.13813229500604       -1.59328243730637       -1.80127375763109

 projected vibrational frequencies (cm⁻¹)
eigval :       -0.00    -0.00    -0.00    -0.00     0.00     0.00
eigval :        2.22     5.43     6.68    13.17    13.49    14.78
eigval :       15.18    16.21    26.58    26.81    28.16    28.89
eigval :       33.99    38.11    40.28    42.70    52.83    56.55
eigval :       65.54    66.47    75.58    76.40    87.19    93.36
eigval :       94.22   103.08   108.73   109.18   118.58   127.82
eigval :      129.36   135.77   140.96   150.79   164.31   165.04
eigval :      180.18   182.88   190.00   193.67   199.94   205.32
eigval :      205.49   210.29   213.85   216.31   218.15   221.19
eigval :      221.70   234.92   235.32   243.05   249.37   249.84
eigval :      255.98   269.66   271.07   271.80   283.03   301.79
eigval :      302.62   306.05   311.96   316.98   322.50   322.62
eigval :      331.30   333.10   341.86   357.06   366.64   370.59
eigval :      374.66   379.46   381.01   389.44   403.75   410.93
eigval :      413.97   418.09   423.83   432.73   437.00   437.65
eigval :      441.97   446.35   454.60   455.47   468.11   483.78
eigval :      502.99   503.25   503.58   525.51   535.31   536.07
eigval :      537.84   541.45   542.14   553.37   555.85   556.75
eigval :      563.84   568.49   570.38   574.44   578.37   579.25
eigval :      581.25   587.12   588.92   594.28   616.73   618.96
eigval :      624.16   628.03   628.63   642.53   657.14   657.94
eigval :      661.43   664.78   674.95   679.96   681.65   684.94
eigval :      685.51   705.83   711.74   712.31   716.87   722.04
eigval :      736.08   749.05   751.53   759.37   769.23   784.98
eigval :      786.07   798.29   798.97   806.47   807.17   814.92
eigval :      815.93   820.19   821.39   835.48   837.67   849.89
eigval :      859.50   861.20   864.32   870.92   872.87   874.12
eigval :      877.12   878.09   883.55   884.70   885.52   889.10
eigval :      889.19   892.20   892.22   901.62   903.41   903.91
eigval :      904.48   908.32   908.57   924.93   924.93   927.18
eigval :      927.30   927.33   927.43   936.61   940.97   952.39
eigval :      955.79   963.73   963.82   964.75   964.81   965.19
eigval :      974.70   976.81   986.39   986.56  1000.50  1000.57
eigval :     1004.63  1005.56  1010.38  1011.43  1011.47  1023.54
eigval :     1030.36  1030.48  1034.55  1034.82  1040.53  1052.51
eigval :     1061.97  1066.55  1067.54  1082.14  1082.29  1098.23
eigval :     1105.55  1106.17  1121.52  1121.58  1132.67  1132.85
eigval :     1142.10  1149.11  1162.59  1164.19  1164.66  1170.22
eigval :     1171.24  1174.05  1175.12  1175.16  1177.99  1178.06
eigval :     1185.18  1186.92  1187.72  1194.83  1194.95  1214.36
eigval :     1215.42  1217.20  1220.05  1224.22  1226.86  1235.74
eigval :     1238.67  1242.21  1251.28  1260.15  1260.44  1261.01
eigval :     1268.65  1271.84  1271.89  1277.54  1277.62  1286.77
eigval :     1290.28  1295.93  1310.16  1311.72  1316.89  1319.84
eigval :     1320.17  1322.54  1323.88  1327.74  1329.34  1329.46
eigval :     1335.33  1340.75  1346.27  1350.88  1378.06  1380.52
eigval :     1388.66  1392.51  1392.67  1392.72  1402.11  1402.20
eigval :     1408.20  1408.21  1408.47  1413.54  1428.01  1432.30
eigval :     1435.31  1437.78  1437.87  1439.17  1441.26  1448.26
eigval :     1457.77  1459.55  1459.84  1468.52  1469.36  1469.79
eigval :     1474.81  1474.85  1477.30  1477.90  1478.33  1479.96
eigval :     1483.90  1484.13  1485.02  1485.05  1485.22  1487.18
eigval :     1487.26  1487.40  1491.05  1494.42  1495.01  1495.94
eigval :     1498.99  1499.67  1499.71  1508.37  1514.55  1516.72
eigval :     1551.23  1561.07  1573.51  1573.76  1577.04  1577.46
eigval :     1579.16  1589.00  1590.04  1590.38  1594.60  1596.77
eigval :     1599.84  1605.12  1610.41  3001.38  3002.48  3023.90
eigval :     3023.92  3024.02  3024.80  3024.98  3025.72  3027.56
eigval :     3027.57  3027.57  3028.23  3028.34  3030.78  3031.15
eigval :     3031.21  3033.91  3034.30  3034.86  3034.94  3036.08
eigval :     3036.27  3043.31  3043.94  3068.03  3069.52  3069.70
eigval :     3071.34  3075.58  3075.68  3076.17  3076.22  3076.65
eigval :     3076.68  3077.48  3077.59  3077.94  3078.00  3079.04
eigval :     3079.42  3080.30  3080.40  3080.75  3081.32  3085.34
eigval :     3085.41  3086.87  3086.93  3087.78  3089.06  3089.30
eigval :     3089.54  3089.92  3090.11  3090.64  3092.26  3093.57
eigval :     3093.73  3097.49  3097.75

   temp. (K)  partition function   enthalpy   heat capacity  entropy
                                   cal/mol     cal/K/mol   cal/K/mol   J/K/mol
 298.15  VIB  0.133E+35            39531.905    238.442    251.904
         ROT  0.536E+09              888.752      2.981     42.925
         INT  0.715E+43            40420.657    241.423    294.830
         TR   0.279E+29             1481.254      4.968     46.380
         TOT                       41901.9113   246.3913   341.2098  1427.6217

       T/K    H(0)-H(T)+PV         H(T)/Eh          T*S/Eh         G(T)/Eh
   ------------------------------------------------------------------------
    298.15    0.667749E-01    0.113475E+01    0.162120E+00    0.972633E+00
   ------------------------------------------------------------------------

         :::::::::::::::::::::::::::::::::::::::::::::::::::::
         ::                  THERMODYNAMIC                  ::
         :::::::::::::::::::::::::::::::::::::::::::::::::::::
         :: total free energy        -187.557388728214 Eh   ::
         ::.................................................::
         :: total energy             -188.530022040595 Eh   ::
         :: zero point energy           1.067978141147 Eh   ::
         :: G(RRHO) w/o ZPVE           -0.095344828767 Eh   ::
         :: G(RRHO) contrib.            0.972633312381 Eh   ::
         :::::::::::::::::::::::::::::::::::::::::::::::::::::

           -------------------------------------------------
          | TOTAL ENERGY             -188.530022040595 Eh   |
          | TOTAL ENTHALPY           -187.395268953359 Eh   |
          | TOTAL FREE ENERGY        -187.557388728214 Eh   |
          | GRADIENT NORM               0.000073186871 Eh/α |
           -------------------------------------------------

 * finished run on 2025/09/05 at 14:39:24.215
