   * xtb version 6.7.1 (edcfbbe) compiled by 'albert@albert-system' on 2024-07-22

   ID    Z sym.   atoms
    1    6 C      1-6, 8-49, 51-73
    2    7 N      7, 50
    3    1 H      74-133

          program call               : xtb data2507/gas/MDP3FL/MDP3FL_gas_S0_finalOpt.xtbopt.xyz --gfn 2 --spinpol --tblite --uhf 2 --ohess vtight --parallel 40 --molden --ceasefiles --namespace data2507/gas/MDP3FL/MDP3FL_gas_T1_preOpt
 * total energy  :  -188.5216168 Eh     change       -0.1799631E-07 Eh
 * total energy  :  -188.5259274 Eh     change       -0.4310639E-02 Eh
 * total energy  :  -188.5277201 Eh     change       -0.1792737E-02 Eh
 * total energy  :  -188.5280778 Eh     change       -0.3576962E-03 Eh
 * total energy  :  -188.5285270 Eh     change       -0.4491976E-03 Eh
 * total energy  :  -188.5287674 Eh     change       -0.2404184E-03 Eh
 * total energy  :  -188.5289445 Eh     change       -0.1770433E-03 Eh
 * total energy  :  -188.5290496 Eh     change       -0.1050646E-03 Eh
 * total energy  :  -188.5291277 Eh     change       -0.7819074E-04 Eh
 * total energy  :  -188.5292080 Eh     change       -0.8025386E-04 Eh
 * total energy  :  -188.5299359 Eh     change       -0.4038885E-06 Eh
 * total energy  :  -188.5299364 Eh     change       -0.5144976E-06 Eh
 * total energy  :  -188.5299368 Eh     change       -0.4077409E-06 Eh
 * total energy  :  -188.5299372 Eh     change       -0.3626746E-06 Eh
 * total energy  :  -188.5299374 Eh     change       -0.2647149E-06 Eh
 * total energy  :  -188.5299378 Eh     change       -0.3263684E-06 Eh
 * total energy  :  -188.5299380 Eh     change       -0.2314650E-06 Eh
 * total energy  :  -188.5299381 Eh     change       -0.1259688E-06 Eh
 * total energy  :  -188.5299382 Eh     change       -0.4348135E-07 Eh
   *** GEOMETRY OPTIMIZATION CONVERGED AFTER 69 ITERATIONS ***

 final structure:
================
133
 xtb: 6.7.1 (edcfbbe)
C           10.59074513575399       -4.58513197509072       -2.98881254907325
C           11.48272660511088       -4.17160273308961       -1.85771642919771
C           12.26320722555079       -5.11638949346191       -1.19801209786878
C           13.09772716650204       -4.73367376258815       -0.16301256596272
C           13.16348784056121       -3.41258177591724        0.23578031814144
C           12.39066100688599       -2.45293865774816       -0.41659832114430
N           12.43874147433200       -1.11162092327476       -0.02182078585848
C           13.64882248804106       -0.54933958798673        0.39347613803230
C           14.84673901234883       -0.91030418649690       -0.22496606968338
C           16.03934106324614       -0.35217336289903        0.19073927723698
C           16.05981239517659        0.57551430050609        1.21986150443215
C           14.87287067689564        0.93975311819692        1.83527754736253
C           13.67557078785841        0.38300914321469        1.43169797143826
C           11.27677077078623       -0.33829166890156       -0.04793076988265
C           11.33511338561177        1.01462314020199       -0.40695246180824
C           10.19705928241138        1.78854660216941       -0.45287640772453
C            8.96646022737040        1.20883852303422       -0.14331753107079
C            8.90719523250086       -0.15534196511784        0.21954515161705
C           10.04030846073016       -0.92077236392264        0.27413614708858
C            7.48079192000313       -0.56618604467325        0.50730519685786
C            7.02712994571375       -1.67138015304455       -0.45153431572718
C            7.31738158890283       -1.01836251689994        1.96150251753008
C            6.73627100148493        0.72655320006689        0.24884932702205
C            5.39680323951381        0.96863326122460        0.33508159335738
C            4.88642930957569        2.26340496105349        0.06898918248202
C            3.47888469911536        2.53521917212614        0.14496942357795
C            2.99304156685434        3.84204932395696        0.40929361297171
C            1.65855602804347        4.12625377876717        0.47994341863622
C            0.72224717727709        3.09834792537274        0.26686286207172
C            1.19214571077622        1.78016451413137        0.00049682631136
C            2.52240122436398        1.50302680015803       -0.04898660839755
C            0.02119444379597        0.84447898399631       -0.21216373489593
C            0.00775204778456       -0.27251472628637        0.83618009522959
C            0.03823354536534        0.25158342782277       -1.62472032537045
C           -1.15365958816403        1.78128478400490       -0.02820696864139
C           -2.48300670725495        1.50546550754158       -0.10997350942120
C           -3.44157454012026        2.53885305461508        0.05960697460547
C           -4.84858156985576        2.26891413835345       -0.05139198981584
C           -5.75871554003303        3.27794453293987       -0.44412750490957
C           -7.10217477157009        3.03806302191495       -0.58121937633930
C           -7.59814958267563        1.76092070082213       -0.30983715378480
C           -6.70695657807411        0.74009563836718        0.09613335351703
C           -5.36891295728944        0.97943996821060        0.21600645675241
C           -7.46303189520299       -0.54706442477613        0.34901098423482
C           -6.97742473736065       -1.66879604092449       -0.57319477638859
C           -7.35334598467225       -0.97475918400312        1.81629656625076
C           -8.87959969602525       -0.13518772922785        0.01724777795620
C          -10.01700973673662       -0.89626129447992        0.04908071360591
C          -11.24438562486839       -0.30741684403787       -0.29359774012293
N          -12.41663560626072       -1.06561323744565       -0.25341073097262
C          -13.41861976913116       -0.85945772292728       -1.20527025546517
C          -13.08611327930989       -0.55741613835670       -2.52674907168236
C          -14.07892446884019       -0.34921293222128       -3.46336583407193
C          -15.41406664374853       -0.44396486789987       -3.10475539891247
C          -15.74979221644992       -0.74690123992136       -1.79496289901388
C          -14.76485476645071       -0.95031883105591       -0.84878321911210
C          -12.58473706168470       -2.03270146996400        0.74319038839717
C          -13.23059519563437       -3.23622358214261        0.46345813684408
C          -13.38124219622286       -4.18173554020657        1.45937844149722
C          -12.88747320254076       -3.95050042241664        2.73099733056197
C          -12.23693326562934       -2.75614540184959        3.02592051140066
C          -11.71784755661907       -2.49867378416545        4.40804432885884
C          -12.09683819367103       -1.80485704232125        2.03027728620358
C          -11.28863090687699        1.04224921437587       -0.66504193308782
C          -10.14423686349941        1.80772965474132       -0.70281759968342
C           -8.92452752126165        1.22494193936913       -0.36037620620182
C           -2.96215996042666        3.84489412000457        0.33475059960917
C           -1.62925546005536        4.12791159156221        0.43888717141368
C           -0.68939643871224        3.09895209395268        0.24936491849527
C            5.81155460917556        3.27450653965930       -0.28531486370880
C            7.15708431382998        3.03216745659918       -0.38769299029788
C            7.64232026392603        1.74923476767589       -0.12048079010542
C           11.55846597786462       -2.84655117830151       -1.46511628959233
H            9.92103831190968       -3.77741268160930       -3.27277536834611
H            9.99665889220131       -5.45332140524221       -2.70887784650170
H           11.18900049799590       -4.85855695203726       -3.85789377152520
H           12.21370022788445       -6.15258712187772       -1.49834358203097
H           13.69632015952261       -5.47366946649370        0.34754494794910
H           13.80280955323004       -3.11838713663000        1.05475776454387
H           14.83139255199958       -1.62425154956303       -1.03542980846500
H           16.95908219360097       -0.63731143162543       -0.29849190452307
H           16.99391919845015        1.01143171481556        1.53981692669027
H           14.88037822378130        1.65756547943112        2.64223629418352
H           12.75238610638920        0.65904303473687        1.91968826038503
H           12.29220794721602        1.44455024194652       -0.66500704733950
H           10.25690562392298        2.82721370095743       -0.74091013782162
H           10.00313732386209       -1.96063092063283        0.56485627579703
H            7.62833031915696       -2.56689249535480       -0.30934875257415
H            7.13367065323449       -1.34005012356845       -1.48255379662695
H            5.98352464102152       -1.92034018377555       -0.27399333997512
H            7.90995753325371       -1.91093131039702        2.14981683475771
H            6.27403014416755       -1.24113868574571        2.17235848452852
H            7.64672559101494       -0.23223121612274        2.63768776537128
H            4.72363230031225        0.18441221162572        0.64710621170989
H            3.70509307593823        4.63044720228547        0.60251828645716
H            1.31964736319949        5.12770315916310        0.70215824600745
H            2.85988303921587        0.50486935268508       -0.28513592094050
H           -0.00409347631431        0.15291474947710        1.83761176297878
H           -0.87481619763576       -0.89643969498269        0.71338205226911
H            0.89218258591491       -0.89764439202632        0.73485874579117
H            0.04737642396503        1.04866391838932       -2.36520068810567
H            0.92391267372140       -0.36372439210177       -1.76687090881414
H           -0.84388316165561       -0.36347960287525       -1.78840023229434
H           -2.81656320255612        0.50767090654502       -0.35347973420727
H           -5.37744653633010        4.25835490139228       -0.68645542032386
H           -7.76939926620988        3.82475118485309       -0.90259290198482
H           -4.70621746990917        0.19733681984559        0.55488298106517
H           -5.93800399298420       -1.90796133159132       -0.36085722618599
H           -7.57705245093475       -2.56480105661476       -0.42888506039628
H           -7.05681978771627       -1.36013444416467       -1.61349443813532
H           -7.96411564824692       -1.85610997132835        2.00036451499480
H           -7.69453054750881       -0.17198743204611        2.46682152467923
H           -6.32061870055751       -1.20642523487418        2.06611730396459
H           -9.98768669085009       -1.94069496250349        0.32391866492360
H          -12.04576829558883       -0.49464247711878       -2.81019813358020
H          -13.80801968072379       -0.11943250055054       -4.48333471578242
H          -16.18717247593626       -0.28279727588176       -3.84048458394279
H          -16.78797883746721       -0.81678885317261       -1.50535354250347
H          -15.02897470750335       -1.17425988120260        0.17438678746930
H          -13.60190252594860       -3.42541810828864       -0.53270372430928
H          -13.87978965095128       -5.11367285677842        1.23678080813401
H          -13.00476053438420       -4.69836797373969        3.50125239576229
H          -12.54669943581780       -2.30891550531834        5.09011457703433
H          -11.17372458304666       -3.36485895676895        4.78005604691354
H          -11.05767492052193       -1.63518430577544        4.42209429961443
H          -11.60589645994359       -0.86689687426734        2.24728972889450
H          -12.24334938387892        1.48383073126626       -0.91197671567099
H          -10.19531357239642        2.84894496817627       -0.98319005712398
H           -3.67855147698133        4.63378914446709        0.50938958536402
H           -1.29498015982684        5.12905178077096        0.66928623244291
H            5.44061340960630        4.25919685786350       -0.52610283338818
H            7.83534585903757        3.82073944192180       -0.68013969512140
H           10.96904287584725       -2.09902092606264       -1.97661831536421

 projected vibrational frequencies (cm⁻¹)
eigval :       -0.00    -0.00    -0.00    -0.00     0.00     0.00
eigval :        3.76     4.67     8.27    10.48    19.19    20.37
eigval :       21.71    22.39    24.37    27.00    31.05    32.94
eigval :       35.15    37.33    41.14    48.34    52.73    56.89
eigval :       61.66    71.19    75.97    82.23    82.35    95.12
eigval :       98.93   102.47   110.01   115.80   117.02   123.83
eigval :      129.91   132.45   135.14   154.32   166.30   171.44
eigval :      174.34   190.71   193.58   194.52   205.00   205.98
eigval :      206.35   213.71   216.43   217.76   220.15   227.80
eigval :      230.53   234.14   235.25   238.60   248.51   250.11
eigval :      258.14   261.94   269.72   272.19   273.23   301.39
eigval :      302.10   308.31   313.90   318.52   319.60   325.10
eigval :      330.94   336.88   343.29   348.17   368.27   369.99
eigval :      376.74   380.07   381.78   390.85   398.45   404.88
eigval :      412.48   413.81   419.42   426.33   435.22   438.46
eigval :      444.06   454.73   456.10   462.24   469.16   486.75
eigval :      503.24   503.48   505.23   528.63   532.49   535.98
eigval :      536.85   539.13   546.80   552.39   554.71   558.77
eigval :      566.49   568.87   573.27   574.18   578.38   578.81
eigval :      580.38   586.35   588.77   592.61   616.93   619.05
eigval :      624.58   628.61   629.66   643.56   657.49   658.30
eigval :      661.81   665.27   675.06   680.76   681.16   685.01
eigval :      685.69   706.00   711.80   712.91   716.89   722.62
eigval :      734.81   749.77   752.42   760.43   769.72   786.21
eigval :      787.29   799.07   800.60   805.24   809.84   815.78
eigval :      817.36   821.52   823.45   837.20   838.18   855.53
eigval :      856.83   858.69   867.40   870.33   874.15   874.71
eigval :      878.37   878.88   882.97   886.12   886.72   890.22
eigval :      890.47   893.44   893.49   903.16   904.35   907.06
eigval :      908.47   910.04   910.24   926.10   926.10   928.35
eigval :      928.59   928.66   928.80   936.50   941.09   952.34
eigval :      955.75   963.96   964.31   965.18   965.48   965.76
eigval :      974.83   976.98   986.51   986.70  1001.07  1001.18
eigval :     1004.81  1005.73  1011.36  1012.40  1012.45  1024.21
eigval :     1031.46  1031.48  1034.99  1035.44  1040.39  1051.68
eigval :     1062.10  1067.14  1068.39  1082.81  1083.00  1099.03
eigval :     1107.02  1107.71  1122.72  1122.81  1133.09  1134.06
eigval :     1134.07  1158.00  1158.86  1165.52  1166.16  1170.40
eigval :     1174.10  1175.23  1175.29  1176.70  1180.31  1180.34
eigval :     1188.90  1189.10  1196.70  1196.90  1200.30  1213.30
eigval :     1214.34  1218.00  1220.91  1226.67  1228.03  1236.63
eigval :     1242.09  1245.55  1251.42  1253.77  1260.22  1260.76
eigval :     1263.14  1273.24  1273.29  1277.98  1278.88  1282.28
eigval :     1289.27  1291.54  1308.67  1309.84  1319.87  1319.96
eigval :     1320.95  1323.41  1328.24  1329.20  1329.40  1329.49
eigval :     1336.85  1340.99  1350.79  1355.61  1372.82  1379.44
eigval :     1384.79  1394.45  1394.67  1394.69  1404.28  1404.30
eigval :     1410.19  1410.33  1410.59  1414.08  1428.30  1431.24
eigval :     1435.67  1437.18  1438.59  1439.45  1441.22  1452.97
eigval :     1458.14  1460.58  1462.31  1463.27  1469.61  1469.83
eigval :     1475.22  1475.46  1480.24  1480.32  1480.57  1481.71
eigval :     1486.56  1486.63  1487.47  1487.70  1487.72  1487.95
eigval :     1490.24  1490.38  1490.74  1497.15  1497.43  1498.29
eigval :     1501.81  1502.78  1503.37  1508.56  1513.66  1515.62
eigval :     1549.55  1560.48  1573.37  1573.69  1576.90  1577.29
eigval :     1579.97  1589.19  1589.84  1590.22  1594.53  1596.49
eigval :     1599.80  1605.08  1610.28  3002.34  3003.51  3024.43
eigval :     3024.50  3024.60  3024.92  3025.25  3026.50  3027.38
eigval :     3027.89  3028.02  3028.84  3028.92  3031.42  3032.00
eigval :     3032.04  3035.16  3036.16  3036.48  3036.53  3037.46
eigval :     3037.65  3044.48  3045.03  3069.62  3071.00  3071.74
eigval :     3073.79  3075.68  3076.30  3076.52  3076.63  3077.15
eigval :     3077.20  3077.65  3077.70  3078.35  3078.46  3078.93
eigval :     3078.97  3081.23  3081.27  3084.75  3085.17  3085.69
eigval :     3086.09  3086.22  3086.34  3087.83  3087.86  3090.25
eigval :     3090.36  3091.11  3091.18  3093.20  3094.09  3094.40
eigval :     3094.66  3098.26  3098.58

   temp. (K)  partition function   enthalpy   heat capacity  entropy
                                   cal/mol     cal/K/mol   cal/K/mol   J/K/mol
 298.15  VIB  0.162E+34            39434.751    238.591    249.857
         ROT  0.592E+09              888.752      2.981     43.123
         INT  0.958E+42            40323.504    241.571    292.979
         TR   0.279E+29             1481.254      4.968     46.380
         TOT                       41804.7575   246.5396   339.3592  1419.8788

       T/K    H(0)-H(T)+PV         H(T)/Eh          T*S/Eh         G(T)/Eh
   ------------------------------------------------------------------------
    298.15    0.666201E-01    0.113527E+01    0.161240E+00    0.974034E+00
   ------------------------------------------------------------------------

         :::::::::::::::::::::::::::::::::::::::::::::::::::::
         ::                  THERMODYNAMIC                  ::
         :::::::::::::::::::::::::::::::::::::::::::::::::::::
         :: total free energy        -187.555904227977 Eh   ::
         ::.................................................::
         :: total energy             -188.529938164196 Eh   ::
         :: zero point energy           1.068654306537 Eh   ::
         :: G(RRHO) w/o ZPVE           -0.094620370317 Eh   ::
         :: G(RRHO) contrib.            0.974033936219 Eh   ::
         :::::::::::::::::::::::::::::::::::::::::::::::::::::

           -------------------------------------------------
          | TOTAL ENERGY             -188.529938164196 Eh   |
          | TOTAL ENTHALPY           -187.394663735975 Eh   |
          | TOTAL FREE ENERGY        -187.555904227977 Eh   |
          | GRADIENT NORM               0.000109166555 Eh/α |
           -------------------------------------------------

 * finished run on 2025/09/05 at 13:53:23.107
