   * xtb version 6.7.1 (edcfbbe) compiled by 'albert@albert-system' on 2024-07-22

   ID    Z sym.   atoms
    1    6 C      1-6, 8-49, 51-73
    2    7 N      7, 50
    3    1 H      74-133

          program call               : xtb data2507/gas/MDP3FL/MDP3FL_gas_S0_crest.xyz --gfn 2 --ohess vtight --parallel 40 --molden --ceasefiles --namespace data2507/gas/MDP3FL/MDP3FL_gas_S0_finalOpt
          :  Hamiltonian                  GFN2-xTB          :
 * total energy  :  -188.6089971 Eh     change       -0.2452282E-08 Eh
 * total energy  :  -188.6090010 Eh     change       -0.3879434E-05 Eh
 * total energy  :  -188.6090031 Eh     change       -0.2105407E-05 Eh
 * total energy  :  -188.6090066 Eh     change       -0.3521471E-05 Eh
 * total energy  :  -188.6090098 Eh     change       -0.3209554E-05 Eh
 * total energy  :  -188.6090134 Eh     change       -0.3559016E-05 Eh
 * total energy  :  -188.6090159 Eh     change       -0.2518369E-05 Eh
 * total energy  :  -188.6090177 Eh     change       -0.1747660E-05 Eh
 * total energy  :  -188.6090197 Eh     change       -0.2009235E-05 Eh
 * total energy  :  -188.6090226 Eh     change       -0.2908891E-05 Eh
 * total energy  :  -188.6090977 Eh     change       -0.3868123E-06 Eh
 * total energy  :  -188.6090981 Eh     change       -0.3734511E-06 Eh
 * total energy  :  -188.6090985 Eh     change       -0.3764706E-06 Eh
 * total energy  :  -188.6090988 Eh     change       -0.3050093E-06 Eh
 * total energy  :  -188.6090991 Eh     change       -0.2746914E-06 Eh
 * total energy  :  -188.6090994 Eh     change       -0.3161863E-06 Eh
 * total energy  :  -188.6090998 Eh     change       -0.3909751E-06 Eh
 * total energy  :  -188.6091002 Eh     change       -0.4093541E-06 Eh
 * total energy  :  -188.6091002 Eh     change       -0.6821381E-08 Eh
   *** GEOMETRY OPTIMIZATION CONVERGED AFTER 68 ITERATIONS ***

 final structure:
================
133
 xtb: 6.7.1 (edcfbbe)
C           10.59808964394110       -4.71850192363269       -2.80463879834419
C           11.51012743508440       -4.24209406632721       -1.71440187413749
C           12.31841269635502       -5.14504150365971       -1.03122449140279
C           13.17153392844497       -4.70285660014089       -0.03623389288912
C           13.22777364713983       -3.36351496718118        0.29869361778490
C           12.42808234589116       -2.44508154341718       -0.37881400549603
N           12.47032063508200       -1.08488305626029       -0.05002048397143
C           13.68431350309604       -0.48964586692810        0.30748836343989
C           14.87015954718585       -0.86519301748809       -0.32376023437886
C           16.06697210717491       -0.27768260785860        0.03663494815684
C           16.10317774863631        0.69594050231391        1.02142344398227
C           14.92782688578699        1.07578884432521        1.64864190926865
C           13.72723491976377        0.48823558400057        1.30141428156085
C           11.29707445609597       -0.32473317005172       -0.08310355098792
C           11.32861738657458        1.00332828075348       -0.51502868275655
C           10.17651956975020        1.76469312294294       -0.56201817579511
C            8.97286513081337        1.18931273917787       -0.18609687132175
C            8.93604609875720       -0.14565115301575        0.24579643739083
C           10.08261476060787       -0.89901993836531        0.30821350570856
C            7.52377528062452       -0.55750898019717        0.59492557010109
C            7.05419490540382       -1.70772903529019       -0.30107086301576
C            7.40727840889328       -0.94576595438352        2.07159642058026
C            6.75823630097726        0.71398638686127        0.30141495240010
C            5.40980384763841        0.95125178383837        0.42248932901783
C            4.90051620243083        2.21258310158956        0.09958578213365
C            3.46062047905849        2.47823772544538        0.21189792042844
C            3.00003692111987        3.68909985695183        0.72975341712435
C            1.64815793803034        3.95855357688558        0.83960446951888
C            0.73960211287195        3.00136967698078        0.41767869037099
C            1.19127145744651        1.78032477584462       -0.10549335039147
C            2.53660525809322        1.51595232449205       -0.20555534313918
C            0.02446173357434        0.90459134600942       -0.50490271775951
C            0.01274070677425       -0.40198861212526        0.29413916762762
C            0.04377296999362        0.61321606379151       -2.00852801797078
C           -1.15108581650648        1.78189188927142       -0.13588855333315
C           -2.49368810048532        1.51872983829576       -0.26976952950071
C           -3.42685172986596        2.48208905507406        0.12394418338494
C           -4.86365609330664        2.21601576016714       -0.02217089750688
C           -5.72433106848689        3.21009850607869       -0.48801771136478
C           -7.07761700350893        2.97507126119071       -0.64830832288961
C           -7.58105259331709        1.72397520729475       -0.32982933958197
C           -6.72548336821525        0.71872847327952        0.14719935339835
C           -5.38008070339980        0.95668132672011        0.29692934757950
C           -7.49792015491302       -0.55017609393308        0.43342209188581
C           -6.99430256236343       -1.71382138643253       -0.42474161851561
C           -7.43338167338817       -0.91307396907235        1.92044462484077
C           -8.90056966681768       -0.14286407340896        0.04277173306230
C          -10.04728555590219       -0.89771664450366        0.07796365333234
C          -11.25754707407029       -0.31643144247295       -0.31583342346743
N          -12.43831488004114       -1.06438195000181       -0.26636139114004
C          -13.41558370334825       -0.90253764640571       -1.25321230297043
C          -13.05040427006477       -0.67416109333336       -2.58011380950176
C          -14.01914588654667       -0.51313365933564       -3.55109284507053
C          -15.36281312877785       -0.58466024087276       -3.22165714191588
C          -15.73113716553650       -0.81462422969018       -1.90614893885811
C          -14.77009293805993       -0.96838746534661       -0.92630149022336
C          -12.63614045552641       -1.98097467054892        0.77319923183818
C          -13.27904851932621       -3.19460590002756        0.53735430423539
C          -13.46133434015163       -4.08893704880738        1.57478886542676
C          -13.00027330860783       -3.79712839122665        2.84582364438028
C          -12.35253644636740       -2.59185613026541        3.09744810232923
C          -11.86717520149663       -2.26845230872716        4.47842410279007
C          -12.18275379971778       -1.69130929141742        2.05988448382009
C          -11.28103427466374        1.01173837164205       -0.74760466560620
C          -10.12398734784617        1.76559642815141       -0.79537209201502
C           -8.92810112642628        1.19039735606752       -0.39511970912752
C           -2.97855655263133        3.69313025881172        0.65187662842724
C           -1.62959546387116        3.96112095615140        0.79621981926794
C           -0.71162919891164        3.00246902399403        0.39863504396353
C            5.77196423619529        3.20975913378895       -0.33907926658855
C            7.12870763805601        2.97606262811703       -0.46881095198412
C            7.62467645252254        1.72253599305364       -0.14821576140790
C           11.57770854655532       -2.89871660265793       -1.38677783917951
H            9.89047500646661       -3.94324779243149       -3.08772517442739
H           10.04586200165569       -5.60008731218303       -2.48394060455750
H           11.17848027319679       -4.99242184673205       -3.68578829412410
H           12.27621081345508       -6.19488177519650       -1.28152795182112
H           13.79280532365651       -5.40999250346460        0.49374707353040
H           13.88423806775874       -3.02298738175475        1.08558882383733
H           14.84343628688128       -1.61707705159906       -1.09892619319449
H           16.97744648608534       -0.57645119556032       -0.46204218649801
H           17.04015337623613        1.15515151907209        1.29787031651561
H           14.94676267551480        1.83014523886237        2.42162504501565
H           12.81354039664114        0.77915611427961        1.79886115449974
H           12.27157447700792        1.43180823388185       -0.82192544554926
H           10.21764331984116        2.78882024636071       -0.90167384721372
H           10.06332317917899       -1.92310748993471        0.65147987290034
H            7.67052405898357       -2.58910329035928       -0.13822102027547
H            7.12689774929025       -1.42083819445050       -1.34826287989802
H            6.01943637636749       -1.96014714581181       -0.08112257180663
H            8.01748974402211       -1.82132779596658        2.28115660757058
H            6.37364817083434       -1.17245663376631        2.32263568619474
H            7.74566861562438       -0.12651540509053        2.70248839686220
H            4.74250238332627        0.18215812339301        0.78435218506224
H            3.71832382906465        4.42077999736712        1.07041341452640
H            1.30940795327572        4.89910806443852        1.24858462633276
H            2.88836268594856        0.58485838431865       -0.62634386566532
H           -0.00016572285574       -0.18964636459839        1.36131490864614
H           -0.86857139051254       -0.98891515713680        0.04556897324742
H            0.89804820970372       -0.99171334271833        0.06743218580552
H            0.05037912511551        1.54457185357590       -2.57091912721067
H            0.93144365131474        0.04260406482256       -2.27189891284008
H           -0.83619006274086        0.04151400834720       -2.29443454616399
H           -2.83591853985850        0.58778399044548       -0.69869279508113
H           -5.31661302394338        4.17547383083160       -0.75107554100701
H           -7.72792782885819        3.75367087833898       -1.01907261935321
H           -4.72114692477512        0.19036079707467        0.67943682013715
H           -5.96356390256005       -1.95121077656591       -0.17157085290787
H           -7.60564204721573       -2.59792388376849       -0.25915839246860
H           -7.04175501916874       -1.45042633000774       -1.47937547588318
H           -8.05989672772782       -1.77847692609536        2.12504744402439
H           -7.78352986991058       -0.07897989261966        2.52516263337225
H           -6.41091803824607       -1.14501614836934        2.20946488825767
H          -10.03162372066848       -1.92791644808662        0.40264774245942
H          -12.00329894073028       -0.62803642156598       -2.84159228271003
H          -13.72197494086262       -0.33938355430969       -4.57502854544571
H          -16.11701763667665       -0.46214880735289       -3.98414808980943
H          -16.77640742882211       -0.86632572143694       -1.63846804860358
H          -15.06043263929679       -1.13779550856833        0.10030050270917
H          -13.62712884368542       -3.43122158773407       -0.45711579087582
H          -13.95893074449851       -5.02881720272859        1.38521779415793
H          -13.14114540846126       -4.50535964445266        3.64903688244560
H          -12.71292067848511       -2.06334162060074        5.13479212566610
H          -11.31828387385550       -3.10982014439487        4.89786923285223
H          -11.21978137918633       -1.39516572190342        4.46975170067195
H          -11.69155680154832       -0.74621197126607        2.24361273597026
H          -12.22369793775870        1.45006152717353       -1.04127644479469
H          -10.15954076443633        2.79191818158214       -1.12898552519248
H           -3.70469945738897        4.42586600728500        0.97313439344458
H           -1.30039706255947        4.90158603839814        1.21312737550142
H            5.37060094364817        4.17689603146122       -0.60535431508506
H            7.78739202648271        3.75750108870218       -0.81820101976078
H           10.96408759933506       -2.18471935028734       -1.91772627882810

          :  Hamiltonian                  GFN2-xTB          :
         :: gradient norm              0.000053811284 Eh/a0 ::
         :: HOMO-LUMO gap              2.211813506055 eV    ::
         :: SCC energy              -192.116229701287 Eh    ::
         :: -> dispersion             -0.180779915246 Eh    ::
         :: repulsion energy           3.507129525500 Eh    ::

    * Orbital Energies and Occupations

         #    Occupation            Energy/Eh            Energy/eV
      -------------------------------------------------------------
         1        2.0000           -0.6602862             -17.9673
       ...           ...                  ...                  ...
       165        2.0000           -0.3983400             -10.8394
       166        2.0000           -0.3979940             -10.8300
       167        2.0000           -0.3971741             -10.8077
       168        2.0000           -0.3936916             -10.7129
       169        2.0000           -0.3934675             -10.7068
       170        2.0000           -0.3925747             -10.6825
       171        2.0000           -0.3924734             -10.6797
       172        2.0000           -0.3918493             -10.6628
       173        2.0000           -0.3850343             -10.4773
       174        2.0000           -0.3759510             -10.2301
       175        2.0000           -0.3622959              -9.8586
       176        2.0000           -0.3426689              -9.3245
       177        2.0000           -0.3417749              -9.3002 (HOMO)
       178                         -0.2604923              -7.0884 (LUMO)
       179                         -0.2481383              -6.7522
       180                         -0.2332712              -6.3476
       181                         -0.2262584              -6.1568
       182                         -0.2261552              -6.1540
       183                         -0.2224270              -6.0525
       184                         -0.2223607              -6.0507
       185                         -0.2175775              -5.9206
       186                         -0.2175585              -5.9201
       187                         -0.2169901              -5.9046
       188                         -0.2159617              -5.8766
       ...                                ...                  ...
       352                          0.7496135              20.3980
      -------------------------------------------------------------
                  HL-Gap            0.0812826 Eh            2.2118 eV

     #   Z          covCN         q      C6AA      α(0)
     1   6 C        3.758    -0.109    22.626     6.782
     2   6 C        2.966     0.017    27.622     8.621
     3   6 C        2.924    -0.050    29.233     8.867
     4   6 C        2.918    -0.032    28.790     8.799
     5   6 C        2.922    -0.053    29.321     8.880
     6   6 C        2.923     0.064    26.575     8.454
     7   7 N        2.753    -0.074    22.681     7.073
     8   6 C        2.924     0.065    26.534     8.447
     9   6 C        2.922    -0.048    29.187     8.860
    10   6 C        2.920    -0.030    28.739     8.791
    11   6 C        2.919    -0.039    28.969     8.826
    12   6 C        2.919    -0.030    28.739     8.791
    13   6 C        2.922    -0.048    29.184     8.859
    14   6 C        2.926     0.061    26.629     8.463
    15   6 C        2.923    -0.052    29.302     8.877
    16   6 C        2.913    -0.035    28.873     8.811
    17   6 C        3.036    -0.009    28.208     8.712
    18   6 C        3.056    -0.002    28.020     8.681
    19   6 C        2.918    -0.053    29.308     8.878
    20   6 C        3.936     0.019    20.193     6.386
    21   6 C        3.759    -0.097    22.397     6.747
    22   6 C        3.758    -0.098    22.418     6.750
    23   6 C        3.053    -0.004    28.075     8.690
    24   6 C        2.920    -0.039    28.976     8.827
    25   6 C        2.979     0.005    27.897     8.664
    26   6 C        2.979     0.006    27.873     8.660
    27   6 C        2.926    -0.039    28.959     8.825
    28   6 C        2.913    -0.036    28.886     8.813
    29   6 C        3.037    -0.003    28.056     8.688
    30   6 C        3.053    -0.003    28.055     8.687
    31   6 C        2.920    -0.039    28.976     8.827
    32   6 C        3.936     0.019    20.197     6.387
    33   6 C        3.758    -0.096    22.392     6.746
    34   6 C        3.759    -0.097    22.408     6.749
    35   6 C        3.053    -0.003    28.054     8.686
    36   6 C        2.920    -0.039    28.976     8.827
    37   6 C        2.979     0.006    27.874     8.660
    38   6 C        2.979     0.005    27.896     8.664
    39   6 C        2.926    -0.038    28.956     8.825
    40   6 C        2.913    -0.037    28.910     8.817
    41   6 C        3.037    -0.002    28.042     8.686
    42   6 C        3.054    -0.004    28.075     8.690
    43   6 C        2.920    -0.039    28.976     8.827
    44   6 C        3.936     0.019    20.193     6.386
    45   6 C        3.758    -0.097    22.412     6.749
    46   6 C        3.759    -0.097    22.404     6.748
    47   6 C        3.056    -0.002    28.019     8.681
    48   6 C        2.918    -0.053    29.305     8.877
    49   6 C        2.926     0.061    26.628     8.463
    50   7 N        2.753    -0.074    22.682     7.073
    51   6 C        2.924     0.065    26.535     8.447
    52   6 C        2.922    -0.048    29.188     8.860
    53   6 C        2.919    -0.030    28.739     8.791
    54   6 C        2.919    -0.039    28.972     8.827
    55   6 C        2.920    -0.030    28.740     8.791
    56   6 C        2.922    -0.048    29.190     8.860
    57   6 C        2.923     0.064    26.576     8.454
    58   6 C        2.922    -0.053    29.322     8.880
    59   6 C        2.918    -0.032    28.791     8.799
    60   6 C        2.924    -0.050    29.233     8.867
    61   6 C        2.966     0.017    27.621     8.620
    62   6 C        3.758    -0.109    22.627     6.782
    63   6 C        2.928    -0.058    29.444     8.899
    64   6 C        2.923    -0.052    29.298     8.876
    65   6 C        2.913    -0.035    28.873     8.811
    66   6 C        3.036    -0.009    28.207     8.711
    67   6 C        2.926    -0.039    28.959     8.825
    68   6 C        2.913    -0.036    28.886     8.813
    69   6 C        3.037    -0.003    28.056     8.688
    70   6 C        2.926    -0.038    28.956     8.825
    71   6 C        2.912    -0.037    28.910     8.817
    72   6 C        3.037    -0.002    28.042     8.686
    73   6 C        2.928    -0.058    29.445     8.899
    74   1 H        0.925     0.041     2.436     2.441
    75   1 H        0.925     0.044     2.395     2.420
    76   1 H        0.925     0.046     2.365     2.405
    77   1 H        0.926     0.029     2.606     2.524
    78   1 H        0.926     0.030     2.593     2.518
    79   1 H        0.926     0.030     2.592     2.518
    80   1 H        0.926     0.031     2.569     2.507
    81   1 H        0.926     0.030     2.583     2.513
    82   1 H        0.926     0.029     2.602     2.523
    83   1 H        0.926     0.030     2.580     2.512
    84   1 H        0.926     0.032     2.564     2.504
    85   1 H        0.926     0.030     2.583     2.513
    86   1 H        0.926     0.031     2.572     2.508
    87   1 H        0.926     0.030     2.589     2.516
    88   1 H        0.925     0.040     2.452     2.449
    89   1 H        0.925     0.034     2.527     2.486
    90   1 H        0.925     0.039     2.465     2.455
    91   1 H        0.925     0.040     2.455     2.450
    92   1 H        0.925     0.040     2.451     2.448
    93   1 H        0.925     0.036     2.509     2.477
    94   1 H        0.926     0.027     2.625     2.534
    95   1 H        0.926     0.030     2.592     2.518
    96   1 H        0.926     0.028     2.610     2.526
    97   1 H        0.926     0.027     2.623     2.533
    98   1 H        0.925     0.035     2.519     2.482
    99   1 H        0.925     0.038     2.471     2.458
   100   1 H        0.925     0.038     2.471     2.458
   101   1 H        0.925     0.035     2.511     2.478
   102   1 H        0.925     0.039     2.459     2.452
   103   1 H        0.925     0.039     2.458     2.452
   104   1 H        0.926     0.027     2.622     2.532
   105   1 H        0.926     0.029     2.595     2.519
   106   1 H        0.926     0.028     2.616     2.529
   107   1 H        0.926     0.027     2.625     2.534
   108   1 H        0.925     0.039     2.462     2.454
   109   1 H        0.925     0.039     2.457     2.451
   110   1 H        0.925     0.035     2.514     2.479
   111   1 H        0.925     0.040     2.450     2.448
   112   1 H        0.925     0.035     2.522     2.483
   113   1 H        0.925     0.040     2.453     2.449
   114   1 H        0.926     0.030     2.590     2.517
   115   1 H        0.926     0.031     2.567     2.505
   116   1 H        0.926     0.030     2.582     2.513
   117   1 H        0.926     0.029     2.604     2.523
   118   1 H        0.926     0.030     2.584     2.514
   119   1 H        0.926     0.031     2.569     2.506
   120   1 H        0.926     0.030     2.593     2.518
   121   1 H        0.926     0.029     2.594     2.519
   122   1 H        0.926     0.029     2.605     2.524
   123   1 H        0.925     0.046     2.365     2.405
   124   1 H        0.925     0.044     2.393     2.419
   125   1 H        0.925     0.041     2.435     2.440
   126   1 H        0.926     0.031     2.568     2.506
   127   1 H        0.926     0.030     2.582     2.513
   128   1 H        0.926     0.031     2.571     2.507
   129   1 H        0.926     0.030     2.593     2.518
   130   1 H        0.926     0.028     2.610     2.526
   131   1 H        0.926     0.029     2.595     2.519
   132   1 H        0.926     0.028     2.616     2.529
   133   1 H        0.926     0.031     2.568     2.506

molecular dipole:
                 x           y           z       tot (Debye)
 q only:       -0.051      -0.892       0.141
   full:       -0.053      -0.872       0.131       2.244

 projected vibrational frequencies (cm⁻¹)
eigval :       -0.00    -0.00    -0.00     0.00     0.00     0.00
eigval :        4.91     6.89     7.19    10.90    18.84    20.42
eigval :       23.14    24.32    24.85    27.93    30.96    32.61
eigval :       35.59    36.90    40.63    46.12    52.29    56.33
eigval :       63.65    71.73    76.47    82.20    85.86    94.99
eigval :       99.31   100.72   106.84   119.24   121.50   122.42
eigval :      128.51   130.39   137.38   155.13   166.53   171.58
eigval :      180.29   193.36   194.66   195.70   205.69   205.84
eigval :      210.68   215.45   217.53   219.52   220.94   230.05
eigval :      231.76   234.05   236.24   238.59   249.77   250.48
eigval :      259.42   269.81   271.78   275.19   287.84   301.59
eigval :      302.43   306.75   314.30   320.02   323.42   328.90
eigval :      331.65   340.21   343.22   351.16   371.07   376.79
eigval :      380.38   381.07   389.92   397.26   409.63   411.55
eigval :      414.92   421.56   423.87   432.50   443.89   452.66
eigval :      462.04   466.02   468.08   469.04   470.68   486.03
eigval :      503.19   503.40   504.55   526.45   529.70   531.88
eigval :      533.36   540.52   546.63   558.48   561.10   568.63
eigval :      569.04   576.83   579.30   580.51   581.86   588.20
eigval :      589.22   592.86   597.22   599.26   625.64   626.08
eigval :      629.28   643.24   648.54   651.04   658.57   659.60
eigval :      663.78   668.43   677.83   691.01   693.31   693.65
eigval :      696.66   722.08   722.34   727.49   733.95   736.45
eigval :      736.80   752.43   754.48   765.08   780.69   787.06
eigval :      788.91   802.19   813.96   815.84   820.55   826.19
eigval :      828.15   837.91   840.09   842.07   843.21   875.33
eigval :      875.33   880.53   880.88   882.35   882.44   888.07
eigval :      888.30   888.96   889.58   890.46   892.15   892.56
eigval :      892.64   897.90   910.39   910.72   911.60   913.41
eigval :      913.60   919.17   920.23   926.24   926.25   928.68
eigval :      928.69   928.98   929.08   947.49   948.61   962.13
eigval :      966.28   966.31   966.51   966.85   970.24   981.25
eigval :      984.91   987.92   989.07   992.11  1002.17  1002.22
eigval :     1010.24  1010.25  1012.95  1013.22  1013.24  1031.85
eigval :     1031.91  1035.99  1036.07  1068.80  1069.40  1071.38
eigval :     1080.14  1083.69  1083.78  1087.02  1113.46  1113.79
eigval :     1115.35  1122.92  1123.02  1134.31  1134.36  1155.07
eigval :     1155.39  1158.45  1160.73  1165.51  1169.15  1174.79
eigval :     1175.34  1175.83  1176.32  1176.37  1180.84  1180.84
eigval :     1189.94  1190.03  1198.00  1198.09  1213.58  1215.19
eigval :     1215.99  1217.10  1226.67  1228.70  1236.01  1237.42
eigval :     1242.80  1242.93  1253.39  1255.25  1261.34  1261.38
eigval :     1274.28  1274.32  1277.40  1278.72  1280.59  1284.62
eigval :     1289.19  1306.01  1315.63  1319.01  1319.16  1320.68
eigval :     1321.65  1327.03  1329.01  1329.08  1331.31  1331.62
eigval :     1332.26  1332.50  1364.14  1370.05  1371.31  1395.34
eigval :     1395.35  1395.49  1404.68  1404.80  1410.40  1410.72
eigval :     1411.06  1425.47  1426.29  1429.07  1433.04  1434.46
eigval :     1437.12  1440.09  1440.82  1442.34  1446.61  1450.50
eigval :     1451.86  1460.78  1469.13  1475.40  1475.62  1477.84
eigval :     1479.02  1482.19  1482.37  1482.55  1486.45  1487.71
eigval :     1487.75  1488.07  1488.75  1488.81  1489.91  1490.45
eigval :     1490.48  1497.94  1498.10  1498.52  1502.45  1502.92
eigval :     1503.02  1568.27  1569.33  1572.88  1577.66  1578.05
eigval :     1581.74  1582.12  1584.28  1587.03  1589.20  1592.22
eigval :     1595.17  1595.99  1596.42  1600.26  1601.42  1603.97
eigval :     1608.39  1612.40  1614.32  3001.53  3002.17  3024.50
eigval :     3025.15  3026.96  3027.04  3027.42  3027.58  3028.13
eigval :     3028.19  3030.72  3031.23  3031.32  3032.55  3032.61
eigval :     3032.84  3036.78  3037.05  3037.21  3038.38  3038.63
eigval :     3038.76  3043.05  3043.44  3070.91  3071.09  3072.45
eigval :     3073.43  3074.41  3074.48  3074.53  3074.84  3074.93
eigval :     3075.59  3075.65  3076.00  3076.04  3076.10  3078.06
eigval :     3078.15  3079.10  3079.19  3081.68  3081.79  3084.30
eigval :     3084.69  3084.77  3085.31  3086.03  3086.16  3086.56
eigval :     3087.72  3088.70  3088.76  3091.03  3091.15  3093.41
eigval :     3093.55  3096.59  3096.76

   temp. (K)  partition function   enthalpy   heat capacity  entropy
                                   cal/mol     cal/K/mol   cal/K/mol   J/K/mol
 298.15  VIB  0.556E+33            39109.049    236.514    247.341
         ROT  0.592E+09              888.752      2.981     43.121
         INT  0.329E+42            39997.802    239.495    290.462
         TR   0.279E+29             1481.254      4.968     46.380
         TOT                       41479.0557   244.4628   336.8420  1409.3470

       T/K    H(0)-H(T)+PV         H(T)/Eh          T*S/Eh         G(T)/Eh
   ------------------------------------------------------------------------
    298.15    0.661011E-01    0.113935E+01    0.160045E+00    0.979308E+00
   ------------------------------------------------------------------------

         :::::::::::::::::::::::::::::::::::::::::::::::::::::
         ::                  THERMODYNAMIC                  ::
         :::::::::::::::::::::::::::::::::::::::::::::::::::::
         :: total free energy        -187.629791801019 Eh   ::
         ::.................................................::
         :: total energy             -188.609100175787 Eh   ::
         :: zero point energy           1.073251808001 Eh   ::
         :: G(RRHO) w/o ZPVE           -0.093943433234 Eh   ::
         :: G(RRHO) contrib.            0.979308374767 Eh   ::
         :::::::::::::::::::::::::::::::::::::::::::::::::::::

           -------------------------------------------------
          | TOTAL ENERGY             -188.609100175787 Eh   |
          | TOTAL ENTHALPY           -187.469747284991 Eh   |
          | TOTAL FREE ENERGY        -187.629791801019 Eh   |
          | GRADIENT NORM               0.000053806353 Eh/α |
          | HOMO-LUMO GAP               2.211813464671 eV   |
           -------------------------------------------------

 * finished run on 2025/09/05 at 13:52:46.707
