   * xtb version 6.7.1 (edcfbbe) compiled by 'albert@albert-system' on 2024-07-22

   ID    Z sym.   atoms
    1    6 C      1-6, 8-49, 51-73
    2    7 N      7, 50
    3    1 H      74-133

          program call               : xtb data2507/gas/MDP3FL/MDP3FL.xyz --gfn 2 --ohess vtight --parallel 40 --molden --ceasefiles --namespace data2507/gas/MDP3FL/MDP3FL_gas_S0_preOpt
          :  Hamiltonian                  GFN2-xTB          :
 * total energy  :  -188.5770131 Eh     change       -0.1688477E-08 Eh
 * total energy  :  -188.5945976 Eh     change       -0.1758448E-01 Eh
 * total energy  :  -188.6013546 Eh     change       -0.6757004E-02 Eh
 * total energy  :  -188.6036655 Eh     change       -0.2310839E-02 Eh
 * total energy  :  -188.6049677 Eh     change       -0.1302276E-02 Eh
 * total energy  :  -188.6056902 Eh     change       -0.7224807E-03 Eh
 * total energy  :  -188.6061618 Eh     change       -0.4716263E-03 Eh
 * total energy  :  -188.6064899 Eh     change       -0.3280867E-03 Eh
 * total energy  :  -188.6067042 Eh     change       -0.2142757E-03 Eh
 * total energy  :  -188.6068508 Eh     change       -0.1466075E-03 Eh
 * total energy  :  -188.6090297 Eh     change       -0.2043597E-06 Eh
 * total energy  :  -188.6090299 Eh     change       -0.1951918E-06 Eh
 * total energy  :  -188.6090301 Eh     change       -0.1835859E-06 Eh
 * total energy  :  -188.6090302 Eh     change       -0.1728093E-06 Eh
 * total energy  :  -188.6090304 Eh     change       -0.1661114E-06 Eh
 * total energy  :  -188.6090306 Eh     change       -0.1714360E-06 Eh
 * total energy  :  -188.6090308 Eh     change       -0.1926110E-06 Eh
 * total energy  :  -188.6090310 Eh     change       -0.2337698E-06 Eh
 * total energy  :  -188.6090310 Eh     change       -0.1768257E-08 Eh
   *** GEOMETRY OPTIMIZATION CONVERGED AFTER 152 ITERATIONS ***

 final structure:
================
133
 xtb: 6.7.1 (edcfbbe)
C           10.73318493276794       -5.10372696420568       -1.14643865363667
C           11.63593086764849       -4.28009756663256       -0.27809431387367
C           12.45220461877317       -4.89375688628946        0.66669163286372
C           13.29619211136893       -4.13481416675656        1.45726068121861
C           13.33549519540206       -2.75975469467290        1.32687899390719
C           12.52758520297374       -2.12961343113912        0.38238953952155
N           12.55084745777072       -0.73728175715483        0.23875336779862
C           13.75399306313970       -0.03814736482526        0.37569893947675
C           14.94947748197452       -0.58677854571105       -0.08866484194924
C           16.13528170801373        0.10686100603468        0.05327193792707
C           16.15090429294603        1.35718513142403        0.64951748041884
C           14.96593315511941        1.90865907612872        1.10868923774994
C           13.77626480187763        1.21941366622980        0.97921858526813
C           11.36656751658733       -0.04995375893839       -0.04625086895542
C           11.37899410094257        1.05110830937723       -0.90560492543810
C           10.21560136734504        1.73382026084582       -1.20495993371016
C            9.02064201251770        1.30460536864665       -0.64908499385250
C            9.00330864779957        0.19789438675764        0.21400633081269
C           10.16081678056354       -0.47325650206475        0.52359414403116
C            7.59750161945217       -0.08724667099338        0.69208631357659
C            7.14165320506425       -1.47938409171876        0.24413937347703
C            7.48956069246032        0.04865290986439        2.21348141806127
C            6.81404647766600        0.99886142161764       -0.01194673464729
C            5.46354390126483        1.25056988148443        0.03423885187294
C            4.93661789269260        2.32013654973697       -0.69592308294977
C            3.49557178941626        2.60024806431021       -0.66033757931364
C            3.03086026693620        3.91390498473291       -0.58843774297593
C            1.67838404404274        4.19952281864130       -0.55416606255635
C            0.77305994683638        3.15161675815185       -0.59745510491746
C            1.22851288971326        1.82655423176267       -0.67025730411518
C            2.57472589323756        1.54918739224954       -0.69876847148680
C            0.06401555309438        0.86198947214824       -0.71224706466324
C            0.08348434295550       -0.08206324688106        0.49364267052352
C            0.05709613207088        0.06263605959401       -2.01881013671882
C           -1.11423140524310        1.80837694660466       -0.64699803112621
C           -2.45633942024719        1.51028520078242       -0.64796031925404
C           -3.39191712748742        2.54745111276258       -0.59491180416329
C           -4.82889757048461        2.24448113757034       -0.60183222399062
C           -5.70939709701246        3.00964477536478       -1.36685572771834
C           -7.06432004704012        2.73503938569130       -1.39672957574325
C           -7.54904674641677        1.67965642012286       -0.64089483294575
C           -6.67323281962626        0.90720538899830        0.13769725358527
C           -5.32619376369944        1.18029745608272        0.15616787130622
C           -7.42827015281045       -0.17506267939897        0.87765266998990
C           -6.94122348086803       -1.56908612873797        0.47287012207139
C           -7.31767052764781        0.01224451954408        2.39404896920445
C           -8.84453519677173        0.07201276133836        0.40920690328739
C           -9.98499515554179       -0.61650029002385        0.74360860652200
C          -11.20932714835802       -0.20964667891829        0.20218368992626
N          -12.38310043908517       -0.89026560465562        0.54111541987484
C          -12.55839315079900       -1.37667791236270        1.83994685910252
C          -13.21816707604736       -2.58595176107910        2.06062682893734
C          -13.39036575400759       -3.06125952902101        3.34590590158659
C          -12.90279314436043       -2.34952255637498        4.42976822170204
C          -12.24326145125292       -1.14999074380682        4.21651114729468
C          -12.07417577504373       -0.66149903707842        2.93596028125966
C          -13.38457013891295       -1.07938704428790       -0.41920624597464
C          -14.72992606445296       -0.99813096536392       -0.06646977842718
C          -15.70473888440327       -1.18951841262642       -1.02698778936099
C          -15.35754004689301       -1.45161990552259       -2.33980500578257
C          -14.01853311301409       -1.53188811064421       -2.70943291056739
C          -13.64623677891366       -1.82417632900437       -4.13170254567661
C          -13.04348526554905       -1.35028561771257       -1.74386355004138
C          -11.25361728356457        0.87754706038771       -0.67373635387355
C          -10.10366502986808        1.56121857671118       -1.01883747497160
C           -8.89340757587494        1.16193841487909       -0.47379075270297
C           -2.94671833145913        3.86833925909420       -0.53647687018033
C           -1.59831582927131        4.17462755965028       -0.52693600329158
C           -0.67807180115089        3.14046199346134       -0.58423943340478
C            5.79264314823643        3.11283793326084       -1.46098108207435
C            7.15140847442078        2.86240983945816       -1.51566449428740
C            7.66521512708624        1.80139110956168       -0.78747759253963
C           11.68641467417559       -2.90365912013632       -0.41656830308705
H           10.02833080459037       -4.47427109405252       -1.68384126649191
H           10.17758502610462       -5.82296745260476       -0.54718680047970
H           11.32076473258940       -5.66215371120190       -1.87520271646406
H           12.42335180390186       -5.96745630795310        0.78041298718215
H           13.92362800153013       -4.61729992737698        2.19240357353540
H           13.98481158659080       -2.16841914161786        1.95522331966330
H           14.93891735711629       -1.55712859098898       -0.56323823556236
H           17.05334681576564       -0.32901013961230       -0.31291124925219
H           17.07930668035028        1.89762032275231        0.75544425225695
H           14.96875545938248        2.88066691668291        1.57998494832745
H           12.85515435873452        1.64748918049655        1.34695794977118
H           12.31593018738918        1.36251966753366       -1.34394552095404
H           10.24140385022641        2.58071135887079       -1.87428171723310
H           10.15710462085347       -1.31899344892789        1.19568540027950
H            6.11108867868413       -1.65457253705522        0.54424933607084
H            7.77071777245937       -2.24508120405285        0.69269117667046
H            7.20768690736662       -1.56514154715853       -0.83866800991984
H            8.11142046162677       -0.69649512428459        2.70431860703383
H            6.45953833175481       -0.09085087930120        2.53346206051976
H            7.81881554321479        1.03740660695273        2.52597416471681
H            4.80842291919197        0.64635332520385        0.64533650955151
H            3.74686186944989        4.72135210860376       -0.53691610779633
H            1.33675883214661        5.22232004981499       -0.49242387214387
H            2.92887787668369        0.53112392581197       -0.77528144178889
H            0.08808110250174        0.49059225767070        1.41893338149468
H           -0.79495065970434       -0.72334856732691        0.48577112536351
H            0.97166862341659       -0.70931191127450        0.46834172439812
H            0.04234692467408        0.73806259666245       -2.87165095004216
H            0.94573800806824       -0.56091698612622       -2.08542533015779
H           -0.82188008554957       -0.57613357134974       -2.06685666204102
H           -2.79693939812469        0.48685787472188       -0.71424890210485
H           -5.31655089639116        3.81859425972673       -1.96574716064271
H           -7.73043900524464        3.33256444266173       -2.00157708033045
H           -4.65107571398760        0.59839685460030        0.76721347117883
H           -5.90205804753851       -1.70501733249760        0.76355850613626
H           -7.54133023898723       -2.33501163600229        0.95870445489794
H           -7.02054878369039       -1.69625160355075       -0.60484809846813
H           -7.92868529884728       -0.72455191318407        2.91081586145937
H           -7.65962687666206        1.00626909329491        2.67485217561883
H           -6.28497298260855       -0.10240900822496        2.71522010912240
H           -9.95333598430197       -1.46373782832744        1.41318153156487
H          -13.59049198516346       -3.14870993041769        1.21709177088534
H          -13.90184910945766       -3.99995225968315        3.50144195117378
H          -13.03616160925368       -2.72622344773797        5.43254373999799
H          -11.86473750248534       -0.58437725301617        5.05549437644731
H          -11.56918216264817        0.27966615867125        2.77433435496593
H          -15.00278799348359       -0.78194962861666        0.95576881733548
H          -16.74628708292961       -1.12333135124306       -0.74830480894596
H          -16.12596631807650       -1.59499881048560       -3.08514851527959
H          -14.01844737960412       -2.80492541520864       -4.42618631880979
H          -14.09092263533492       -1.08702998789341       -4.79888446209154
H          -12.56746779191060       -1.80815079712074       -4.26385251287339
H          -11.99900256288016       -1.41938220496194       -2.01322759971471
H          -12.20689409495820        1.18458579810562       -1.07850194820534
H          -10.15516869076730        2.40158278610445       -1.69488409518263
H           -3.67450181326786        4.66456663784063       -0.47548777357015
H           -1.27121090988391        5.20265119626085       -0.47402567317939
H            5.37764349577488        3.92507005622830       -2.04008383608292
H            7.79814101915494        3.48242425308999       -2.11890568513196
H           11.06640716906581       -2.41477870475303       -1.15468901412104

          :  Hamiltonian                  GFN2-xTB          :
         :: gradient norm              0.000029681321 Eh/a0 ::
         :: HOMO-LUMO gap              2.210845809389 eV    ::
         :: SCC energy              -192.116203227654 Eh    ::
         :: -> dispersion             -0.180649194722 Eh    ::
         :: repulsion energy           3.507172219437 Eh    ::

    * Orbital Energies and Occupations

         #    Occupation            Energy/Eh            Energy/eV
      -------------------------------------------------------------
         1        2.0000           -0.6602241             -17.9656
       ...           ...                  ...                  ...
       165        2.0000           -0.3982340             -10.8365
       166        2.0000           -0.3979631             -10.8291
       167        2.0000           -0.3971561             -10.8072
       168        2.0000           -0.3936738             -10.7124
       169        2.0000           -0.3934175             -10.7054
       170        2.0000           -0.3925258             -10.6812
       171        2.0000           -0.3923183             -10.6755
       172        2.0000           -0.3918273             -10.6622
       173        2.0000           -0.3849629             -10.4754
       174        2.0000           -0.3758875             -10.2284
       175        2.0000           -0.3622403              -9.8571
       176        2.0000           -0.3426436              -9.3238
       177        2.0000           -0.3417512              -9.2995 (HOMO)
       178                         -0.2605041              -7.0887 (LUMO)
       179                         -0.2481448              -6.7524
       180                         -0.2332526              -6.3471
       181                         -0.2261639              -6.1542
       182                         -0.2261318              -6.1534
       183                         -0.2225211              -6.0551
       184                         -0.2223322              -6.0500
       185                         -0.2175785              -5.9206
       186                         -0.2175388              -5.9195
       187                         -0.2169600              -5.9038
       188                         -0.2159016              -5.8750
       ...                                ...                  ...
       352                          0.7495583              20.3965
      -------------------------------------------------------------
                  HL-Gap            0.0812471 Eh            2.2108 eV

     #   Z          covCN         q      C6AA      α(0)
     1   6 C        3.758    -0.109    22.626     6.782
     2   6 C        2.966     0.017    27.622     8.621
     3   6 C        2.924    -0.050    29.233     8.867
     4   6 C        2.918    -0.032    28.790     8.799
     5   6 C        2.922    -0.053    29.321     8.880
     6   6 C        2.923     0.064    26.575     8.454
     7   7 N        2.753    -0.074    22.682     7.073
     8   6 C        2.924     0.065    26.535     8.447
     9   6 C        2.922    -0.048    29.191     8.860
    10   6 C        2.920    -0.030    28.740     8.791
    11   6 C        2.919    -0.039    28.971     8.827
    12   6 C        2.919    -0.030    28.739     8.791
    13   6 C        2.922    -0.048    29.187     8.860
    14   6 C        2.926     0.061    26.628     8.462
    15   6 C        2.923    -0.052    29.298     8.876
    16   6 C        2.913    -0.035    28.873     8.811
    17   6 C        3.036    -0.009    28.206     8.711
    18   6 C        3.056    -0.002    28.019     8.681
    19   6 C        2.918    -0.052    29.304     8.877
    20   6 C        3.936     0.019    20.193     6.386
    21   6 C        3.759    -0.097    22.397     6.747
    22   6 C        3.758    -0.098    22.419     6.750
    23   6 C        3.053    -0.004    28.075     8.690
    24   6 C        2.920    -0.039    28.975     8.827
    25   6 C        2.979     0.005    27.897     8.664
    26   6 C        2.979     0.006    27.874     8.660
    27   6 C        2.926    -0.039    28.959     8.825
    28   6 C        2.912    -0.036    28.886     8.813
    29   6 C        3.037    -0.003    28.055     8.688
    30   6 C        3.053    -0.003    28.055     8.687
    31   6 C        2.920    -0.039    28.976     8.827
    32   6 C        3.936     0.019    20.197     6.386
    33   6 C        3.758    -0.096    22.392     6.746
    34   6 C        3.759    -0.097    22.408     6.749
    35   6 C        3.053    -0.003    28.054     8.687
    36   6 C        2.920    -0.039    28.975     8.827
    37   6 C        2.979     0.006    27.873     8.660
    38   6 C        2.979     0.005    27.896     8.664
    39   6 C        2.926    -0.038    28.957     8.825
    40   6 C        2.912    -0.037    28.911     8.817
    41   6 C        3.037    -0.002    28.042     8.686
    42   6 C        3.053    -0.004    28.073     8.689
    43   6 C        2.920    -0.039    28.974     8.827
    44   6 C        3.936     0.019    20.193     6.386
    45   6 C        3.758    -0.097    22.410     6.749
    46   6 C        3.759    -0.097    22.408     6.749
    47   6 C        3.055    -0.002    28.018     8.681
    48   6 C        2.918    -0.053    29.309     8.878
    49   6 C        2.926     0.061    26.629     8.463
    50   7 N        2.753    -0.074    22.684     7.074
    51   6 C        2.924     0.066    26.529     8.447
    52   6 C        2.922    -0.048    29.199     8.861
    53   6 C        2.919    -0.030    28.743     8.792
    54   6 C        2.919    -0.040    28.983     8.828
    55   6 C        2.919    -0.030    28.749     8.793
    56   6 C        2.922    -0.048    29.196     8.861
    57   6 C        2.923     0.063    26.581     8.455
    58   6 C        2.922    -0.053    29.313     8.879
    59   6 C        2.918    -0.032    28.787     8.798
    60   6 C        2.925    -0.049    29.223     8.865
    61   6 C        2.966     0.018    27.609     8.619
    62   6 C        3.758    -0.109    22.631     6.782
    63   6 C        2.928    -0.058    29.433     8.897
    64   6 C        2.923    -0.052    29.294     8.876
    65   6 C        2.913    -0.035    28.875     8.811
    66   6 C        3.036    -0.009    28.207     8.711
    67   6 C        2.926    -0.039    28.958     8.825
    68   6 C        2.913    -0.036    28.886     8.813
    69   6 C        3.037    -0.003    28.056     8.688
    70   6 C        2.926    -0.038    28.957     8.825
    71   6 C        2.912    -0.037    28.910     8.817
    72   6 C        3.037    -0.002    28.042     8.686
    73   6 C        2.928    -0.058    29.445     8.899
    74   1 H        0.925     0.041     2.437     2.441
    75   1 H        0.925     0.044     2.394     2.419
    76   1 H        0.925     0.046     2.366     2.405
    77   1 H        0.926     0.029     2.606     2.524
    78   1 H        0.926     0.030     2.593     2.518
    79   1 H        0.926     0.030     2.592     2.517
    80   1 H        0.926     0.031     2.570     2.507
    81   1 H        0.926     0.030     2.584     2.514
    82   1 H        0.926     0.029     2.603     2.523
    83   1 H        0.926     0.030     2.581     2.513
    84   1 H        0.926     0.031     2.566     2.505
    85   1 H        0.926     0.030     2.582     2.513
    86   1 H        0.926     0.031     2.571     2.507
    87   1 H        0.926     0.030     2.589     2.516
    88   1 H        0.925     0.039     2.464     2.455
    89   1 H        0.925     0.040     2.451     2.448
    90   1 H        0.925     0.034     2.527     2.486
    91   1 H        0.925     0.040     2.455     2.450
    92   1 H        0.925     0.040     2.450     2.448
    93   1 H        0.925     0.036     2.509     2.477
    94   1 H        0.926     0.027     2.625     2.533
    95   1 H        0.926     0.030     2.591     2.517
    96   1 H        0.926     0.028     2.610     2.526
    97   1 H        0.926     0.027     2.624     2.533
    98   1 H        0.925     0.035     2.518     2.481
    99   1 H        0.925     0.038     2.471     2.458
   100   1 H        0.925     0.038     2.471     2.458
   101   1 H        0.925     0.035     2.511     2.478
   102   1 H        0.925     0.039     2.459     2.452
   103   1 H        0.925     0.039     2.458     2.452
   104   1 H        0.926     0.027     2.623     2.533
   105   1 H        0.926     0.029     2.596     2.519
   106   1 H        0.926     0.028     2.617     2.530
   107   1 H        0.926     0.027     2.625     2.534
   108   1 H        0.925     0.039     2.461     2.453
   109   1 H        0.925     0.039     2.459     2.452
   110   1 H        0.925     0.035     2.517     2.481
   111   1 H        0.925     0.040     2.453     2.449
   112   1 H        0.925     0.035     2.513     2.479
   113   1 H        0.925     0.040     2.451     2.448
   114   1 H        0.926     0.029     2.601     2.522
   115   1 H        0.926     0.031     2.572     2.508
   116   1 H        0.926     0.030     2.589     2.516
   117   1 H        0.926     0.028     2.610     2.526
   118   1 H        0.926     0.030     2.590     2.516
   119   1 H        0.926     0.032     2.564     2.504
   120   1 H        0.926     0.030     2.590     2.517
   121   1 H        0.926     0.030     2.589     2.516
   122   1 H        0.926     0.029     2.598     2.520
   123   1 H        0.925     0.046     2.372     2.409
   124   1 H        0.925     0.046     2.373     2.409
   125   1 H        0.925     0.041     2.437     2.441
   126   1 H        0.926     0.031     2.574     2.509
   127   1 H        0.926     0.031     2.573     2.508
   128   1 H        0.926     0.031     2.572     2.508
   129   1 H        0.926     0.030     2.592     2.518
   130   1 H        0.926     0.028     2.609     2.526
   131   1 H        0.926     0.029     2.594     2.519
   132   1 H        0.926     0.028     2.616     2.529
   133   1 H        0.926     0.031     2.570     2.507

molecular dipole:
                 x           y           z       tot (Debye)
 q only:       -0.106      -0.913      -0.016
   full:       -0.110      -0.898      -0.040       2.302

 projected vibrational frequencies (cm⁻¹)
eigval :       -0.00    -0.00    -0.00    -0.00     0.00     0.00
eigval :        4.90     6.80     7.34    10.71    18.30    19.10
eigval :       20.54    22.60    24.45    27.59    30.95    31.88
eigval :       35.52    36.93    40.94    46.63    53.15    57.32
eigval :       63.06    72.80    76.38    81.59    84.61    95.02
eigval :       99.39   101.28   106.68   119.31   121.08   122.42
eigval :      128.34   130.31   136.91   155.14   166.55   171.50
eigval :      180.23   193.31   194.48   195.63   205.76   206.10
eigval :      211.08   215.96   217.37   219.73   224.80   225.69
eigval :      231.47   232.41   235.37   237.79   250.01   252.43
eigval :      259.43   269.67   271.78   275.25   287.90   302.30
eigval :      302.94   306.11   314.41   320.40   323.38   329.02
eigval :      331.93   339.96   346.39   352.96   363.09   372.44
eigval :      380.42   381.42   394.45   399.64   406.71   410.41
eigval :      414.35   422.20   423.77   432.28   443.53   452.71
eigval :      463.31   466.55   467.93   468.50   473.06   485.75
eigval :      503.01   503.67   504.57   525.30   529.86   531.88
eigval :      533.42   540.12   546.74   558.40   561.05   568.26
eigval :      568.49   576.84   579.35   580.94   581.78   587.92
eigval :      589.40   592.76   597.19   599.53   625.75   626.10
eigval :      629.30   643.26   648.59   651.25   658.68   659.58
eigval :      663.70   668.47   678.31   691.51   693.26   693.45
eigval :      696.66   722.11   722.38   727.43   733.23   736.02
eigval :      736.57   752.42   754.40   764.81   778.85   787.06
eigval :      788.88   799.07   813.20   815.49   819.85   826.51
eigval :      830.31   838.46   840.99   843.02   848.60   875.23
eigval :      875.29   880.50   880.91   882.43   884.10   885.12
eigval :      887.98   888.96   889.53   890.10   891.91   892.55
eigval :      892.84   897.85   910.32   910.68   911.57   913.36
eigval :      913.56   919.28   920.36   926.23   926.31   928.66
eigval :      928.86   928.99   929.03   944.00   948.09   961.46
eigval :      965.98   966.26   966.52   966.66   970.17   981.54
eigval :      985.29   988.02   988.99   992.05  1002.25  1002.72
eigval :     1008.39  1010.21  1012.94  1013.23  1013.25  1031.86
eigval :     1032.07  1036.06  1037.59  1068.78  1069.38  1071.39
eigval :     1080.06  1083.75  1083.97  1086.97  1113.40  1113.73
eigval :     1115.28  1123.00  1123.39  1134.02  1134.19  1155.18
eigval :     1155.49  1158.59  1160.78  1165.47  1169.23  1174.60
eigval :     1175.36  1175.89  1176.24  1176.31  1180.84  1180.87
eigval :     1189.76  1189.99  1198.10  1198.32  1213.63  1215.46
eigval :     1216.82  1217.57  1226.58  1228.66  1236.36  1237.73
eigval :     1242.85  1242.97  1253.21  1255.21  1257.12  1261.31
eigval :     1273.38  1274.35  1277.79  1279.69  1281.47  1284.21
eigval :     1289.24  1306.52  1316.57  1318.90  1319.15  1321.44
eigval :     1323.85  1326.78  1329.05  1329.28  1329.53  1331.42
eigval :     1332.08  1332.36  1363.97  1370.23  1371.51  1395.34
eigval :     1395.44  1395.50  1404.71  1404.71  1410.45  1410.80
eigval :     1411.14  1425.54  1426.28  1428.95  1432.75  1434.49
eigval :     1437.07  1439.77  1440.91  1442.31  1446.38  1450.67
eigval :     1451.80  1461.26  1469.79  1475.37  1475.58  1478.28
eigval :     1478.88  1481.20  1482.16  1482.43  1486.59  1487.72
eigval :     1487.75  1488.09  1488.83  1489.20  1489.89  1490.11
eigval :     1490.43  1497.91  1498.04  1498.52  1502.44  1502.78
eigval :     1502.96  1568.31  1569.38  1572.91  1577.48  1577.97
eigval :     1581.89  1582.11  1583.94  1586.91  1589.19  1592.18
eigval :     1595.19  1596.06  1596.44  1600.40  1601.62  1603.92
eigval :     1608.27  1612.29  1614.22  3002.05  3006.10  3019.92
eigval :     3024.50  3027.01  3027.30  3027.35  3027.55  3028.16
eigval :     3028.36  3030.68  3031.29  3031.33  3032.66  3032.76
eigval :     3032.84  3036.83  3037.25  3037.29  3038.36  3038.56
eigval :     3038.81  3043.27  3045.54  3070.86  3071.10  3072.51
eigval :     3073.48  3074.37  3074.47  3074.59  3074.71  3074.91
eigval :     3075.59  3075.78  3075.83  3076.04  3076.19  3077.46
eigval :     3078.07  3079.20  3079.51  3080.43  3081.93  3084.42
eigval :     3084.77  3084.79  3085.35  3086.16  3086.28  3086.66
eigval :     3087.84  3088.77  3088.87  3091.19  3091.37  3093.32
eigval :     3093.60  3096.52  3096.76

   temp. (K)  partition function   enthalpy   heat capacity  entropy
                                   cal/mol     cal/K/mol   cal/K/mol   J/K/mol
 298.15  VIB  0.758E+33            39121.181    236.510    247.626
         ROT  0.592E+09              888.752      2.981     43.123
         INT  0.449E+42            40009.933    239.491    290.749
         TR   0.279E+29             1481.254      4.968     46.380
         TOT                       41491.1868   244.4588   337.1290  1410.5476

       T/K    H(0)-H(T)+PV         H(T)/Eh          T*S/Eh         G(T)/Eh
   ------------------------------------------------------------------------
    298.15    0.661204E-01    0.113935E+01    0.160181E+00    0.979166E+00
   ------------------------------------------------------------------------

         :::::::::::::::::::::::::::::::::::::::::::::::::::::
         ::                  THERMODYNAMIC                  ::
         :::::::::::::::::::::::::::::::::::::::::::::::::::::
         :: total free energy        -187.629864846054 Eh   ::
         ::.................................................::
         :: total energy             -188.609031008217 Eh   ::
         :: zero point energy           1.073226600379 Eh   ::
         :: G(RRHO) w/o ZPVE           -0.094060438217 Eh   ::
         :: G(RRHO) contrib.            0.979166162163 Eh   ::
         :::::::::::::::::::::::::::::::::::::::::::::::::::::

           -------------------------------------------------
          | TOTAL ENERGY             -188.609031008217 Eh   |
          | TOTAL ENTHALPY           -187.469683992888 Eh   |
          | TOTAL FREE ENERGY        -187.629864846054 Eh   |
          | GRADIENT NORM               0.000029681065 Eh/α |
          | HOMO-LUMO GAP               2.210845583528 eV   |
           -------------------------------------------------

 * finished run on 2025/09/05 at 13:25:20.876
