   * xtb version 6.7.1 (edcfbbe) compiled by 'albert@albert-system' on 2024-07-22

   ID    Z sym.   atoms
    1    6 C      1-10, 12-24, 26-38, 40-42
    2    7 N      11, 25, 39
    3    1 H      43-69

          program call               : xtb data2507/gas/CzmPPC/CzmPPC_gas_S0_crest.xyz --gfn 2 --ohess vtight --parallel 40 --molden --ceasefiles --namespace data2507/gas/CzmPPC/CzmPPC_gas_S0_finalOpt
          :  Hamiltonian                  GFN2-xTB          :
 * total energy  :  -106.0431720 Eh     change       -0.1932705E-08 Eh
 * total energy  :  -106.0431741 Eh     change       -0.2108520E-05 Eh
 * total energy  :  -106.0431769 Eh     change       -0.2739978E-05 Eh
 * total energy  :  -106.0431816 Eh     change       -0.4716009E-05 Eh
 * total energy  :  -106.0431843 Eh     change       -0.2687920E-05 Eh
 * total energy  :  -106.0431870 Eh     change       -0.2716347E-05 Eh
 * total energy  :  -106.0431920 Eh     change       -0.4986456E-05 Eh
 * total energy  :  -106.0432008 Eh     change       -0.8791127E-05 Eh
 * total energy  :  -106.0432092 Eh     change       -0.8434430E-05 Eh
 * total energy  :  -106.0432140 Eh     change       -0.4805643E-05 Eh
 * total energy  :  -106.0432508 Eh     change       -0.2275989E-06 Eh
 * total energy  :  -106.0432510 Eh     change       -0.1939399E-06 Eh
 * total energy  :  -106.0432511 Eh     change       -0.1541477E-06 Eh
 * total energy  :  -106.0432512 Eh     change       -0.1322213E-06 Eh
 * total energy  :  -106.0432514 Eh     change       -0.1485891E-06 Eh
 * total energy  :  -106.0432516 Eh     change       -0.1939832E-06 Eh
 * total energy  :  -106.0432518 Eh     change       -0.1852356E-06 Eh
 * total energy  :  -106.0432519 Eh     change       -0.1394802E-06 Eh
 * total energy  :  -106.0432520 Eh     change       -0.9374925E-07 Eh
   *** GEOMETRY OPTIMIZATION CONVERGED AFTER 43 ITERATIONS ***

 final structure:
================
69
 xtb: 6.7.1 (edcfbbe)
C            5.71676446034199       -4.63786533221779        0.32713705698592
C            4.73799415395797       -5.44105354819535        0.88800286127873
C            3.40265273943824       -5.10903923087052        0.75219322882885
C            3.02418863237963       -3.96454245945286        0.05451465097725
C            1.60661474005879       -3.59573879511413       -0.08157521652559
C            0.62219936789422       -4.55941768080645       -0.29933754356430
C           -0.70797253232873       -4.19537761721284       -0.42352207660397
C           -1.08343734508194       -2.86808328487249       -0.33525693684064
C           -0.11155417140061       -1.89359349134853       -0.12256394629710
C           -0.46697853005801       -0.47695147335087       -0.03947372499058
N           -1.75075216051869       -0.13370925854198       -0.05085763184621
C           -2.00354595386918        1.17052712290826        0.03012394931804
C           -3.40297991930408        1.59695145035050        0.01672112752528
C           -3.72488766375243        2.95272244822757        0.02519892898367
C           -5.05071736882932        3.34053423541923        0.00728256932710
C           -6.05720924573397        2.39045088346394       -0.01679135220865
C           -5.75170956233473        1.02982092235519       -0.02606443677348
C           -6.81985843489992        0.01862895927025       -0.05743013715865
C           -7.97179590235607        0.17494940661358        0.70954155372529
C           -8.97278053136470       -0.77823937194724        0.67779087947916
C           -8.84182025533953       -1.89934832463165       -0.12439091560032
C           -7.70115321662085       -2.06384434731340       -0.89237059207217
C           -6.69659257637492       -1.11486595031198       -0.85765673265990
C           -4.41684559528564        0.64489134788589       -0.00962299585793
N           -1.06560299287621        2.11050911690357        0.11727579718726
C            0.19077116157640        1.67680764491424        0.11143124981624
C            1.27809650423671        2.65174117276178        0.19659913022853
C            1.02032409629762        3.99769288103593        0.44399917961073
C            2.07471944748917        4.88710247056499        0.53221496611369
C            3.37873300505578        4.44960847570759        0.37260247272124
C            3.65274559192658        3.10568184085545        0.11975180974050
C            5.03162469204235        2.62377341594951       -0.05521845667076
C            5.42049785737714        1.39315001341044        0.47067184215593
C            6.71126979052521        0.92974677765336        0.29863324698024
C            7.63486384588286        1.68610708318239       -0.40354548233854
C            7.25945866232251        2.91036026564483       -0.93075749226116
C            5.96949447770688        3.37697063415977       -0.75733299107420
C            2.58917006906774        2.21667666027673        0.03440615889281
N            0.53292109629208        0.39502544476198        0.03574118575743
C            1.22300636928284       -2.26377019139665        0.00539894379313
C            4.01776095149562       -3.16355899608802       -0.50538929231962
C            5.35192826829257       -3.49861250107388       -0.37082624778939
H            6.75935333631013       -4.89907128707375        0.43368010051380
H            5.01704417952148       -6.32898978907477        1.43668919903563
H            2.64601776268170       -5.72983568761990        1.20980814493494
H            0.90417226975626       -5.59833817870362       -0.39091106611802
H           -1.45610626247271       -4.95576372508974       -0.59487228725131
H           -2.11497982113175       -2.56891168677449       -0.43223782267547
H           -2.92792179663891        3.67888431103379        0.04181754921906
H           -5.30538556240088        4.39044923278619        0.00833367231486
H           -7.09074562855634        2.70359316928923       -0.04930665218969
H           -8.07236899312560        1.03895555205614        1.35047381997381
H           -9.85844943874837       -0.64714064745149        1.28255116531753
H           -9.62551007314773       -2.64206473637389       -0.15063318063513
H           -7.59547142249934       -2.93515579937237       -1.52245307343855
H           -5.81576818335616       -1.23937095899021       -1.47048667077958
H           -4.14509980156155       -0.39902357477137        0.00347874073582
H           -0.00039339718315        4.32241735008268        0.56925432726564
H            1.88237668854214        5.93141077048461        0.73141260141921
H            4.19454578867553        5.15202518766541        0.46380729343612
H            4.71080864049750        0.80575639737065        1.03468657227706
H            6.99783104072246       -0.02482093933472        0.71610160920914
H            8.64310330791566        1.32340869845786       -0.53950514243952
H            7.97481058930531        3.50293419109734       -1.48256309745509
H            5.67865344017438        4.32381245410595       -1.18884381992008
H            2.76117949166135        1.17386163263851       -0.18051112043676
H            1.95346386200642       -1.49311393715158        0.19436426919640
H            3.74017553430453       -2.28320779829954       -1.06639590822742
H            6.10978206883441       -2.86890465002175       -0.81435420735856

          :  Hamiltonian                  GFN2-xTB          :
         :: gradient norm              0.000024888891 Eh/a0 ::
         :: HOMO-LUMO gap              2.302140842430 eV    ::
         :: SCC energy              -108.046844190787 Eh    ::
         :: -> dispersion             -0.087288306281 Eh    ::
         :: repulsion energy           2.003592190444 Eh    ::

    * Orbital Energies and Occupations

         #    Occupation            Energy/Eh            Energy/eV
      -------------------------------------------------------------
         1        2.0000           -0.6798558             -18.4998
       ...           ...                  ...                  ...
        87        2.0000           -0.4139225             -11.2634
        88        2.0000           -0.4131644             -11.2428
        89        2.0000           -0.4067618             -11.0686
        90        2.0000           -0.4050902             -11.0231
        91        2.0000           -0.4049313             -11.0187
        92        2.0000           -0.4048531             -11.0166
        93        2.0000           -0.4045602             -11.0086
        94        2.0000           -0.4041350             -10.9971
        95        2.0000           -0.3881831             -10.5630
        96        2.0000           -0.3880316             -10.5589
        97        2.0000           -0.3877640             -10.5516
        98        2.0000           -0.3671476              -9.9906
        99        2.0000           -0.3670567              -9.9881 (HOMO)
       100                         -0.2824546              -7.6860 (LUMO)
       101                         -0.2822715              -7.6810
       102                         -0.2495269              -6.7900
       103                         -0.2457882              -6.6882
       104                         -0.2453567              -6.6765
       105                         -0.2366217              -6.4388
       106                         -0.2228883              -6.0651
       107                         -0.2228147              -6.0631
       108                         -0.2225022              -6.0546
       109                         -0.2091035              -5.6900
       110                         -0.2081840              -5.6650
       ...                                ...                  ...
       195                          0.7032032              19.1351
      -------------------------------------------------------------
                  HL-Gap            0.0846021 Eh            2.3021 eV

     #   Z          covCN         q      C6AA      α(0)
     1   6 C        2.920    -0.030    28.761     8.794
     2   6 C        2.918    -0.029    28.734     8.790
     3   6 C        2.925    -0.033    28.829     8.805
     4   6 C        2.977     0.010    27.781     8.646
     5   6 C        2.975     0.012    27.736     8.639
     6   6 C        2.925    -0.029    28.731     8.790
     7   6 C        2.917    -0.029    28.717     8.788
     8   6 C        2.922    -0.026    28.647     8.777
     9   6 C        2.983    -0.001    28.051     8.688
    10   6 C        2.983     0.203    23.702     7.986
    11   7 N        1.843    -0.295    28.508     7.913
    12   6 C        2.986     0.202    23.704     7.986
    13   6 C        2.983    -0.001    28.047     8.687
    14   6 C        2.923    -0.026    28.658     8.779
    15   6 C        2.917    -0.029    28.717     8.788
    16   6 C        2.925    -0.029    28.730     8.790
    17   6 C        2.975     0.012    27.734     8.638
    18   6 C        2.977     0.010    27.779     8.646
    19   6 C        2.925    -0.033    28.830     8.805
    20   6 C        2.919    -0.029    28.732     8.790
    21   6 C        2.920    -0.031    28.762     8.795
    22   6 C        2.919    -0.029    28.723     8.789
    23   6 C        2.925    -0.033    28.822     8.804
    24   6 C        2.930    -0.029    28.737     8.791
    25   7 N        1.843    -0.295    28.496     7.911
    26   6 C        2.984     0.203    23.701     7.986
    27   6 C        2.983    -0.001    28.049     8.688
    28   6 C        2.922    -0.026    28.650     8.778
    29   6 C        2.917    -0.029    28.717     8.788
    30   6 C        2.925    -0.029    28.732     8.790
    31   6 C        2.975     0.012    27.736     8.639
    32   6 C        2.977     0.010    27.781     8.646
    33   6 C        2.925    -0.033    28.820     8.804
    34   6 C        2.918    -0.029    28.719     8.788
    35   6 C        2.920    -0.030    28.761     8.795
    36   6 C        2.918    -0.029    28.735     8.790
    37   6 C        2.925    -0.033    28.830     8.805
    38   6 C        2.932    -0.030    28.743     8.792
    39   7 N        1.847    -0.297    28.544     7.918
    40   6 C        2.932    -0.030    28.744     8.793
    41   6 C        2.925    -0.033    28.820     8.804
    42   6 C        2.918    -0.029    28.719     8.788
    43   1 H        0.926     0.030     2.588     2.516
    44   1 H        0.926     0.030     2.585     2.514
    45   1 H        0.926     0.031     2.567     2.506
    46   1 H        0.926     0.037     2.484     2.465
    47   1 H        0.926     0.036     2.503     2.474
    48   1 H        0.926     0.053     2.284     2.364
    49   1 H        0.926     0.055     2.260     2.351
    50   1 H        0.926     0.036     2.502     2.473
    51   1 H        0.926     0.037     2.483     2.464
    52   1 H        0.926     0.031     2.568     2.506
    53   1 H        0.926     0.030     2.584     2.514
    54   1 H        0.926     0.030     2.585     2.514
    55   1 H        0.926     0.031     2.577     2.510
    56   1 H        0.926     0.034     2.530     2.487
    57   1 H        0.926     0.057     2.234     2.337
    58   1 H        0.926     0.053     2.281     2.362
    59   1 H        0.926     0.036     2.502     2.473
    60   1 H        0.926     0.037     2.484     2.465
    61   1 H        0.926     0.034     2.525     2.485
    62   1 H        0.926     0.031     2.577     2.510
    63   1 H        0.926     0.030     2.588     2.516
    64   1 H        0.926     0.030     2.585     2.514
    65   1 H        0.926     0.031     2.567     2.506
    66   1 H        0.926     0.057     2.237     2.339
    67   1 H        0.926     0.057     2.234     2.337
    68   1 H        0.926     0.034     2.526     2.485
    69   1 H        0.926     0.031     2.577     2.510

molecular dipole:
                 x           y           z       tot (Debye)
 q only:        0.107      -0.098      -0.018
   full:        0.089      -0.081      -0.011       0.308

 projected vibrational frequencies (cm⁻¹)
eigval :       -0.00    -0.00    -0.00     0.00     0.00     0.00
eigval :        7.76    13.58    14.15    16.44    26.03    28.63
eigval :       44.34    46.63    53.74    66.59    79.10    83.78
eigval :       86.87    90.17   100.57   102.01   102.96   160.95
eigval :      173.55   183.55   188.06   208.84   227.45   244.69
eigval :      256.91   259.88   279.42   289.07   317.25   321.68
eigval :      332.76   346.02   357.72   372.03   372.70   372.82
eigval :      393.30   394.91   410.95   411.83   425.33   478.98
eigval :      491.50   494.14   529.09   530.60   559.50   575.23
eigval :      584.02   584.20   584.52   589.41   590.54   593.23
eigval :      615.23   618.78   649.12   652.18   654.25   661.14
eigval :      674.15   674.29   674.80   690.33   690.84   735.62
eigval :      736.27   752.60   758.07   758.71   781.55   790.31
eigval :      806.56   806.84   810.19   876.99   877.38   878.20
eigval :      888.85   890.20   890.73   893.69   895.47   904.06
eigval :      904.82   905.42   906.44   906.98   907.96   928.75
eigval :      928.96   929.28   931.97   932.05   932.33   932.58
eigval :      932.69   934.91   959.95   981.02   982.40   990.18
eigval :      993.74   993.86  1050.32  1075.97  1080.85  1081.24
eigval :     1087.31  1088.22  1088.94  1101.89  1117.18  1119.00
eigval :     1121.33  1122.36  1123.73  1125.09  1164.49  1164.79
eigval :     1181.53  1182.25  1182.63  1184.99  1186.32  1187.85
eigval :     1201.53  1202.29  1203.38  1208.90  1245.20  1247.61
eigval :     1254.93  1281.58  1281.77  1281.86  1284.36  1291.78
eigval :     1293.96  1318.34  1318.53  1318.82  1328.14  1329.11
eigval :     1330.95  1360.08  1368.16  1374.24  1415.42  1421.04
eigval :     1424.23  1436.90  1437.97  1438.37  1458.90  1459.74
eigval :     1467.75  1488.40  1489.21  1490.07  1516.62  1519.57
eigval :     1574.20  1574.56  1576.58  1583.37  1584.09  1584.30
eigval :     1588.59  1589.10  1590.57  1600.83  1600.97  1601.12
eigval :     3070.91  3070.99  3071.18  3072.68  3072.70  3072.96
eigval :     3074.98  3075.02  3075.11  3081.21  3081.35  3081.47
eigval :     3085.14  3085.16  3085.39  3086.81  3086.92  3087.24
eigval :     3092.13  3092.19  3092.43  3106.00  3107.63  3109.06
eigval :     3109.24  3109.59  3111.39

   temp. (K)  partition function   enthalpy   heat capacity  entropy
                                   cal/mol     cal/K/mol   cal/K/mol   J/K/mol
 298.15  VIB  0.338E+17            19630.128    121.283    124.709
         ROT  0.739E+08              888.752      2.981     38.986
         INT  0.250E+25            20518.880    124.264    163.696
         TR   0.121E+29             1481.254      4.968     44.712
         TOT                       22000.1341   129.2321   208.4071   871.9754

       T/K    H(0)-H(T)+PV         H(T)/Eh          T*S/Eh         G(T)/Eh
   ------------------------------------------------------------------------
    298.15    0.350594E-01    0.566457E+00    0.990210E-01    0.467436E+00
   ------------------------------------------------------------------------

         :::::::::::::::::::::::::::::::::::::::::::::::::::::
         ::                  THERMODYNAMIC                  ::
         :::::::::::::::::::::::::::::::::::::::::::::::::::::
         :: total free energy        -105.575815594892 Eh   ::
         ::.................................................::
         :: total energy             -106.043252000346 Eh   ::
         :: zero point energy           0.531397911650 Eh   ::
         :: G(RRHO) w/o ZPVE           -0.063961506197 Eh   ::
         :: G(RRHO) contrib.            0.467436405453 Eh   ::
         :::::::::::::::::::::::::::::::::::::::::::::::::::::

           -------------------------------------------------
          | TOTAL ENERGY             -106.043252000346 Eh   |
          | TOTAL ENTHALPY           -105.476794643397 Eh   |
          | TOTAL FREE ENERGY        -105.575815594892 Eh   |
          | GRADIENT NORM               0.000024909000 Eh/α |
          | HOMO-LUMO GAP               2.302141590275 eV   |
           -------------------------------------------------

 * finished run on 2025/09/05 at 11:59:47.513
