   * xtb version 6.7.1 (edcfbbe) compiled by 'albert@albert-system' on 2024-07-22

   ID    Z sym.   atoms
    1    6 C      1-10, 12-24, 26-38, 40-42
    2    7 N      11, 25, 39
    3    1 H      43-69

          program call               : xtb data2507/gas/CzmPPC/CzmPPC_gas_S0_finalOpt.xtbopt.xyz --gfn 2 --spinpol --tblite --uhf 2 --ohess vtight --parallel 40 --molden --ceasefiles --namespace data2507/gas/CzmPPC/CzmPPC_gas_T1_preOpt
 * total energy  :  -105.9577642 Eh     change       -0.1778291E-07 Eh
 * total energy  :  -105.9606896 Eh     change       -0.2925352E-02 Eh
 * total energy  :  -105.9619710 Eh     change       -0.1281434E-02 Eh
 * total energy  :  -105.9619956 Eh     change       -0.2456954E-04 Eh
 * total energy  :  -105.9620239 Eh     change       -0.2828164E-04 Eh
 * total energy  :  -105.9620435 Eh     change       -0.1967998E-04 Eh
 * total energy  :  -105.9621123 Eh     change       -0.6871148E-04 Eh
 * total energy  :  -105.9621550 Eh     change       -0.4276654E-04 Eh
 * total energy  :  -105.9622376 Eh     change       -0.8253264E-04 Eh
 * total energy  :  -105.9622726 Eh     change       -0.3506618E-04 Eh
 * total energy  :  -105.9625537 Eh     change        0.2843905E-08 Eh
 * total energy  :  -105.9625539 Eh     change       -0.1211352E-06 Eh
 * total energy  :  -105.9625540 Eh     change       -0.1761316E-06 Eh
 * total energy  :  -105.9625541 Eh     change       -0.2648973E-07 Eh
 * total energy  :  -105.9625542 Eh     change       -0.1196582E-06 Eh
 * total energy  :  -105.9625543 Eh     change       -0.1579906E-06 Eh
 * total energy  :  -105.9625545 Eh     change       -0.1232896E-06 Eh
 * total energy  :  -105.9625546 Eh     change       -0.1709289E-06 Eh
 * total energy  :  -105.9625547 Eh     change       -0.8470803E-07 Eh
   *** GEOMETRY OPTIMIZATION CONVERGED AFTER 53 ITERATIONS ***

 final structure:
================
69
 xtb: 6.7.1 (edcfbbe)
C            5.78290011281210       -4.53982506977390        0.24984912878950
C            4.84029677708377       -5.34215816459954        0.87075481597167
C            3.49463455424797       -5.04105051634127        0.77002833513234
C            3.06839790652841       -3.92953002015078        0.04696712159426
C            1.63918638386058       -3.59299772765644       -0.04675369455518
C            0.66792767385871       -4.58606194652941       -0.19539336211422
C           -0.67546519049537       -4.24749369410183       -0.26967537307156
C           -1.07815865148075       -2.93171061272139       -0.20000248641235
C           -0.11846528024907       -1.91898502881966       -0.05758376670254
C           -0.48558430802176       -0.53777209258274        0.00876187505696
N           -1.73540091193130       -0.12679144352036       -0.00548999458746
C           -2.05889565726483        1.15170783924502        0.05581331596447
C           -3.42418903438270        1.57743114216569        0.04040275440231
C           -3.74801249261059        2.94173054383739        0.08575617711708
C           -5.06784237869260        3.33620409448844        0.07080431334982
C           -6.08532901704023        2.39642226990176        0.01451411113202
C           -5.78474371650529        1.03234141520201       -0.03259759432366
C           -6.86171556762274        0.03140147078681       -0.09309958732974
C           -8.00705156565695        0.17177157529633        0.68679928379356
C           -9.01756291434082       -0.76996192003368        0.62920769229028
C           -8.90281669386775       -1.86427656081897       -0.21164051632501
C           -7.76887486544734       -2.01291895393746       -0.99269243754476
C           -6.75512358480798       -1.07500414333796       -0.93255933718419
C           -4.45889663513553        0.63423079257916       -0.02120409007272
N           -1.05539630343288        2.09606395770759        0.13130273424002
C            0.18943702986055        1.67558017849461        0.13627648845194
C            1.28273315550899        2.64829621552696        0.20829113656934
C            1.03303648471360        3.99760495075748        0.44400588906825
C            2.09413299049683        4.88039058093576        0.51864665845140
C            3.39475768040605        4.43369375599098        0.35737273758450
C            3.65966427864885        3.08578899943337        0.11511917339980
C            5.03352510348767        2.59195517745370       -0.06531050939719
C            5.41599223073132        1.36035881943672        0.46311728582830
C            6.70147472510084        0.88545568556130        0.28286487594726
C            7.62560317828664        1.63145406492894       -0.42960133660502
C            7.25657704633849        2.85691234202688       -0.95866929044531
C            5.97190358605076        3.33497904164579       -0.77763687210205
C            2.58997064790778        2.20305817394452        0.04328342006202
N            0.51873730544031        0.40160550600191        0.08398947451728
C            1.23488088499470       -2.27044601523341        0.01904376924930
C            4.02602592496552       -3.13023798195628       -0.57450124375035
C            5.37082410759796       -3.43335690019926       -0.47403572724405
H            6.83381907316576       -4.77639856338910        0.32954090884679
H            5.15607861664187       -6.20505272482944        1.43926377539738
H            2.76655670301696       -5.66021261593507        1.27371614204252
H            0.96711315918706       -5.62060312162743       -0.27277512288741
H           -1.41422034754843       -5.02742447731412       -0.38674963564340
H           -2.12144041661336       -2.66174696117544       -0.25582055513501
H           -2.94826823378307        3.66480848405741        0.12943898395081
H           -5.31432735753243        4.38793954298862        0.10054855237535
H           -7.11579224500664        2.71749187642953       -0.01520110370254
H           -8.09482361070211        1.01496305647996        1.35664134830502
H           -9.89818452883452       -0.65106324320219        1.24394496937835
H           -9.69380344821694       -2.59833736015103       -0.25785938524440
H           -7.67566151309153       -2.86312095228110       -1.65300482169191
H           -5.87949188654838       -1.18691054820158       -1.55540427712984
H           -4.20035311926149       -0.41388667577908       -0.03643237763734
H            0.01567967699520        4.33301830284390        0.57115022481412
H            1.90811083624332        5.92730506584369        0.70854141186912
H            4.21486633552920        5.13190820593904        0.43823736843739
H            4.70706579238355        0.78072436754756        1.03605814727580
H            6.98256149690606       -0.07008338702247        0.70137636548147
H            8.62947049021409        1.25966411876873       -0.57223924685399
H            7.97242436257682        3.44138178957912       -1.51818081066919
H            5.68543394980743        4.28205120236307       -1.21138094219316
H            2.75752216152255        1.15731433205291       -0.16376087144412
H            1.95960819241929       -1.48257717254009        0.15744761359280
H            3.71159655695878       -2.27596410348821       -1.15635951555160
H            6.10005363501057       -2.80446525558406       -0.96463837799160

 projected vibrational frequencies (cm⁻¹)
eigval :       -0.00    -0.00    -0.00    -0.00     0.00     0.00
eigval :       10.53    13.85    16.83    18.06    24.24    28.01
eigval :       44.59    47.21    52.12    64.59    78.72    85.20
eigval :       86.87    92.52    99.09   106.99   116.15   155.03
eigval :      166.75   188.18   204.31   206.75   229.70   240.01
eigval :      255.18   256.79   260.13   285.22   310.10   315.82
eigval :      328.49   330.69   347.38   371.54   372.34   372.60
eigval :      375.97   383.78   392.70   398.99   414.93   473.07
eigval :      477.85   485.03   505.79   520.11   521.69   538.41
eigval :      552.04   561.68   583.46   583.82   583.99   587.83
eigval :      589.27   590.69   605.89   625.04   645.96   648.26
eigval :      648.65   651.50   669.06   672.47   673.62   674.82
eigval :      705.41   708.86   738.41   753.41   753.51   756.53
eigval :      785.72   787.02   790.27   802.20   859.25   863.95
eigval :      865.47   870.88   871.95   873.64   876.68   880.06
eigval :      880.53   884.92   901.84   903.09   903.31   906.05
eigval :      918.21   918.71   928.03   930.34   930.56   931.68
eigval :      932.03   932.41   934.87   946.03   965.08   971.23
eigval :      974.23   986.39   986.75   991.16  1041.86  1077.09
eigval :     1078.70  1081.30  1086.76  1087.25  1088.29  1096.42
eigval :     1108.93  1117.57  1121.10  1121.74  1122.78  1124.99
eigval :     1128.52  1174.31  1178.61  1181.47  1181.96  1182.71
eigval :     1184.03  1186.35  1200.45  1202.02  1203.05  1215.85
eigval :     1245.15  1249.16  1261.81  1281.19  1281.52  1281.96
eigval :     1282.39  1291.92  1297.74  1318.30  1318.47  1318.77
eigval :     1327.72  1333.20  1333.64  1343.10  1373.59  1384.12
eigval :     1402.52  1417.40  1426.53  1435.77  1437.05  1437.89
eigval :     1446.90  1454.69  1472.02  1486.50  1487.12  1489.90
eigval :     1544.43  1546.03  1563.84  1565.73  1569.40  1581.58
eigval :     1582.34  1582.43  1584.19  1597.49  1598.78  1599.75
eigval :     3069.46  3070.54  3071.86  3072.00  3072.98  3073.25
eigval :     3073.35  3074.74  3079.12  3080.81  3080.88  3082.95
eigval :     3084.32  3084.61  3087.13  3089.27  3089.39  3090.17
eigval :     3090.41  3090.69  3091.23  3091.62  3093.91  3096.80
eigval :     3097.63  3098.97  3104.74

   temp. (K)  partition function   enthalpy   heat capacity  entropy
                                   cal/mol     cal/K/mol   cal/K/mol   J/K/mol
 298.15  VIB  0.271E+17            20023.658    124.337    126.063
         ROT  0.740E+08              888.752      2.981     38.988
         INT  0.201E+25            20912.410    127.318    165.051
         TR   0.121E+29             1481.254      4.968     44.712
         TOT                       22393.6644   132.2860   209.7625   877.6465

       T/K    H(0)-H(T)+PV         H(T)/Eh          T*S/Eh         G(T)/Eh
   ------------------------------------------------------------------------
    298.15    0.356866E-01    0.561056E+00    0.996650E-01    0.461391E+00
   ------------------------------------------------------------------------

         :::::::::::::::::::::::::::::::::::::::::::::::::::::
         ::                  THERMODYNAMIC                  ::
         :::::::::::::::::::::::::::::::::::::::::::::::::::::
         :: total free energy        -105.501163498314 Eh   ::
         ::.................................................::
         :: total energy             -105.962554732969 Eh   ::
         :: zero point energy           0.525369609951 Eh   ::
         :: G(RRHO) w/o ZPVE           -0.063978375296 Eh   ::
         :: G(RRHO) contrib.            0.461391234655 Eh   ::
         :::::::::::::::::::::::::::::::::::::::::::::::::::::

           -------------------------------------------------
          | TOTAL ENERGY             -105.962554732969 Eh   |
          | TOTAL ENTHALPY           -105.401498547226 Eh   |
          | TOTAL FREE ENERGY        -105.501163498314 Eh   |
          | GRADIENT NORM               0.000056605650 Eh/α |
           -------------------------------------------------

 * finished run on 2025/09/05 at 11:59:58.602
