   * xtb version 6.7.1 (edcfbbe) compiled by 'albert@albert-system' on 2024-07-22

   ID    Z sym.   atoms
    1    6 C      1-10, 12-24, 26-38, 40-42
    2    7 N      11, 25, 39
    3    1 H      43-69

          program call               : xtb data2507/gas/CzmPPC/CzmPPC.xyz --gfn 2 --ohess vtight --parallel 40 --molden --ceasefiles --namespace data2507/gas/CzmPPC/CzmPPC_gas_S0_preOpt
          :  Hamiltonian                  GFN2-xTB          :
 * total energy  :  -106.0291896 Eh     change       -0.2070280E-08 Eh
 * total energy  :  -106.0375216 Eh     change       -0.8332058E-02 Eh
 * total energy  :  -106.0400765 Eh     change       -0.2554856E-02 Eh
 * total energy  :  -106.0408579 Eh     change       -0.7813601E-03 Eh
 * total energy  :  -106.0411681 Eh     change       -0.3102704E-03 Eh
 * total energy  :  -106.0413302 Eh     change       -0.1621040E-03 Eh
 * total energy  :  -106.0415289 Eh     change       -0.1987183E-03 Eh
 * total energy  :  -106.0417433 Eh     change       -0.2143609E-03 Eh
 * total energy  :  -106.0419490 Eh     change       -0.2056578E-03 Eh
 * total energy  :  -106.0421133 Eh     change       -0.1643682E-03 Eh
 * total energy  :  -106.0425884 Eh     change       -0.1346715E-05 Eh
 * total energy  :  -106.0425894 Eh     change       -0.9614904E-06 Eh
 * total energy  :  -106.0425901 Eh     change       -0.6944949E-06 Eh
 * total energy  :  -106.0425907 Eh     change       -0.5914397E-06 Eh
 * total energy  :  -106.0425913 Eh     change       -0.6017308E-06 Eh
 * total energy  :  -106.0425918 Eh     change       -0.5810394E-06 Eh
 * total energy  :  -106.0425923 Eh     change       -0.4948953E-06 Eh
 * total energy  :  -106.0425928 Eh     change       -0.4634694E-06 Eh
 * total energy  :  -106.0425928 Eh     change       -0.3582187E-08 Eh
   *** GEOMETRY OPTIMIZATION CONVERGED AFTER 44 ITERATIONS ***

 final structure:
================
69
 xtb: 6.7.1 (edcfbbe)
C            0.51027249082054       -8.50617715032174       -0.03060922535420
C            0.97506380320632       -7.46424782481568       -0.81567499409759
C            0.31799908728351       -6.24802147467364       -0.81736506425103
C           -0.82000199140170       -6.05643046232961       -0.03725881343024
C           -1.52058572610764       -4.76278992811937       -0.04424504215220
C           -2.91385117146507       -4.70582845050580       -0.05778292024035
C           -3.57104162167849       -3.48758219343976       -0.07043586668946
C           -2.85329322276763       -2.30718758482614       -0.06626268173841
C           -1.46045335713592       -2.34693110346160       -0.05029507064161
C           -0.68668903802612       -1.10506407278650       -0.04316635941932
N           -1.35284077668294        0.04543582008905       -0.04581866003546
C           -0.61056869067862        1.14894671827234       -0.04180436248804
C           -1.29994045647756        2.43956113732895       -0.04823977157289
C           -0.57048772006092        3.62675906985797       -0.06228811010137
C           -1.23548885643758        4.83768302937509       -0.06712291897258
C           -2.61920949129384        4.87595480950876       -0.05935319006231
C           -3.36380287429352        3.69695645866429       -0.04441585811212
C           -4.83442320768226        3.73483879312581       -0.03106362897141
C           -5.55683836688927        2.85343968525640        0.76997402482267
C           -6.93859777925982        2.89014269362296        0.78715153570093
C           -7.62116023413197        3.80305980532982        0.00060889147061
C           -6.91291152167522        4.68104302774796       -0.80256212959475
C           -5.53075925314775        4.64988223705090       -0.81686289137642
C           -2.69021423451482        2.48183558911801       -0.03879187503974
N            0.71877295633937        1.15063619177828       -0.02734240219810
C            1.30323877351046       -0.04402883860888       -0.02221829518632
C            2.76542455250354       -0.09217305345387        0.00418353651764
C            3.42906535777112       -1.31743500844413        0.01116253163248
C            4.80992923155805       -1.34675709510794        0.04173541771004
C            5.53439354699339       -0.16743653787523        0.06522506511379
C            4.88544286336440        1.06689713628471        0.06024142668816
C            5.65294468246211        2.32155364154219        0.09359163497099
C            6.81704936122098        2.46545678900498       -0.65731266339104
C            7.53502947726804        3.64649253221182       -0.62278618609841
C            7.10502758662226        4.70029250615869        0.16597600633905
C            5.94953540286265        4.56738481262628        0.91772633955048
C            5.22721410238120        3.38935921077904        0.88040482002918
C            3.49662876033340        1.09082728476439        0.02895658088043
N            0.64012582476308       -1.19626733021421       -0.03410879034289
C           -0.80338238105518       -3.57286791876092       -0.04089440454596
C           -1.27992644241089       -7.11139812686986        0.74704095757208
C           -0.61774853940811       -8.32507572817980        0.75190313060124
H            1.02527706027157       -9.45551106799009       -0.02831992543046
H            1.85278737326536       -7.60138008027094       -1.43059662140414
H            0.67494402400496       -5.44316858128380       -1.44327497143724
H           -3.48339737409568       -5.62368776139317       -0.07916460087590
H           -4.65096399280832       -3.46163477421438       -0.08684413063591
H           -3.34940537054815       -1.34985874738192       -0.07696546433244
H            0.50673477178794        3.57913895469183       -0.06984460215664
H           -0.67417827509444        5.76075224038978       -0.07434325673127
H           -3.13011517432026        5.82782624301272       -0.04475351682183
H           -5.02843546099758        2.15028526122280        1.39712791018338
H           -7.48626494077125        2.20502490483205        1.41803464502559
H           -8.70078485218447        3.82995200622143        0.01317537293142
H           -7.44038939489330        5.39210896746348       -1.42181287175913
H           -4.98441337601288        5.32589081048301       -1.45867782150321
H           -3.23497314525829        1.55081005150645       -0.04565313711934
H            2.84959072174871       -2.22664352403713       -0.00514115700718
H            5.32877037848505       -2.29432543360043        0.05164685126930
H            6.61340282844065       -0.20086521889553        0.10888052854815
H            7.14852415626591        1.65322944335134       -1.28803696716048
H            8.43325131810902        3.74631558375669       -1.21487067362514
H            7.66806072577901        5.62152045720794        0.19447217780796
H            5.61131780856190        5.38533085510488        1.53733936084373
H            4.33547771279100        3.28470887385795        1.48106608789876
H            2.96289146427237        2.02795066753381        0.00588772964363
H            0.27492101940863       -3.58060181235095       -0.01165468558259
H           -2.14957929406472       -6.97089373924586        1.37265132035839
H           -0.98199161872625       -9.13301367667635        1.36987369557463

          :  Hamiltonian                  GFN2-xTB          :
         :: gradient norm              0.000046101790 Eh/a0 ::
         :: HOMO-LUMO gap              2.299431392477 eV    ::
         :: SCC energy              -108.046180969700 Eh    ::
         :: -> dispersion             -0.086191836517 Eh    ::
         :: repulsion energy           2.003588169253 Eh    ::

    * Orbital Energies and Occupations

         #    Occupation            Energy/Eh            Energy/eV
      -------------------------------------------------------------
         1        2.0000           -0.6796226             -18.4935
       ...           ...                  ...                  ...
        87        2.0000           -0.4134144             -11.2496
        88        2.0000           -0.4133590             -11.2481
        89        2.0000           -0.4067891             -11.0693
        90        2.0000           -0.4046789             -11.0119
        91        2.0000           -0.4046707             -11.0116
        92        2.0000           -0.4046530             -11.0112
        93        2.0000           -0.4046124             -11.0101
        94        2.0000           -0.4045948             -11.0096
        95        2.0000           -0.3880238             -10.5587
        96        2.0000           -0.3880157             -10.5584
        97        2.0000           -0.3879731             -10.5573
        98        2.0000           -0.3669083              -9.9841
        99        2.0000           -0.3669034              -9.9839 (HOMO)
       100                         -0.2824008              -7.6845 (LUMO)
       101                         -0.2823995              -7.6845
       102                         -0.2490637              -6.7774
       103                         -0.2450924              -6.6693
       104                         -0.2450367              -6.6678
       105                         -0.2365757              -6.4376
       106                         -0.2226146              -6.0577
       107                         -0.2226106              -6.0575
       108                         -0.2225983              -6.0572
       109                         -0.2084678              -5.6727
       110                         -0.2084248              -5.6715
       ...                                ...                  ...
       195                          0.7030002              19.1296
      -------------------------------------------------------------
                  HL-Gap            0.0845025 Eh            2.2994 eV

     #   Z          covCN         q      C6AA      α(0)
     1   6 C        2.920    -0.031    28.762     8.795
     2   6 C        2.919    -0.029    28.723     8.789
     3   6 C        2.925    -0.033    28.823     8.804
     4   6 C        2.977     0.010    27.780     8.646
     5   6 C        2.975     0.012    27.734     8.638
     6   6 C        2.925    -0.029    28.731     8.790
     7   6 C        2.917    -0.029    28.718     8.788
     8   6 C        2.923    -0.026    28.654     8.778
     9   6 C        2.983    -0.001    28.051     8.688
    10   6 C        2.983     0.202    23.705     7.986
    11   7 N        1.844    -0.296    28.515     7.914
    12   6 C        2.983     0.202    23.705     7.986
    13   6 C        2.983    -0.001    28.051     8.688
    14   6 C        2.923    -0.026    28.654     8.778
    15   6 C        2.917    -0.029    28.718     8.788
    16   6 C        2.925    -0.029    28.731     8.790
    17   6 C        2.975     0.012    27.734     8.638
    18   6 C        2.977     0.010    27.780     8.646
    19   6 C        2.925    -0.033    28.824     8.804
    20   6 C        2.919    -0.029    28.723     8.789
    21   6 C        2.920    -0.031    28.761     8.795
    22   6 C        2.919    -0.029    28.732     8.790
    23   6 C        2.925    -0.033    28.830     8.805
    24   6 C        2.930    -0.029    28.737     8.791
    25   7 N        1.844    -0.296    28.515     7.914
    26   6 C        2.983     0.202    23.705     7.987
    27   6 C        2.983    -0.001    28.051     8.688
    28   6 C        2.923    -0.026    28.654     8.778
    29   6 C        2.917    -0.029    28.718     8.788
    30   6 C        2.925    -0.029    28.731     8.790
    31   6 C        2.975     0.012    27.734     8.638
    32   6 C        2.977     0.010    27.780     8.646
    33   6 C        2.925    -0.033    28.830     8.805
    34   6 C        2.919    -0.029    28.732     8.790
    35   6 C        2.920    -0.030    28.761     8.795
    36   6 C        2.919    -0.029    28.723     8.789
    37   6 C        2.925    -0.033    28.824     8.804
    38   6 C        2.930    -0.029    28.737     8.791
    39   7 N        1.844    -0.296    28.514     7.914
    40   6 C        2.930    -0.029    28.736     8.791
    41   6 C        2.925    -0.033    28.830     8.805
    42   6 C        2.919    -0.029    28.732     8.790
    43   1 H        0.926     0.030     2.585     2.514
    44   1 H        0.926     0.031     2.576     2.510
    45   1 H        0.926     0.034     2.530     2.487
    46   1 H        0.926     0.037     2.484     2.465
    47   1 H        0.926     0.036     2.502     2.474
    48   1 H        0.926     0.054     2.270     2.356
    49   1 H        0.926     0.054     2.270     2.356
    50   1 H        0.926     0.036     2.503     2.474
    51   1 H        0.926     0.037     2.484     2.465
    52   1 H        0.926     0.034     2.530     2.487
    53   1 H        0.926     0.031     2.577     2.510
    54   1 H        0.926     0.030     2.585     2.514
    55   1 H        0.926     0.030     2.584     2.514
    56   1 H        0.926     0.031     2.568     2.506
    57   1 H        0.926     0.057     2.238     2.339
    58   1 H        0.926     0.054     2.270     2.356
    59   1 H        0.926     0.036     2.503     2.474
    60   1 H        0.926     0.037     2.484     2.465
    61   1 H        0.926     0.031     2.568     2.506
    62   1 H        0.926     0.030     2.584     2.514
    63   1 H        0.926     0.030     2.585     2.514
    64   1 H        0.926     0.031     2.577     2.510
    65   1 H        0.926     0.034     2.529     2.487
    66   1 H        0.926     0.057     2.237     2.339
    67   1 H        0.926     0.057     2.238     2.340
    68   1 H        0.926     0.031     2.568     2.506
    69   1 H        0.926     0.030     2.584     2.514

molecular dipole:
                 x           y           z       tot (Debye)
 q only:       -0.001       0.001       0.018
   full:       -0.001       0.001       0.013       0.033

 projected vibrational frequencies (cm⁻¹)
eigval :       -0.00    -0.00     0.00     0.00     0.00     0.00
eigval :        5.98    10.18    10.22    23.39    23.43    28.15
eigval :       44.38    44.47    50.74    65.97    82.61    83.27
eigval :       85.62    92.97    96.68   102.08   104.05   154.00
eigval :      185.26   185.41   206.38   206.62   211.86   227.10
eigval :      257.44   261.71   261.85   311.06   319.46   319.93
eigval :      342.62   342.71   345.57   371.95   372.00   372.59
eigval :      391.15   393.65   406.49   417.55   432.10   474.43
eigval :      489.54   497.57   528.98   530.07   565.03   569.07
eigval :      584.23   584.37   584.59   589.57   589.86   592.22
eigval :      617.18   617.18   649.39   652.78   654.65   661.46
eigval :      674.14   674.44   674.83   690.48   690.50   735.70
eigval :      735.73   752.83   757.91   758.18   781.17   790.56
eigval :      806.70   806.83   810.26   877.36   877.38   877.43
eigval :      888.05   890.30   890.89   894.23   894.37   903.44
eigval :      904.37   905.19   907.59   907.70   907.74   928.88
eigval :      928.90   928.91   931.87   932.35   932.38   932.71
eigval :      932.72   932.73   960.10   981.70   981.73   990.09
eigval :      993.59   993.62  1050.05  1076.03  1080.41  1080.47
eigval :     1088.02  1088.06  1088.38  1098.42  1120.33  1120.37
eigval :     1120.73  1122.91  1123.98  1124.02  1163.24  1163.31
eigval :     1181.90  1182.37  1182.38  1184.34  1187.47  1187.50
eigval :     1201.35  1202.24  1202.37  1207.05  1241.92  1250.79
eigval :     1250.86  1281.56  1281.61  1281.67  1284.25  1292.51
eigval :     1292.75  1318.73  1318.76  1318.76  1328.56  1328.58
eigval :     1330.00  1365.40  1367.32  1367.46  1419.88  1419.95
eigval :     1424.31  1437.54  1437.56  1439.08  1458.53  1458.57
eigval :     1467.30  1488.08  1488.29  1490.27  1517.49  1517.55
eigval :     1573.93  1575.32  1575.34  1583.71  1584.32  1584.34
eigval :     1588.58  1590.19  1590.23  1601.02  1601.15  1601.17
eigval :     3071.22  3071.23  3071.25  3072.97  3072.99  3073.00
eigval :     3075.08  3075.11  3075.12  3081.18  3081.22  3081.23
eigval :     3085.09  3085.13  3085.21  3086.85  3086.88  3086.98
eigval :     3092.44  3092.47  3092.55  3106.52  3106.62  3106.66
eigval :     3111.11  3111.12  3111.39

   temp. (K)  partition function   enthalpy   heat capacity  entropy
                                   cal/mol     cal/K/mol   cal/K/mol   J/K/mol
 298.15  VIB  0.697E+17            19651.004    121.218    125.395
         ROT  0.886E+08              888.752      2.981     39.346
         INT  0.617E+25            20539.756    124.199    164.741
         TR   0.121E+29             1481.254      4.968     44.712
         TOT                       22021.0099   129.1671   209.4527   876.3501

       T/K    H(0)-H(T)+PV         H(T)/Eh          T*S/Eh         G(T)/Eh
   ------------------------------------------------------------------------
    298.15    0.350927E-01    0.566414E+00    0.995177E-01    0.466896E+00
   ------------------------------------------------------------------------

         :::::::::::::::::::::::::::::::::::::::::::::::::::::
         ::                  THERMODYNAMIC                  ::
         :::::::::::::::::::::::::::::::::::::::::::::::::::::
         :: total free energy        -105.575696829963 Eh   ::
         ::.................................................::
         :: total energy             -106.042592800447 Eh   ::
         :: zero point energy           0.531320993138 Eh   ::
         :: G(RRHO) w/o ZPVE           -0.064425022655 Eh   ::
         :: G(RRHO) contrib.            0.466895970484 Eh   ::
         :::::::::::::::::::::::::::::::::::::::::::::::::::::

           -------------------------------------------------
          | TOTAL ENERGY             -106.042592800447 Eh   |
          | TOTAL ENTHALPY           -105.476179094360 Eh   |
          | TOTAL FREE ENERGY        -105.575696829963 Eh   |
          | GRADIENT NORM               0.000046100851 Eh/α |
          | HOMO-LUMO GAP               2.299431415256 eV   |
           -------------------------------------------------

 * finished run on 2025/09/05 at 11:57:00.753
