   * xtb version 6.7.1 (edcfbbe) compiled by 'albert@albert-system' on 2024-07-22

   ID    Z sym.   atoms
    1    6 C      1-10, 12-24, 26-38, 40-42
    2    7 N      11, 25, 39
    3    1 H      43-69

          program call               : xtb data2507/gas/CzmPPC/CzmPPC_gas_T1_crest.xyz --gfn 2 --spinpol --tblite --uhf 2 --ohess vtight --parallel 40 --molden --ceasefiles --namespace data2507/gas/CzmPPC/CzmPPC_gas_T1_finalOpt
 * total energy  :  -105.9623755 Eh     change        0.7723273E-08 Eh
 * total energy  :  -105.9624530 Eh     change       -0.7747444E-04 Eh
 * total energy  :  -105.9625133 Eh     change       -0.6026631E-04 Eh
 * total energy  :  -105.9625232 Eh     change       -0.9934705E-05 Eh
 * total energy  :  -105.9625398 Eh     change       -0.1658926E-04 Eh
 * total energy  :  -105.9625434 Eh     change       -0.3575661E-05 Eh
 * total energy  :  -105.9625455 Eh     change       -0.2127564E-05 Eh
 * total energy  :  -105.9625467 Eh     change       -0.1144306E-05 Eh
 * total energy  :  -105.9625486 Eh     change       -0.1899235E-05 Eh
 * total energy  :  -105.9625515 Eh     change       -0.2929282E-05 Eh
 * total energy  :  -105.9625734 Eh     change       -0.3186187E-06 Eh
 * total energy  :  -105.9625736 Eh     change       -0.2202300E-06 Eh
 * total energy  :  -105.9625738 Eh     change       -0.1448739E-06 Eh
 * total energy  :  -105.9625739 Eh     change       -0.1296268E-06 Eh
 * total energy  :  -105.9625741 Eh     change       -0.1519679E-06 Eh
 * total energy  :  -105.9625742 Eh     change       -0.1145058E-06 Eh
 * total energy  :  -105.9625743 Eh     change       -0.1520733E-06 Eh
 * total energy  :  -105.9625744 Eh     change       -0.1227021E-06 Eh
 * total energy  :  -105.9625745 Eh     change       -0.9262604E-07 Eh
   *** GEOMETRY OPTIMIZATION CONVERGED AFTER 37 ITERATIONS ***

 final structure:
================
69
 xtb: 6.7.1 (edcfbbe)
C            5.76613585918684       -4.53732314038716       -0.38069313193013
C            5.39177382360812       -3.40753362364627        0.32751026903808
C            4.05404327833718       -3.09546813527452        0.48106732694912
C            3.06703487420386       -3.91041966861189       -0.07030767907232
C            1.64512069463518       -3.56507237812264        0.08055610070126
C            0.67537586275072       -4.54394646249053        0.29765443345887
C           -0.65927866841043       -4.19961591473124        0.42906750269732
C           -1.05569108643649       -2.87776239259656        0.34930767271093
C           -0.09792370897505       -1.88923522549257        0.13928498987499
C           -0.47188286612158       -0.47455943212920        0.06166309724399
N           -1.74209200314438       -0.13912746651257        0.04640295485698
C           -2.05719073579587        1.20227381436932       -0.03749935819054
C           -3.43128677635565        1.59828340716260       -0.05760667813878
C           -3.78548284030799        2.95460855737270       -0.13254903134588
C           -5.11365326015856        3.31679924331115       -0.14928017347650
C           -6.11089095915045        2.35423414669890       -0.09479875939115
C           -5.78035296015168        0.99929537350818       -0.01865293693702
C           -6.83425001002913       -0.02557826247153        0.04356096825087
C           -6.71390411854385       -1.11406049761578        0.90439230374685
C           -7.70575552998798       -2.07487633784072        0.96727809728521
C           -8.83149581244461       -1.96735055558900        0.16782086177990
C           -8.95993000833152       -0.89114318475406       -0.69412682820413
C           -7.97131000146391        0.07340471356624       -0.75455965698465
C           -4.44455484623185        0.63313595990057       -0.00019460766943
N           -1.08158693741836        2.08959422159000       -0.09123123225582
C            0.18757959952925        1.74370115119639       -0.06276211846594
C            1.25691403283734        2.69269748094625       -0.11370954097989
C            1.01847773151284        4.06658796261682       -0.26332739946256
C            2.08176989485168        4.94122013491013       -0.31557761293130
C            3.38726708776883        4.48211661616977       -0.21651457054905
C            3.64614496352843        3.11819050793503       -0.06051632871497
C            5.02148139793380        2.60963516504271        0.05998590861277
C            5.97763735560536        3.30332086166971        0.79793055378778
C            7.26336841580139        2.81086205978567        0.92448163671046
C            7.61668870552773        1.61855617925834        0.31512112676660
C            6.67521178132162        0.92132843530361       -0.42351936150733
C            5.38915381675339        1.41173379446226       -0.54997945878594
C            2.57778586040809        2.23885056998951       -0.01257921924368
N            0.50616415287149        0.40600035885614        0.01431658034732
C            1.24149538299705       -2.23847096757304        0.00402237463783
C            3.45495114651573       -5.04566457073094       -0.77800706741266
C            4.79375335761288       -5.35468332634953       -0.93227114629752
H            6.81135477672157       -4.78019399017922       -0.50256836350779
H            6.14430121180340       -2.76650018340997        0.76339773732310
H            3.77046701033630       -2.22260736455561        1.05072914685033
H            0.97235895564222       -5.57899198630740        0.38191165695046
H           -1.39624447820327       -4.97082483307989        0.59875650944031
H           -2.09237906848483       -2.59740493385355        0.45119757849455
H           -3.00250544856627        3.69599879127346       -0.17519798086523
H           -5.38410392721422        4.36168842214938       -0.20228418489362
H           -7.14865478818726        2.65227075170810       -0.08870907396791
H           -5.84517262515860       -1.19337124961696        1.54181348882342
H           -7.60224426079022       -2.91061338842923        1.64440846157569
H           -9.60554750646892       -2.71910952832172        0.21640223355594
H           -9.83424193292057       -0.80425814148255       -1.32304992034246
H           -8.06953967782571        0.90239971068731       -1.44045248351891
H           -4.16128506308454       -0.40794515673725        0.03611290757622
H            0.00069381400892        4.41685144417044       -0.33936698994925
H            1.89866663178084        5.99910916611120       -0.43851544838445
H            4.20903644124728        5.17952043206740       -0.28042457331036
H            5.70405468235867        4.22383816701032        1.29285504531685
H            7.99289873312149        3.35779272404000        1.50427477768414
H            8.62147700315596        1.23499532354798        0.41525493696534
H            6.94415880805292       -0.00795371799050       -0.90525479632825
H            4.66590250841082        0.87127978701194       -1.14328034528610
H            2.74444353593861        1.18208454972527        0.13089094903108
H            1.96258820427881       -1.45799103103697       -0.18400308474925
H            2.70296035793560       -5.67648224051802       -1.22935629611419
H            5.08022000347196       -6.23538118708880       -1.48850668107768

 projected vibrational frequencies (cm⁻¹)
eigval :       -0.00    -0.00    -0.00    -0.00    -0.00     0.00
eigval :       10.86    13.66    14.34    20.49    23.91    27.55
eigval :       44.12    46.97    52.05    64.50    79.25    84.30
eigval :       87.12    90.38   100.71   109.02   115.46   155.44
eigval :      170.88   188.37   198.65   206.64   231.29   240.49
eigval :      252.38   257.08   259.29   285.10   308.55   317.70
eigval :      327.24   334.48   346.49   371.29   372.24   372.38
eigval :      376.92   383.60   392.39   399.36   414.97   473.29
eigval :      479.30   483.26   507.52   516.84   521.08   541.55
eigval :      552.93   561.52   583.55   583.81   584.01   587.60
eigval :      589.47   590.63   605.24   625.79   645.57   648.55
eigval :      648.96   651.59   668.85   672.63   673.18   674.90
eigval :      705.82   709.12   745.99   753.27   753.66   756.78
eigval :      784.82   788.38   788.65   801.99   859.59   861.47
eigval :      863.61   872.60   873.26   874.48   876.53   879.88
eigval :      881.00   884.75   901.63   902.93   903.26   905.92
eigval :      917.92   918.84   927.96   930.27   930.41   931.55
eigval :      931.96   932.21   934.68   946.73   966.68   971.57
eigval :      973.63   986.08   986.85   990.98  1040.15  1077.82
eigval :     1078.79  1081.51  1086.98  1087.35  1088.53  1092.38
eigval :     1109.94  1119.09  1119.72  1122.39  1123.03  1124.21
eigval :     1131.79  1174.37  1178.76  1181.16  1181.74  1182.52
eigval :     1183.87  1186.94  1200.24  1201.83  1202.79  1211.97
eigval :     1243.22  1251.03  1264.18  1280.85  1281.45  1281.86
eigval :     1282.17  1292.04  1298.85  1318.30  1318.43  1318.96
eigval :     1328.03  1332.85  1334.07  1344.40  1369.10  1384.69
eigval :     1400.03  1415.61  1429.47  1434.98  1436.69  1439.18
eigval :     1446.71  1453.91  1472.13  1485.45  1486.34  1489.35
eigval :     1544.11  1546.11  1564.87  1565.66  1569.44  1581.56
eigval :     1582.28  1582.44  1584.11  1598.03  1598.70  1599.67
eigval :     3069.23  3070.00  3071.63  3071.69  3072.85  3073.04
eigval :     3073.31  3074.53  3079.00  3080.38  3080.62  3082.74
eigval :     3083.92  3084.04  3086.75  3089.02  3089.27  3090.21
eigval :     3090.35  3090.82  3091.24  3091.55  3093.95  3096.01
eigval :     3097.98  3098.88  3104.13

   temp. (K)  partition function   enthalpy   heat capacity  entropy
                                   cal/mol     cal/K/mol   cal/K/mol   J/K/mol
 298.15  VIB  0.287E+17            20023.216    124.303    126.085
         ROT  0.737E+08              888.752      2.981     38.982
         INT  0.212E+25            20911.968    127.284    165.067
         TR   0.121E+29             1481.254      4.968     44.712
         TOT                       22393.2222   132.2522   209.7783   877.7124

       T/K    H(0)-H(T)+PV         H(T)/Eh          T*S/Eh         G(T)/Eh
   ------------------------------------------------------------------------
    298.15    0.356859E-01    0.561044E+00    0.996724E-01    0.461372E+00
   ------------------------------------------------------------------------

         :::::::::::::::::::::::::::::::::::::::::::::::::::::
         ::                  THERMODYNAMIC                  ::
         :::::::::::::::::::::::::::::::::::::::::::::::::::::
         :: total free energy        -105.501203019102 Eh   ::
         ::.................................................::
         :: total energy             -105.962574551785 Eh   ::
         :: zero point energy           0.525358102267 Eh   ::
         :: G(RRHO) w/o ZPVE           -0.063986569584 Eh   ::
         :: G(RRHO) contrib.            0.461371532683 Eh   ::
         :::::::::::::::::::::::::::::::::::::::::::::::::::::

           -------------------------------------------------
          | TOTAL ENERGY             -105.962574551785 Eh   |
          | TOTAL ENTHALPY           -105.401530578453 Eh   |
          | TOTAL FREE ENERGY        -105.501203019102 Eh   |
          | GRADIENT NORM               0.000059785068 Eh/α |
           -------------------------------------------------

 * finished run on 2025/09/05 at 12:04:54.266
