   * xtb version 6.7.1 (edcfbbe) compiled by 'albert@albert-system' on 2024-07-22

   ID    Z sym.   atoms
    1    6 C      1, 3, 5-10, 12-17, 19-26, 28-32, 34-39, 41-48, 50
    2    7 N      2, 4, 11, 27, 33, 49
    3    8 O      18, 40
    4    1 H      51-78

          program call               : xtb data2507/toluene/2PXZP/2PXZP_toluene_S0_crest.xyz --gfn 2 --gbsa toluene --ohess vtight --parallel 40 --molden --ceasefiles --namespace data2507/toluene/2PXZP/2PXZP_toluene_S0_finalOpt
      * Solvation model:               GBSA
        Solvent                        toluene
        Solvent mass                       9.2140E+01 g/mol
          :  Hamiltonian                  GFN2-xTB          :
 * total energy  :  -130.0472416 Eh     change       -0.2031982E-08 Eh
 * total energy  :  -130.0472971 Eh     change       -0.5545831E-04 Eh
 * total energy  :  -130.0473164 Eh     change       -0.1928642E-04 Eh
 * total energy  :  -130.0473215 Eh     change       -0.5160580E-05 Eh
 * total energy  :  -130.0473252 Eh     change       -0.3662818E-05 Eh
 * total energy  :  -130.0473271 Eh     change       -0.1915311E-05 Eh
 * total energy  :  -130.0473293 Eh     change       -0.2177800E-05 Eh
 * total energy  :  -130.0473317 Eh     change       -0.2367672E-05 Eh
 * total energy  :  -130.0473339 Eh     change       -0.2257804E-05 Eh
 * total energy  :  -130.0473360 Eh     change       -0.2113951E-05 Eh
 * total energy  :  -130.0473403 Eh     change       -0.2138423E-05 Eh
 * total energy  :  -130.0473421 Eh     change       -0.1803935E-05 Eh
 * total energy  :  -130.0473435 Eh     change       -0.1360323E-05 Eh
 * total energy  :  -130.0473446 Eh     change       -0.1116051E-05 Eh
 * total energy  :  -130.0473457 Eh     change       -0.1158284E-05 Eh
 * total energy  :  -130.0473469 Eh     change       -0.1161164E-05 Eh
 * total energy  :  -130.0473480 Eh     change       -0.1048552E-05 Eh
 * total energy  :  -130.0473486 Eh     change       -0.6208117E-06 Eh
 * total energy  :  -130.0473487 Eh     change       -0.8380869E-07 Eh
   *** GEOMETRY OPTIMIZATION CONVERGED AFTER 20 ITERATIONS ***

 final structure:
================
78
 xtb: 6.7.1 (edcfbbe)
C            0.99748243752617       -6.56681256254446        0.11470092587833
N           -0.01387335045251       -5.54539547100466        0.05570295564593
C           -1.36545571685260       -5.71073886578593       -0.00238569326703
N           -2.04037254558927       -4.60112891979364       -0.04836494627638
C           -1.09661945329587       -3.60577437676387       -0.02164369282214
C           -1.12843662793540       -2.20405920490406       -0.03977606979870
C           -2.34867027189625       -1.40624459059391       -0.08275813417467
C           -3.59983657735473       -2.01270957457685       -0.21259422424066
C           -4.74600855300529       -1.24551509377558       -0.24616095939338
C           -4.66774381690766        0.14251885395638       -0.14649902585617
N           -5.83951617683824        0.92673281712238       -0.17590142883198
C           -6.81169584616562        0.79629888777204        0.82034916056970
C           -6.66811163086053       -0.07769083821758        1.89158804907314
C           -7.65129897718466       -0.17908216401719        2.86443238629800
C           -8.78904416107521        0.59924871414742        2.79216615093121
C           -8.93356063781008        1.50022746280680        1.74717154553378
C           -7.95508809820699        1.60578156840907        0.77583454211115
O           -8.15712197535906        2.54644875555941       -0.20727445616140
C           -7.19276470493713        2.65994300374611       -1.18135943735566
C           -7.41688309458279        3.59390335944371       -2.17614371970025
C           -6.50728629584673        3.74475925803076       -3.21287416619536
C           -5.38582867768460        2.94082329998185       -3.25446099620741
C           -5.15614614257528        2.00442181203012       -2.25772516912039
C           -6.03974282746154        1.86363937937684       -1.19400788315080
C           -3.42038684807551        0.75237192575082       -0.01616746240421
C           -2.27606139759158       -0.01426033040628        0.01416654027281
N            0.03630804807520       -1.55885263882092       -0.00686271342095
C            1.19308120468061       -2.21763005177182        0.05162502695385
C            2.41480944728922       -1.41115032140962        0.08177031217563
C            2.36271159659095       -0.04019176875797       -0.16961466994277
C            3.51305940458525        0.72032408502068       -0.14772372454348
C            4.74108029834310        0.12469954210123        0.13391420159494
N            5.91931645583539        0.90171509573664        0.15973410088041
C            6.07524370255861        1.92604445203127        1.09774006368521
C            5.12220451546088        2.19136296247126        2.07391168815332
C            5.30921940274218        3.21427919949197        2.99159719511600
C            6.45546648975011        3.98249463021466        2.95778970818051
C            7.43174262097650        3.70998612323789        2.01014083219223
C            7.25015309654124        2.69006380895882        1.09446401968686
O            8.27728050180366        2.46130301892768        0.20798086519310
C            8.11143064549380        1.44352512105562       -0.70272955635803
C            9.14694101740943        1.22837538571550       -1.59327585225733
C            9.04253377422181        0.24245674450709       -2.56406627843482
C            7.88865591633677       -0.51076636654521       -2.64499532627784
C            6.84849207045055       -0.29993670282035       -1.75216696801563
C            6.94926954869199        0.66179127771933       -0.75388494863167
C            4.79823914921376       -1.24405555732086        0.38941849994958
C            3.64684017407531       -2.00289717218952        0.35992419120178
N            1.33698478029156       -3.54440485554959        0.08546778448341
C            0.18799715817216       -4.19727756481381        0.04460552519390
H            1.96843267440019       -6.07542746731087        0.10074939974884
H            0.91211700535261       -7.23337366629291       -0.74480765636577
H            0.89662929640712       -7.14985911369778        1.03179476075926
H           -1.81982044548444       -6.68313560474949       -0.00991171962305
H           -3.66011519295992       -3.08666912155530       -0.29266822539999
H           -5.71150971989602       -1.71649515091300       -0.35712948238502
H           -5.77695157499093       -0.67989766433192        1.97094376421787
H           -7.51394199149963       -0.87172293763248        3.68063575686000
H           -9.55934813921460        0.52149414306282        3.54311531145109
H           -9.79988688722100        2.13840599718914        1.67012520277141
H           -8.31385843109155        4.19083279648937       -2.12298884977528
H           -6.68866515327608        4.47857416844147       -3.98228453798994
H           -4.67866990555837        3.03105671382687       -4.06465794315095
H           -4.28409511292045        1.37208204247872       -2.31127808787518
H           -3.36100252898196        1.82737424512608        0.06933736975566
H           -1.30692980243101        0.44473543028529        0.12771269194550
H            1.40930449163185        0.41013463520852       -0.39471930935533
H            3.47157955543954        1.77978627687994       -0.35340533887538
H            4.22874632289312        1.58916412924831        2.12169484282329
H            4.54857348183266        3.39996185396012        3.73436473093590
H            6.60450487951311        4.78246727040122        3.66579799685659
H            8.34850877061035        4.27698846823136        1.96767381997900
H           10.02585423631604        1.84882494884194       -1.51358361456585
H            9.85692843147827        0.08014256563999       -3.25240006748205
H            7.78304291133018       -1.26850251049979       -3.40625530479225
H            5.94627864338769       -0.88473166865030       -1.83697721724089
H            5.74951076656451       -1.70281047573944        0.61562998861418
H            3.68230963399605       -3.06176248257520        0.56164110204162

          :  Hamiltonian                  GFN2-xTB          :
         :: gradient norm              0.000161002867 Eh/a0 ::
         :: HOMO-LUMO gap              1.332190332549 eV    ::
         :: SCC energy              -132.234423986240 Eh    ::
         :: -> dispersion             -0.107044793673 Eh    ::
         :: -> Gsolv                  -0.056555611839 Eh    ::
         :: repulsion energy           2.187075329811 Eh    ::

    * Orbital Energies and Occupations

         #    Occupation            Energy/Eh            Energy/eV
      -------------------------------------------------------------
         1        2.0000           -0.7303442             -19.8737
       ...           ...                  ...                  ...
       107        2.0000           -0.4193498             -11.4111
       108        2.0000           -0.4165800             -11.3357
       109        2.0000           -0.4162871             -11.3277
       110        2.0000           -0.4141007             -11.2683
       111        2.0000           -0.4132988             -11.2464
       112        2.0000           -0.4130334             -11.2392
       113        2.0000           -0.4045764             -11.0091
       114        2.0000           -0.4000151             -10.8850
       115        2.0000           -0.3911040             -10.6425
       116        2.0000           -0.3905886             -10.6285
       117        2.0000           -0.3743656             -10.1870
       118        2.0000           -0.3447168              -9.3802
       119        2.0000           -0.3442089              -9.3664 (HOMO)
       120                         -0.2952516              -8.0342 (LUMO)
       121                         -0.2716898              -7.3931
       122                         -0.2395893              -6.5196
       123                         -0.2394115              -6.5147
       124                         -0.2378584              -6.4725
       125                         -0.2375591              -6.4643
       126                         -0.2304738              -6.2715
       127                         -0.2302166              -6.2645
       128                         -0.2297421              -6.2516
       129                         -0.2203665              -5.9965
       130                         -0.2159499              -5.8763
       ...                                ...                  ...
       228                          0.6823853              18.5686
      -------------------------------------------------------------
                  HL-Gap            0.0489573 Eh            1.3322 eV

     #   Z          covCN         q      C6AA      α(0)
     1   6 C        3.688    -0.055    21.767     6.678
     2   7 N        2.816    -0.053    22.262     7.008
     3   6 C        3.184     0.104    25.292     8.207
     4   7 N        1.884    -0.304    28.728     7.946
     5   6 C        3.204     0.043    26.453     8.378
     6   6 C        2.942     0.102    25.738     8.321
     7   6 C        2.978    -0.004    28.107     8.696
     8   6 C        2.922    -0.035    28.871     8.811
     9   6 C        2.920    -0.040    28.995     8.830
    10   6 C        2.920     0.069    26.458     8.435
    11   7 N        2.751    -0.069    22.586     7.058
    12   6 C        2.921     0.042    27.066     8.531
    13   6 C        2.924    -0.061    29.509     8.908
    14   6 C        2.919    -0.039    28.969     8.826
    15   6 C        2.919    -0.041    29.013     8.833
    16   6 C        2.919    -0.058    29.436     8.897
    17   6 C        2.883     0.122    25.309     8.247
    18   8 O        1.708    -0.270    18.481     5.804
    19   6 C        2.882     0.123    25.308     8.247
    20   6 C        2.919    -0.058    29.436     8.897
    21   6 C        2.919    -0.041    29.011     8.833
    22   6 C        2.919    -0.039    28.968     8.826
    23   6 C        2.924    -0.060    29.502     8.907
    24   6 C        2.921     0.042    27.068     8.532
    25   6 C        2.919    -0.040    29.005     8.832
    26   6 C        2.923    -0.026    28.655     8.778
    27   7 N        1.853    -0.305    28.745     7.946
    28   6 C        2.971     0.184    24.059     8.046
    29   6 C        2.984    -0.005    28.141     8.702
    30   6 C        2.923    -0.028    28.706     8.786
    31   6 C        2.920    -0.040    28.993     8.830
    32   6 C        2.920     0.068    26.474     8.438
    33   7 N        2.751    -0.071    22.612     7.062
    34   6 C        2.921     0.042    27.063     8.531
    35   6 C        2.924    -0.061    29.515     8.909
    36   6 C        2.919    -0.039    28.971     8.826
    37   6 C        2.919    -0.041    29.021     8.834
    38   6 C        2.919    -0.058    29.441     8.898
    39   6 C        2.882     0.122    25.315     8.248
    40   8 O        1.708    -0.271    18.501     5.807
    41   6 C        2.882     0.122    25.313     8.248
    42   6 C        2.919    -0.058    29.442     8.898
    43   6 C        2.919    -0.041    29.024     8.834
    44   6 C        2.919    -0.039    28.975     8.827
    45   6 C        2.924    -0.061    29.518     8.910
    46   6 C        2.921     0.042    27.062     8.531
    47   6 C        2.920    -0.040    29.001     8.831
    48   6 C        2.923    -0.029    28.717     8.788
    49   7 N        1.836    -0.322    29.185     8.006
    50   6 C        3.160     0.151    24.440     8.082
    51   1 H        0.925     0.087     1.913     2.163
    52   1 H        0.924     0.075     2.035     2.231
    53   1 H        0.924     0.074     2.039     2.233
    54   1 H        0.926     0.052     2.295     2.369
    55   1 H        0.926     0.067     2.119     2.276
    56   1 H        0.926     0.051     2.311     2.377
    57   1 H        0.926     0.039     2.457     2.451
    58   1 H        0.926     0.042     2.425     2.435
    59   1 H        0.926     0.043     2.407     2.426
    60   1 H        0.926     0.049     2.332     2.388
    61   1 H        0.926     0.049     2.333     2.388
    62   1 H        0.926     0.043     2.406     2.426
    63   1 H        0.926     0.042     2.420     2.433
    64   1 H        0.926     0.039     2.456     2.451
    65   1 H        0.926     0.051     2.304     2.374
    66   1 H        0.926     0.060     2.200     2.320
    67   1 H        0.926     0.058     2.224     2.332
    68   1 H        0.926     0.052     2.298     2.371
    69   1 H        0.926     0.039     2.460     2.452
    70   1 H        0.926     0.042     2.427     2.436
    71   1 H        0.926     0.043     2.414     2.430
    72   1 H        0.926     0.048     2.340     2.392
    73   1 H        0.926     0.048     2.341     2.392
    74   1 H        0.926     0.043     2.414     2.430
    75   1 H        0.926     0.041     2.429     2.437
    76   1 H        0.926     0.039     2.462     2.454
    77   1 H        0.926     0.051     2.302     2.373
    78   1 H        0.926     0.057     2.240     2.340

molecular dipole:
                 x           y           z       tot (Debye)
 q only:        0.356      -1.430       0.026
   full:        0.385      -1.968       0.041       5.098

 projected vibrational frequencies (cm⁻¹)
eigval :       -0.00    -0.00    -0.00     0.00     0.00     0.00
eigval :      -50.02     6.99    11.44    12.83    17.45    22.25
eigval :       26.26    36.86    48.62    57.86    60.64    61.39
eigval :       63.12    70.58    94.25   112.57   117.00   123.82
eigval :      127.13   144.39   158.28   185.20   189.44   195.19
eigval :      215.54   244.70   247.44   253.10   255.70   258.78
eigval :      267.05   273.68   286.63   311.36   331.95   346.39
eigval :      369.11   370.72   374.93   375.70   384.55   389.70
eigval :      401.69   408.88   419.88   423.60   429.19   430.30
eigval :      434.72   447.12   447.99   476.03   490.82   508.68
eigval :      510.10   517.96   521.18   522.79   543.02   548.75
eigval :      566.33   584.60   586.41   589.02   601.98   602.49
eigval :      609.45   619.97   628.52   650.10   652.89   658.71
eigval :      659.47   660.43   660.72   661.68   683.59   695.65
eigval :      704.75   708.77   731.18   748.96   777.69   780.55
eigval :      780.86   780.90   791.72   798.12   824.77   826.91
eigval :      828.81   830.47   852.76   853.19   864.09   864.81
eigval :      866.89   868.42   875.10   878.64   890.60   896.95
eigval :      898.89   899.22   899.85   906.92   910.61   914.77
eigval :      915.89   915.94   916.66   917.44   924.51   929.08
eigval :      931.15   933.59   936.82   955.21  1012.20  1016.58
eigval :     1038.74  1089.34  1090.20  1090.51  1091.14  1097.97
eigval :     1100.06  1105.81  1105.91  1116.25  1116.97  1118.14
eigval :     1126.46  1134.05  1160.35  1168.26  1168.92  1173.46
eigval :     1173.66  1176.45  1180.85  1184.09  1186.96  1197.39
eigval :     1198.49  1214.85  1218.12  1235.35  1241.62  1242.01
eigval :     1252.41  1260.08  1260.44  1261.04  1281.19  1293.01
eigval :     1303.74  1304.14  1304.61  1309.75  1317.38  1318.68
eigval :     1330.94  1333.78  1334.42  1348.89  1352.57  1365.50
eigval :     1390.94  1396.67  1405.48  1418.63  1422.36  1424.48
eigval :     1439.71  1441.23  1441.55  1448.20  1456.85  1473.97
eigval :     1479.39  1479.61  1480.03  1485.85  1502.06  1502.91
eigval :     1543.94  1553.29  1563.26  1566.08  1566.45  1572.74
eigval :     1578.73  1578.87  1583.40  1587.21  1588.77  1593.52
eigval :     1601.54  1601.91  2988.78  3000.68  3040.75  3084.05
eigval :     3086.63  3086.89  3087.07  3087.50  3087.72  3087.98
eigval :     3088.50  3095.68  3095.96  3096.26  3096.33  3104.33
eigval :     3104.64  3104.79  3105.08  3107.52  3108.43  3108.77
eigval :     3109.20  3109.45  3109.67  3109.98  3113.89  3156.32

   temp. (K)  partition function   enthalpy   heat capacity  entropy
                                   cal/mol     cal/K/mol   cal/K/mol   J/K/mol
 298.15  VIB  0.167E+19            22541.196    142.416    140.812
         ROT  0.141E+09              888.752      2.981     40.274
         INT  0.236E+27            23429.949    145.397    181.086
         TR   0.160E+29             1481.254      4.968     45.271
         TOT                       24911.2025   150.3652   226.3569   947.0774

       T/K    H(0)-H(T)+PV         H(T)/Eh          T*S/Eh         G(T)/Eh
   ------------------------------------------------------------------------
    298.15    0.396985E-01    0.624103E+00    0.107549E+00    0.516554E+00
   ------------------------------------------------------------------------

         :::::::::::::::::::::::::::::::::::::::::::::::::::::
         ::                  THERMODYNAMIC                  ::
         :::::::::::::::::::::::::::::::::::::::::::::::::::::
         :: total free energy        -129.530794907853 Eh   ::
         ::.................................................::
         :: total energy             -130.047348656179 Eh   ::
         :: zero point energy           0.584404702392 Eh   ::
         :: G(RRHO) w/o ZPVE           -0.067850954065 Eh   ::
         :: G(RRHO) contrib.            0.516553748327 Eh   ::
         :::::::::::::::::::::::::::::::::::::::::::::::::::::

           -------------------------------------------------
          | TOTAL ENERGY             -130.047348656179 Eh   |
          | TOTAL ENTHALPY           -129.423245425710 Eh   |
          | TOTAL FREE ENERGY        -129.530794907853 Eh   |
          | GRADIENT NORM               0.000160990327 Eh/α |
          | HOMO-LUMO GAP               1.332195226909 eV   |
           -------------------------------------------------

 * finished run on 2025/08/25 at 03:11:41.348
