   * xtb version 6.7.1 (edcfbbe) compiled by 'albert@albert-system' on 2024-07-22

   ID    Z sym.   atoms
    1    6 C      1, 3, 5-10, 12-17, 19-26, 28-32, 34-39, 41-48, 50
    2    7 N      2, 4, 11, 27, 33, 49
    3    8 O      18, 40
    4    1 H      51-78

          program call               : xtb data2507/toluene/2PXZP/2PXZP_toluene_S0_finalOpt.xtbopt.xyz --gfn 2 --uhf 2 --gbsa toluene --ohess vtight --parallel 40 --molden --ceasefiles --namespace data2507/toluene/2PXZP/2PXZP_toluene_T1_preOpt
      * Solvation model:               GBSA
        Solvent                        toluene
        Solvent mass                       9.2140E+01 g/mol
          :  Hamiltonian                  GFN2-xTB          :
 * total energy  :  -129.9768999 Eh     change       -0.1204184E-06 Eh
 * total energy  :  -129.9797216 Eh     change       -0.2821619E-02 Eh
 * total energy  :  -129.9804727 Eh     change       -0.7511609E-03 Eh
 * total energy  :  -129.9805077 Eh     change       -0.3498871E-04 Eh
 * total energy  :  -129.9805295 Eh     change       -0.2175172E-04 Eh
 * total energy  :  -129.9805428 Eh     change       -0.1334613E-04 Eh
 * total energy  :  -129.9805565 Eh     change       -0.1365436E-04 Eh
 * total energy  :  -129.9805815 Eh     change       -0.2504561E-04 Eh
 * total energy  :  -129.9805911 Eh     change       -0.9618179E-05 Eh
 * total energy  :  -129.9806048 Eh     change       -0.1367077E-04 Eh
 * total energy  :  -129.9809563 Eh     change       -0.1062650E-05 Eh
 * total energy  :  -129.9809573 Eh     change       -0.1020106E-05 Eh
 * total energy  :  -129.9809583 Eh     change       -0.9903559E-06 Eh
 * total energy  :  -129.9809592 Eh     change       -0.9795312E-06 Eh
 * total energy  :  -129.9809602 Eh     change       -0.1002375E-05 Eh
 * total energy  :  -129.9809613 Eh     change       -0.1056968E-05 Eh
 * total energy  :  -129.9809624 Eh     change       -0.1136365E-05 Eh
 * total energy  :  -129.9809637 Eh     change       -0.1227810E-05 Eh
 * total energy  :  -129.9809637 Eh     change       -0.5924505E-08 Eh
   *** GEOMETRY OPTIMIZATION CONVERGED AFTER 94 ITERATIONS ***

 final structure:
================
78
 xtb: 6.7.1 (edcfbbe)
C            0.98370468256877       -6.56346646377478        0.20012521931517
N           -0.02738583695308       -5.54663469524823        0.10525203075798
C           -1.38388166842203       -5.72561161776031        0.01035571542038
N           -2.04152432553966       -4.59382278658298       -0.06697628918688
C           -1.10244227648563       -3.61784082732580       -0.03045693396826
C           -1.14045169973496       -2.18679769462363       -0.05365465293405
C           -2.33566113393451       -1.40755763690096       -0.12142269368200
C           -3.60404228121007       -2.01132169906045       -0.23920435383870
C           -4.74569745409585       -1.24895471705958       -0.28134534309710
C           -4.66828844983275        0.14401758056644       -0.20351209371889
N           -5.84935899500969        0.92963897849704       -0.22671519134871
C           -6.74597795561501        0.88390352211139        0.83126859608336
C           -6.53250362274984        0.08388464349850        1.95269092932259
C           -7.45100310772366        0.06027926290122        2.98674885919056
C           -8.59494308829466        0.83906170479309        2.92976479457019
C           -8.81351884885930        1.65885890305443        1.83461745122929
C           -7.89882629879274        1.68817053259744        0.79517939995849
O           -8.16225345353510        2.53695401604835       -0.24595672270029
C           -7.26701535653329        2.57292546130022       -1.28078684160168
C           -7.54654919278097        3.43084461159723       -2.33127401411839
C           -6.69174571466234        3.49813887594998       -3.41952939313101
C           -5.56470042133709        2.69391234381385       -3.45839427547663
C           -5.27710383181974        1.83618994815713       -2.41197937446708
C           -6.11195068416840        1.77130865825808       -1.29752386707309
C           -3.41781746011386        0.76025235060729       -0.09452165188889
C           -2.27645942616014        0.00137849292606       -0.05917050380329
N            0.04387611256434       -1.56186731788114       -0.00275167037527
C            1.19567764389962       -2.19512302866154        0.08137886885062
C            2.40739292595034       -1.39968881528450        0.11645859232812
C            2.36013740284551       -0.01204776239853       -0.06901329618865
C            3.51088113800847        0.74137812266159       -0.04765392194482
C            4.74494026241132        0.12630614471918        0.16806827531548
N            5.93146099622895        0.90309413796287        0.18978478407145
C            6.15068413209968        1.82338236798608        1.20750127527198
C            5.25746481615988        1.98991854366146        2.26331801987379
C            5.50528677740219        2.92124317961593        3.25668135425125
C            6.65004186434405        3.69864559678359        3.22124643083950
C            7.56274992859006        3.52951400610466        2.19239424862347
C            7.32283821706013        2.59816256113751        1.19644292076386
O            8.27721810306504        2.46344931466814        0.22290120513421
C            8.05272161870922        1.54212370994274       -0.76577374272586
C            9.02548306636383        1.41409822575245       -1.74263032269535
C            8.85099472110612        0.51833828696273       -2.78534964199644
C            7.69279439920601       -0.23662508289028       -2.85361059852565
C            6.71660932781986       -0.11525768663815       -1.87999018924556
C            6.88563646057565        0.76070619133994       -0.81018133715575
C            4.80615121110528       -1.25326059149278        0.35941152509129
C            3.65292377846302       -2.00466940138465        0.32894895469554
N            1.32922089016831       -3.54702286469161        0.14216422202371
C            0.17404447052376       -4.20106227342907        0.07214674110816
H            1.94339000136833       -6.06873238039208        0.33777203618989
H            1.01239738883023       -7.16306807177416       -0.71281514650400
H            0.78390179186390       -7.21853044288944        1.05032493888792
H           -1.83995835481349       -6.69481977935357        0.00737528049977
H           -3.66153861106740       -3.08723029136582       -0.29678355385051
H           -5.71336179881395       -1.72061058052672       -0.37909836694608
H           -5.63831769298424       -0.51615233928302        2.00791430011126
H           -7.26493048000080       -0.57023865002103        3.84228355378867
H           -9.31190865268808        0.81854557008623        3.73496129141229
H           -9.68612761570435        2.28879492678811        1.76617977909506
H           -8.43993306475643        4.03235249831932       -2.27698038398946
H           -6.91345255134351        4.16981566257257       -4.23347089052173
H           -4.90195177977277        2.72858232064074       -4.30905686572521
H           -4.40362135118933        1.20511101837574       -2.45095943257154
H           -3.36302314391864        1.83762608637685       -0.02731127118645
H           -1.30675361067660        0.46457247532035        0.03577387157431
H            1.40042022329652        0.44955413035102       -0.24035052728552
H            3.47050037171909        1.80980303992757       -0.20304026374303
H            4.36826983964435        1.38119523812980        2.30271347103565
H            4.79600853732953        3.03416426402817        4.06181359575354
H            6.84161674015537        4.42772865577482        3.99235944130480
H            8.47171543405990        4.10777151099456        2.14366524869483
H            9.90864057974514        2.02854146552663       -1.66856638358272
H            9.61414213572657        0.42117723912098       -3.54104189203794
H            7.54001788870401       -0.92568221172664       -3.66971450956015
H            5.81196891205468       -0.69834246884411       -1.94609506090401
H            5.76301836847543       -1.72376101371954        0.53421775835428
H            3.68553709009776       -3.07302611675985        0.47538253562089

          :  Hamiltonian                  GFN2-xTB          :
         :: gradient norm              0.000068713461 Eh/a0 ::
         :: HOMO-LUMO gap              0.489262851719 eV    ::
         :: SCC energy              -132.158008484410 Eh    ::
         :: -> dispersion             -0.107116292239 Eh    ::
         :: -> Gsolv                  -0.061989124468 Eh    ::
         :: repulsion energy           2.177044808166 Eh    ::

    * Orbital Energies and Occupations

         #    Occupation            Energy/Eh            Energy/eV
      -------------------------------------------------------------
         1        2.0000           -0.7456810             -20.2910
       ...           ...                  ...                  ...
       108        2.0000           -0.4125194             -11.2252
       109        2.0000           -0.4083533             -11.1119
       110        2.0000           -0.4059920             -11.0476
       111        2.0000           -0.4040830             -10.9957
       112        2.0000           -0.4018235             -10.9342
       113        2.0000           -0.4008624             -10.9080
       114        2.0000           -0.3965940             -10.7919
       115        2.0000           -0.3842899             -10.4571
       116        2.0000           -0.3723340             -10.1317
       117        1.8793           -0.3533857              -9.6161
       118        1.7616           -0.3526024              -9.5948
       119        1.3590           -0.3509481              -9.5498
       120        0.9999           -0.2751927              -7.4884 (HOMO)
       121        0.0001           -0.2572128              -6.9991 (LUMO)
       122                         -0.2508424              -6.8258
       123                         -0.2499520              -6.8015
       124                         -0.2396490              -6.5212
       125                         -0.2392869              -6.5113
       126                         -0.2284410              -6.2162
       127                         -0.2258862              -6.1467
       128                         -0.2248233              -6.1178
       129                         -0.2185293              -5.9465
       130                         -0.2099547              -5.7132
       131                         -0.2068312              -5.6282
       ...                                ...                  ...
       228                          0.6968011              18.9609
      -------------------------------------------------------------
                  HL-Gap            0.0179799 Eh            0.4893 eV

     #   Z          covCN         q      C6AA      α(0)
     1   6 C        3.688    -0.045    21.570     6.648
     2   7 N        2.824    -0.077    22.726     7.080
     3   6 C        3.161     0.078    25.951     8.327
     4   7 N        1.890    -0.324    29.266     8.020
     5   6 C        3.200     0.048    26.380     8.370
     6   6 C        2.932     0.066    26.528     8.447
     7   6 C        2.974    -0.011    28.280     8.723
     8   6 C        2.921    -0.050    29.245     8.868
     9   6 C        2.915    -0.043    29.059     8.840
    10   6 C        2.922     0.035    27.208     8.554
    11   7 N        2.751    -0.035    21.923     6.954
    12   6 C        2.925     0.046    26.971     8.517
    13   6 C        2.921    -0.053    29.310     8.878
    14   6 C        2.918    -0.033    28.812     8.802
    15   6 C        2.919    -0.033    28.829     8.805
    16   6 C        2.917    -0.054    29.342     8.883
    17   6 C        2.884     0.127    25.205     8.231
    18   8 O        1.709    -0.240    17.983     5.726
    19   6 C        2.884     0.127    25.205     8.231
    20   6 C        2.917    -0.054    29.342     8.883
    21   6 C        2.919    -0.033    28.829     8.805
    22   6 C        2.918    -0.033    28.812     8.802
    23   6 C        2.921    -0.053    29.307     8.878
    24   6 C        2.925     0.046    26.971     8.517
    25   6 C        2.915    -0.044    29.093     8.845
    26   6 C        2.922    -0.041    29.011     8.833
    27   7 N        1.853    -0.293    28.452     7.906
    28   6 C        2.935     0.171    24.316     8.087
    29   6 C        2.982    -0.007    28.189     8.709
    30   6 C        2.923    -0.035    28.870     8.811
    31   6 C        2.917    -0.041    29.031     8.835
    32   6 C        2.922     0.048    26.917     8.508
    33   7 N        2.751    -0.042    22.045     6.973
    34   6 C        2.924     0.045    26.996     8.521
    35   6 C        2.922    -0.054    29.347     8.884
    36   6 C        2.918    -0.033    28.831     8.805
    37   6 C        2.919    -0.034    28.853     8.808
    38   6 C        2.918    -0.054    29.348     8.884
    39   6 C        2.884     0.127    25.217     8.233
    40   8 O        1.709    -0.245    18.058     5.737
    41   6 C        2.884     0.127    25.216     8.233
    42   6 C        2.918    -0.054    29.349     8.884
    43   6 C        2.919    -0.034    28.855     8.809
    44   6 C        2.918    -0.033    28.833     8.805
    45   6 C        2.922    -0.054    29.351     8.884
    46   6 C        2.924     0.045    26.996     8.521
    47   6 C        2.917    -0.041    29.027     8.835
    48   6 C        2.923    -0.035    28.883     8.813
    49   7 N        1.835    -0.362    30.286     8.155
    50   6 C        3.117     0.160    24.401     8.091
    51   1 H        0.925     0.076     2.020     2.222
    52   1 H        0.924     0.061     2.190     2.314
    53   1 H        0.924     0.062     2.174     2.306
    54   1 H        0.926     0.027     2.626     2.534
    55   1 H        0.926     0.050     2.321     2.382
    56   1 H        0.926     0.033     2.543     2.494
    57   1 H        0.926     0.050     2.323     2.383
    58   1 H        0.926     0.051     2.306     2.374
    59   1 H        0.926     0.054     2.267     2.355
    60   1 H        0.926     0.060     2.197     2.318
    61   1 H        0.926     0.060     2.199     2.319
    62   1 H        0.926     0.054     2.267     2.354
    63   1 H        0.926     0.052     2.299     2.371
    64   1 H        0.926     0.050     2.318     2.381
    65   1 H        0.926     0.035     2.517     2.481
    66   1 H        0.926     0.038     2.469     2.457
    67   1 H        0.926     0.047     2.361     2.403
    68   1 H        0.926     0.044     2.400     2.423
    69   1 H        0.926     0.048     2.345     2.395
    70   1 H        0.926     0.050     2.315     2.379
    71   1 H        0.926     0.053     2.285     2.364
    72   1 H        0.926     0.059     2.214     2.327
    73   1 H        0.926     0.059     2.214     2.327
    74   1 H        0.926     0.053     2.286     2.365
    75   1 H        0.926     0.050     2.319     2.381
    76   1 H        0.926     0.048     2.349     2.397
    77   1 H        0.926     0.043     2.407     2.426
    78   1 H        0.926     0.046     2.365     2.405

molecular dipole:
                 x           y           z       tot (Debye)
 q only:        0.659       1.844       0.035
   full:        0.702       1.278       0.047       3.708

 projected vibrational frequencies (cm⁻¹)
eigval :       -0.00    -0.00    -0.00     0.00     0.00     0.00
eigval :        7.62    11.33    14.32    20.50    23.72    30.06
eigval :       40.90    52.57    54.52    55.75    61.97    66.16
eigval :       66.69    75.01    93.12   111.88   113.83   120.61
eigval :      126.09   141.29   151.13   186.15   189.15   193.48
eigval :      217.36   242.13   244.77   251.86   253.13   255.66
eigval :      267.87   275.76   287.52   315.40   337.56   348.36
eigval :      364.20   367.90   376.29   380.28   382.23   392.29
eigval :      400.55   407.22   417.35   423.16   428.54   431.48
eigval :      432.28   452.04   457.97   466.38   479.20   501.08
eigval :      501.60   505.38   524.92   526.76   533.40   543.58
eigval :      557.52   563.16   573.32   584.48   586.45   586.59
eigval :      600.68   608.84   622.22   624.56   647.74   650.10
eigval :      664.12   664.67   665.72   667.53   669.14   681.45
eigval :      682.83   691.53   700.15   710.56   716.13   777.00
eigval :      779.16   779.35   780.25   789.66   797.32   803.45
eigval :      812.53   820.28   850.31   854.21   854.34   859.34
eigval :      862.56   868.31   868.64   869.68   869.82   893.12
eigval :      900.40   900.94   901.75   901.93   904.66   909.07
eigval :      913.36   915.33   915.56   917.42   918.40   918.57
eigval :      919.26   919.83   921.79   937.14  1001.66  1003.70
eigval :     1029.21  1077.64  1082.82  1084.76  1085.32  1086.22
eigval :     1103.97  1109.02  1109.70  1111.22  1114.11  1118.04
eigval :     1118.96  1124.83  1134.87  1153.43  1166.74  1167.73
eigval :     1171.17  1171.28  1175.29  1183.11  1187.02  1203.63
eigval :     1204.45  1207.97  1210.68  1218.05  1232.03  1236.81
eigval :     1237.44  1251.87  1253.48  1255.01  1260.40  1276.78
eigval :     1291.12  1301.22  1306.68  1308.05  1314.08  1315.35
eigval :     1316.86  1329.77  1330.96  1342.13  1345.62  1364.41
eigval :     1386.19  1393.44  1407.37  1413.89  1416.05  1419.95
eigval :     1423.56  1438.92  1439.38  1444.06  1447.88  1450.59
eigval :     1454.31  1456.16  1466.14  1470.13  1475.46  1483.20
eigval :     1490.25  1493.24  1519.63  1534.45  1555.40  1557.91
eigval :     1562.26  1564.22  1565.67  1570.57  1575.34  1583.83
eigval :     1585.34  1589.42  2969.43  2987.15  3035.75  3070.01
eigval :     3072.10  3076.31  3079.44  3093.16  3093.23  3093.42
eigval :     3093.81  3096.37  3099.92  3101.08  3101.31  3101.61
eigval :     3102.24  3102.49  3103.73  3109.66  3110.12  3110.31
eigval :     3110.66  3113.15  3113.44  3113.85  3114.19  3167.53

   temp. (K)  partition function   enthalpy   heat capacity  entropy
                                   cal/mol     cal/K/mol   cal/K/mol   J/K/mol
 298.15  VIB  0.393E+19            23212.971    145.793    145.421
         ROT  0.142E+09              888.752      2.981     40.284
         INT  0.558E+27            24101.723    148.774    185.705
         TR   0.160E+29             1481.254      4.968     45.271
         TOT                       25582.9770   153.7420   230.9756   966.4017

       T/K    H(0)-H(T)+PV         H(T)/Eh          T*S/Eh         G(T)/Eh
   ------------------------------------------------------------------------
    298.15    0.407691E-01    0.621888E+00    0.109744E+00    0.512145E+00
   ------------------------------------------------------------------------

         :::::::::::::::::::::::::::::::::::::::::::::::::::::
         ::                  THERMODYNAMIC                  ::
         :::::::::::::::::::::::::::::::::::::::::::::::::::::
         :: total free energy        -129.468819156511 Eh   ::
         ::.................................................::
         :: total energy             -129.980963678285 Eh   ::
         :: zero point energy           0.581119393187 Eh   ::
         :: G(RRHO) w/o ZPVE           -0.068974871413 Eh   ::
         :: G(RRHO) contrib.            0.512144521774 Eh   ::
         :::::::::::::::::::::::::::::::::::::::::::::::::::::

           -------------------------------------------------
          | TOTAL ENERGY             -129.980963678285 Eh   |
          | TOTAL ENTHALPY           -129.359075216193 Eh   |
          | TOTAL FREE ENERGY        -129.468819156511 Eh   |
          | GRADIENT NORM               0.000068326846 Eh/α |
          | HOMO-LUMO GAP               0.489256977304 eV   |
           -------------------------------------------------

 * finished run on 2025/08/25 at 03:11:54.052
