   * xtb version 6.7.1 (edcfbbe) compiled by 'albert@albert-system' on 2024-07-22

   ID    Z sym.   atoms
    1    6 C      1, 3, 5-10, 12-17, 19-26, 28-32, 34-39, 41-48, 50
    2    7 N      2, 4, 11, 27, 33, 49
    3    8 O      18, 40
    4    1 H      51-78

          program call               : xtb data2507/toluene/2PXZP/2PXZP.xyz --gfn 2 --gbsa toluene --ohess vtight --parallel 40 --molden --ceasefiles --namespace data2507/toluene/2PXZP/2PXZP_toluene_S0_preOpt
      * Solvation model:               GBSA
        Solvent                        toluene
        Solvent mass                       9.2140E+01 g/mol
          :  Hamiltonian                  GFN2-xTB          :
 * total energy  :  -130.0238322 Eh     change       -0.2526519E-08 Eh
 * total energy  :  -130.0366798 Eh     change       -0.1284767E-01 Eh
 * total energy  :  -130.0412946 Eh     change       -0.4614752E-02 Eh
 * total energy  :  -130.0429760 Eh     change       -0.1681378E-02 Eh
 * total energy  :  -130.0441533 Eh     change       -0.1177337E-02 Eh
 * total energy  :  -130.0446285 Eh     change       -0.4751907E-03 Eh
 * total energy  :  -130.0447653 Eh     change       -0.1368361E-03 Eh
 * total energy  :  -130.0448069 Eh     change       -0.4154117E-04 Eh
 * total energy  :  -130.0448457 Eh     change       -0.3884413E-04 Eh
 * total energy  :  -130.0448865 Eh     change       -0.4077129E-04 Eh
 * total energy  :  -130.0473817 Eh     change       -0.5307264E-06 Eh
 * total energy  :  -130.0473823 Eh     change       -0.6041389E-06 Eh
 * total energy  :  -130.0473831 Eh     change       -0.8038381E-06 Eh
 * total energy  :  -130.0473842 Eh     change       -0.1100522E-05 Eh
 * total energy  :  -130.0473856 Eh     change       -0.1457166E-05 Eh
 * total energy  :  -130.0473873 Eh     change       -0.1679405E-05 Eh
 * total energy  :  -130.0473884 Eh     change       -0.1067318E-05 Eh
 * total energy  :  -130.0473890 Eh     change       -0.6074672E-06 Eh
 * total energy  :  -130.0473890 Eh     change       -0.8013870E-08 Eh
   *** GEOMETRY OPTIMIZATION CONVERGED AFTER 152 ITERATIONS ***

 final structure:
================
78
 xtb: 6.7.1 (edcfbbe)
C            0.96987539500771       -6.45926764118501       -0.87943399600718
N           -0.04519808085984       -5.45110447120544       -0.72977574368292
C           -1.39778810574843       -5.61719232664957       -0.74031669305598
N           -2.07444760384346       -4.51836843106163       -0.58627564206460
C           -1.13112974758983       -3.53004693155610       -0.46165449823589
C           -1.16305974228886       -2.13979721526862       -0.28064369867828
C           -2.38427732773110       -1.34778404088982       -0.18109675960097
C           -3.64019128366835       -1.95717134673290       -0.21779030811275
C           -4.78724029147674       -1.19587206831586       -0.12594226947103
C           -4.70445905107343        0.18923365741013        0.00327881342204
N           -5.87749879591374        0.96762849394226        0.09557771275690
C           -6.75171634313287        0.81467506944176        1.17532653431297
C           -6.49986878922773       -0.07042125638865        2.21694441541575
C           -7.38492920484385       -0.19125130871466        3.27781983508734
C           -8.53050153325363        0.57750933841544        3.32321918658153
C           -8.78227217768972        1.48735045518914        2.30640720633925
C           -7.90208848425257        1.61209913862403        1.24735634811179
O           -8.20577296753349        2.55860866346982        0.29636181410459
C           -7.34031464261247        2.68909916132158       -0.76482178335364
C           -7.66980495643940        3.62469598351830       -1.72814674524111
C           -6.86362881150672        3.79393772070544       -2.84462956037278
C           -5.73893248006934        3.00788925720875       -2.99549785874467
C           -5.40379940637169        2.06937418244506       -2.03106264422722
C           -6.18321935225363        1.90870226819908       -0.89152019587195
C           -3.45282679793303        0.80250293737859        0.03939353731540
C           -2.30777736874995        0.04119929496959       -0.05092307418361
N            0.00225390869325       -1.50031084393408       -0.19839185223860
C            1.16089084307211       -2.15248448919719       -0.28802559718035
C            2.38386004782267       -1.35474881650059       -0.17655589165993
C            2.31402704474711        0.01991203504493        0.04918997574725
C            3.46518388860682        0.77172666626198        0.15811501310867
C            4.71289145788124        0.16185218641485        0.04554968783554
N            5.89199201060677        0.93033161434018        0.16100027319376
C            6.20447020090905        1.57407488352383        1.36101328309245
C            5.42127496389481        1.43943177061404        2.50113458388395
C            5.76100201243389        2.08990580848681        3.67798919084587
C            6.89291492802391        2.87749026755662        3.73921581982292
C            7.70289782216461        2.99719700410068        2.61881744248226
C            7.36953848275077        2.34855155846185        1.44427397530203
O            8.23848348635567        2.49049290821780        0.38682591116891
C            7.92169135763164        1.83994642253899       -0.78357643151507
C            8.79995162300671        1.99210099266123       -1.84038748590594
C            8.53509195252720        1.39224444782627       -3.06338409900112
C            7.37780989466633        0.65701795114751       -3.22274762346297
C            6.49475345894489        0.50000656042492       -2.16481889806315
C            6.76044976542971        1.06791548527259       -0.92455328219824
C            4.78922364491868       -1.21086842711768       -0.18061941263666
C            3.63586027564811       -1.95954664129349       -0.29001090300489
N            1.30489500458432       -3.46729624410958       -0.46995018884444
C            0.15531056892353       -4.11484648345482       -0.55027322986248
H            0.88597146441597       -6.94049944646850       -1.85535041572832
H            0.87266225661799       -7.21434430248165       -0.09783788253721
H            1.93875176047715       -5.97054853017137       -0.79658009538836
H           -1.85211339960377       -6.58149549682745       -0.86581894237037
H           -3.70407930332228       -3.02830076363262       -0.32716587455599
H           -5.75753835230228       -1.66877606067100       -0.16221026000992
H           -5.60039426542261       -0.66537130068246        2.20311494762510
H           -7.16436215264198       -0.89045759808214        4.06979019769717
H           -9.22451901301956        0.48558470074058        4.14371958489478
H           -9.65780503488276        2.11743447360902        2.31942548103680
H           -8.56613230671130        4.20826922413213       -1.58751404602579
H           -7.12710772783927        4.52851668870473       -3.58913090803417
H           -5.11184490140878        3.11319782134183       -3.86748494310340
H           -4.53080277183106        1.45119903257761       -2.16929161914182
H           -3.38994838670947        1.87558916717184        0.14450462279657
H           -1.33421498258161        0.50330320682537       -0.01782350389164
H            1.34427356482240        0.48346849149073        0.13092982024757
H            3.40836644171143        1.83675177084433        0.32835634737996
H            4.54144822980951        0.81623302146641        2.47022534705377
H            5.13080344410999        1.97066270002543        4.54596175407742
H            7.15949756609637        3.39027938754738        4.64988539710042
H            8.60468860632567        3.58894957322121        2.63743254846653
H            9.68484096643782        2.58974727958908       -1.68710336806310
H            9.22826200784713        1.51445502242991       -3.88068808062904
H            7.14757254794145        0.19999587019047       -4.17298047567851
H            5.58624878095063       -0.06392471832252       -2.30630338506711
H            5.75723244122043       -1.68283505909422       -0.26315373754014
H            3.68639082631627       -3.02341035703037       -0.45889470408174

          :  Hamiltonian                  GFN2-xTB          :
         :: gradient norm              0.000066398974 Eh/a0 ::
         :: HOMO-LUMO gap              1.316880096572 eV    ::
         :: SCC energy              -132.234564567223 Eh    ::
         :: -> dispersion             -0.107020424818 Eh    ::
         :: -> Gsolv                  -0.056599512831 Eh    ::
         :: repulsion energy           2.187175588288 Eh    ::

    * Orbital Energies and Occupations

         #    Occupation            Energy/Eh            Energy/eV
      -------------------------------------------------------------
         1        2.0000           -0.7301988             -19.8697
       ...           ...                  ...                  ...
       107        2.0000           -0.4195857             -11.4175
       108        2.0000           -0.4165039             -11.3336
       109        2.0000           -0.4162350             -11.3263
       110        2.0000           -0.4142848             -11.2733
       111        2.0000           -0.4132941             -11.2463
       112        2.0000           -0.4130491             -11.2396
       113        2.0000           -0.4048299             -11.0160
       114        2.0000           -0.3999673             -10.8837
       115        2.0000           -0.3910969             -10.6423
       116        2.0000           -0.3906445             -10.6300
       117        2.0000           -0.3745329             -10.1916
       118        2.0000           -0.3445769              -9.3764
       119        2.0000           -0.3440833              -9.3630 (HOMO)
       120                         -0.2956889              -8.0461 (LUMO)
       121                         -0.2724035              -7.4125
       122                         -0.2395497              -6.5185
       123                         -0.2394413              -6.5155
       124                         -0.2379417              -6.4747
       125                         -0.2377485              -6.4695
       126                         -0.2304252              -6.2702
       127                         -0.2301807              -6.2635
       128                         -0.2297682              -6.2523
       129                         -0.2201476              -5.9905
       130                         -0.2159243              -5.8756
       ...                                ...                  ...
       228                          0.6825720              18.5737
      -------------------------------------------------------------
                  HL-Gap            0.0483945 Eh            1.3169 eV

     #   Z          covCN         q      C6AA      α(0)
     1   6 C        3.688    -0.055    21.768     6.678
     2   7 N        2.816    -0.053    22.255     7.007
     3   6 C        3.184     0.104    25.293     8.208
     4   7 N        1.884    -0.304    28.721     7.945
     5   6 C        3.204     0.043    26.461     8.380
     6   6 C        2.941     0.102    25.738     8.321
     7   6 C        2.978    -0.003    28.102     8.696
     8   6 C        2.922    -0.035    28.874     8.812
     9   6 C        2.920    -0.040    28.989     8.829
    10   6 C        2.920     0.069    26.454     8.434
    11   7 N        2.751    -0.070    22.596     7.060
    12   6 C        2.921     0.042    27.064     8.531
    13   6 C        2.923    -0.061    29.510     8.909
    14   6 C        2.919    -0.039    28.969     8.826
    15   6 C        2.919    -0.041    29.016     8.833
    16   6 C        2.919    -0.058    29.437     8.897
    17   6 C        2.882     0.122    25.310     8.248
    18   8 O        1.708    -0.271    18.485     5.805
    19   6 C        2.882     0.122    25.309     8.248
    20   6 C        2.919    -0.058    29.437     8.897
    21   6 C        2.919    -0.041    29.014     8.833
    22   6 C        2.919    -0.039    28.968     8.826
    23   6 C        2.924    -0.061    29.505     8.908
    24   6 C        2.921     0.042    27.065     8.531
    25   6 C        2.919    -0.040    29.001     8.831
    26   6 C        2.924    -0.026    28.649     8.778
    27   7 N        1.853    -0.304    28.729     7.944
    28   6 C        2.970     0.184    24.065     8.047
    29   6 C        2.983    -0.005    28.142     8.702
    30   6 C        2.923    -0.028    28.706     8.786
    31   6 C        2.920    -0.040    28.987     8.829
    32   6 C        2.921     0.068    26.468     8.437
    33   7 N        2.751    -0.071    22.620     7.064
    34   6 C        2.922     0.042    27.060     8.531
    35   6 C        2.924    -0.061    29.515     8.909
    36   6 C        2.919    -0.039    28.972     8.827
    37   6 C        2.919    -0.041    29.024     8.835
    38   6 C        2.919    -0.058    29.442     8.898
    39   6 C        2.882     0.122    25.315     8.249
    40   8 O        1.708    -0.272    18.504     5.808
    41   6 C        2.882     0.122    25.315     8.249
    42   6 C        2.919    -0.058    29.443     8.898
    43   6 C        2.919    -0.041    29.026     8.835
    44   6 C        2.919    -0.039    28.974     8.827
    45   6 C        2.923    -0.061    29.520     8.910
    46   6 C        2.921     0.042    27.059     8.530
    47   6 C        2.919    -0.040    28.996     8.830
    48   6 C        2.923    -0.029    28.721     8.789
    49   7 N        1.836    -0.321    29.172     8.004
    50   6 C        3.160     0.151    24.442     8.082
    51   1 H        0.924     0.074     2.037     2.232
    52   1 H        0.924     0.075     2.035     2.231
    53   1 H        0.925     0.087     1.912     2.162
    54   1 H        0.926     0.052     2.292     2.367
    55   1 H        0.926     0.068     2.112     2.273
    56   1 H        0.926     0.051     2.311     2.377
    57   1 H        0.926     0.039     2.461     2.453
    58   1 H        0.926     0.042     2.426     2.436
    59   1 H        0.926     0.043     2.408     2.427
    60   1 H        0.926     0.049     2.334     2.389
    61   1 H        0.926     0.049     2.334     2.389
    62   1 H        0.926     0.043     2.407     2.426
    63   1 H        0.926     0.042     2.424     2.434
    64   1 H        0.926     0.039     2.464     2.455
    65   1 H        0.926     0.051     2.302     2.373
    66   1 H        0.926     0.060     2.202     2.321
    67   1 H        0.926     0.058     2.216     2.328
    68   1 H        0.926     0.052     2.300     2.371
    69   1 H        0.926     0.038     2.469     2.457
    70   1 H        0.926     0.041     2.430     2.438
    71   1 H        0.926     0.043     2.415     2.430
    72   1 H        0.926     0.048     2.341     2.393
    73   1 H        0.926     0.048     2.342     2.393
    74   1 H        0.926     0.042     2.416     2.431
    75   1 H        0.926     0.041     2.431     2.438
    76   1 H        0.926     0.039     2.467     2.456
    77   1 H        0.926     0.052     2.300     2.372
    78   1 H        0.926     0.058     2.228     2.334

molecular dipole:
                 x           y           z       tot (Debye)
 q only:        0.368      -1.455      -0.206
   full:        0.397      -1.986      -0.279       5.196

 projected vibrational frequencies (cm⁻¹)
eigval :       -0.00    -0.00    -0.00     0.00     0.00     0.00
eigval :       -8.71     7.44    10.55    19.95    21.67    23.70
eigval :       36.37    47.92    55.50    59.90    61.45    63.85
eigval :       69.28    72.68    94.61   109.28   115.75   121.95
eigval :      129.23   142.50   160.92   183.36   189.07   196.50
eigval :      215.50   244.64   247.12   254.50   255.61   258.35
eigval :      267.75   273.64   288.64   308.65   333.80   344.18
eigval :      369.63   371.79   374.99   377.30   384.02   390.68
eigval :      402.11   409.00   419.53   424.68   428.60   429.52
eigval :      434.01   446.65   447.79   474.23   491.10   506.94
eigval :      510.06   518.28   519.95   522.60   542.89   549.32
eigval :      566.53   584.36   586.45   589.21   601.93   602.39
eigval :      610.12   621.64   628.76   650.56   655.00   657.55
eigval :      658.38   659.23   661.02   662.07   683.64   696.37
eigval :      705.00   711.35   731.26   750.47   777.03   777.23
eigval :      778.88   779.14   791.73   798.04   825.05   826.96
eigval :      827.32   828.48   852.65   852.95   861.71   863.48
eigval :      864.96   867.64   873.38   877.41   890.70   895.29
eigval :      896.43   897.85   899.12   907.05   912.38   913.08
eigval :      913.24   913.64   915.81   916.08   923.88   927.39
eigval :      931.29   933.72   936.77   955.27  1012.59  1016.24
eigval :     1039.13  1088.40  1088.79  1089.93  1090.08  1097.89
eigval :     1103.04  1105.89  1105.93  1116.14  1117.69  1118.31
eigval :     1125.20  1133.72  1160.23  1168.16  1169.46  1172.64
eigval :     1174.70  1177.69  1179.91  1184.27  1186.15  1197.18
eigval :     1198.08  1214.34  1218.45  1235.08  1241.08  1241.24
eigval :     1252.96  1259.37  1259.48  1259.89  1281.14  1293.31
eigval :     1303.84  1304.17  1304.73  1310.11  1317.61  1319.03
eigval :     1331.14  1333.78  1334.75  1349.17  1352.89  1365.44
eigval :     1392.24  1396.75  1405.18  1418.99  1422.23  1424.71
eigval :     1440.15  1440.88  1441.78  1449.60  1458.89  1473.64
eigval :     1479.37  1479.70  1480.08  1485.46  1502.01  1502.94
eigval :     1543.91  1553.62  1563.69  1565.88  1566.37  1573.56
eigval :     1578.56  1578.75  1583.66  1587.25  1588.83  1594.24
eigval :     1601.48  1601.91  2989.91  3000.61  3041.51  3086.37
eigval :     3086.50  3086.72  3087.25  3087.29  3087.37  3087.90
eigval :     3088.15  3095.60  3095.77  3095.87  3096.01  3103.31
eigval :     3104.27  3104.29  3104.68  3108.32  3108.74  3109.16
eigval :     3109.50  3109.60  3109.91  3112.69  3114.16  3156.32

   temp. (K)  partition function   enthalpy   heat capacity  entropy
                                   cal/mol     cal/K/mol   cal/K/mol   J/K/mol
 298.15  VIB  0.924E+19            23057.528    144.153    145.213
         ROT  0.142E+09              888.752      2.981     40.290
         INT  0.132E+28            23946.281    147.134    185.503
         TR   0.160E+29             1481.254      4.968     45.271
         TOT                       25427.5346   152.1021   230.7737   965.5572

       T/K    H(0)-H(T)+PV         H(T)/Eh          T*S/Eh         G(T)/Eh
   ------------------------------------------------------------------------
    298.15    0.405214E-01    0.625010E+00    0.109648E+00    0.515362E+00
   ------------------------------------------------------------------------

         :::::::::::::::::::::::::::::::::::::::::::::::::::::
         ::                  THERMODYNAMIC                  ::
         :::::::::::::::::::::::::::::::::::::::::::::::::::::
         :: total free energy        -129.532026575802 Eh   ::
         ::.................................................::
         :: total energy             -130.047388981172 Eh   ::
         :: zero point energy           0.584489083220 Eh   ::
         :: G(RRHO) w/o ZPVE           -0.069126677851 Eh   ::
         :: G(RRHO) contrib.            0.515362405369 Eh   ::
         :::::::::::::::::::::::::::::::::::::::::::::::::::::

           -------------------------------------------------
          | TOTAL ENERGY             -130.047388981172 Eh   |
          | TOTAL ENTHALPY           -129.422378542313 Eh   |
          | TOTAL FREE ENERGY        -129.532026575802 Eh   |
          | GRADIENT NORM               0.000066389752 Eh/α |
          | HOMO-LUMO GAP               1.316880567979 eV   |
           -------------------------------------------------

 * finished run on 2025/08/25 at 03:07:34.319
