   * xtb version 6.7.1 (edcfbbe) compiled by 'albert@albert-system' on 2024-07-22

   ID    Z sym.   atoms
    1    6 C      1, 3, 5-10, 12-17, 19-26, 28-32, 34-39, 41-48, 50
    2    7 N      2, 4, 11, 27, 33, 49
    3    8 O      18, 40
    4    1 H      51-78

          program call               : xtb data2507/toluene/2PXZP/2PXZP_toluene_T1_crest.xyz --gfn 2 --uhf 2 --gbsa toluene --ohess vtight --parallel 40 --molden --ceasefiles --namespace data2507/toluene/2PXZP/2PXZP_toluene_T1_finalOpt
      * Solvation model:               GBSA
        Solvent                        toluene
        Solvent mass                       9.2140E+01 g/mol
          :  Hamiltonian                  GFN2-xTB          :
 * total energy  :  -129.9808067 Eh     change       -0.2071565E-07 Eh
 * total energy  :  -129.9809626 Eh     change       -0.1559438E-03 Eh
 * total energy  :  -129.9810393 Eh     change       -0.7660868E-04 Eh
 * total energy  :  -129.9810458 Eh     change       -0.6533056E-05 Eh
 * total energy  :  -129.9810509 Eh     change       -0.5154586E-05 Eh
 * total energy  :  -129.9810533 Eh     change       -0.2409758E-05 Eh
 * total energy  :  -129.9810584 Eh     change       -0.5096295E-05 Eh
 * total energy  :  -129.9810621 Eh     change       -0.3626964E-05 Eh
 * total energy  :  -129.9810666 Eh     change       -0.4491091E-05 Eh
 * total energy  :  -129.9810702 Eh     change       -0.3628188E-05 Eh
 * total energy  :  -129.9811079 Eh     change       -0.4205350E-06 Eh
 * total energy  :  -129.9811082 Eh     change       -0.3105962E-06 Eh
 * total energy  :  -129.9811084 Eh     change       -0.2177063E-06 Eh
 * total energy  :  -129.9811086 Eh     change       -0.1912423E-06 Eh
 * total energy  :  -129.9811088 Eh     change       -0.2089181E-06 Eh
 * total energy  :  -129.9811090 Eh     change       -0.2371094E-06 Eh
 * total energy  :  -129.9811093 Eh     change       -0.2257919E-06 Eh
 * total energy  :  -129.9811094 Eh     change       -0.1299042E-06 Eh
 * total energy  :  -129.9811094 Eh     change       -0.3785894E-07 Eh
   *** GEOMETRY OPTIMIZATION CONVERGED AFTER 41 ITERATIONS ***

 final structure:
================
78
 xtb: 6.7.1 (edcfbbe)
C            0.95636106728124       -6.58089829681790        0.04649723386256
N           -0.05051221733838       -5.55585139007619        0.01762206829511
C           -1.41057831939238       -5.72551681623100       -0.03438851581677
N           -2.06379352268338       -4.58889648982374       -0.05690288363862
C           -1.11838664359305       -3.61890221258118       -0.02595157147457
C           -1.14865931235143       -2.18745202104028       -0.01972721800005
C           -2.34076773976926       -1.40109223313546       -0.05991264606978
C           -3.61595774633511       -1.99829459686897       -0.12349134612016
C           -4.75333724071409       -1.22870253822730       -0.15072564370191
C           -4.66361658579915        0.16493130836623       -0.11617914471275
N           -5.84043153299916        0.95816218075547       -0.13728189349173
C           -6.69254466966023        0.98149571530530        0.95677014624075
C           -6.43425214386393        0.24897977309031        2.11408546442686
C           -7.30706993241189        0.29570662730846        3.18623709800983
C           -8.44830159598875        1.07858712608499        3.13068844764146
C           -8.71222026506326        1.82937593175519        1.99661074659553
C           -7.84368210416371        1.78805846734339        0.91881522607240
O           -8.14981900950940        2.56917239805206       -0.16305954224604
C           -7.29771155264695        2.53661452601406       -1.23401831346421
C           -7.61935048676359        3.32635519571017       -2.32511907921525
C           -6.80784726825153        3.32320764008673       -3.44808753403549
C           -5.68184360539513        2.51721855267328       -3.48012732080378
C           -5.35267036438372        1.72660690624890       -2.39388887269345
C           -6.14435309337422        1.73248046767626       -1.24667927727453
C           -3.40707364812388        0.77482267381767       -0.05896917090663
C           -2.27033155910403        0.00836059613487       -0.03354534634082
N            0.03976601090229       -1.57006491102610        0.01696231991504
C            1.19038292747451       -2.21042747563149        0.05130263717048
C            2.40670925426883       -1.42192306228363        0.07915954423822
C            2.35605642123552       -0.02306668070448        0.02401083874661
C            3.51023462308109        0.72507235411568        0.04209773458349
C            4.75137423857357        0.09195375828685        0.11851044461082
N            5.94111889974064        0.86569147137487        0.13450238083441
C            6.24907357660437        1.65534876487347        1.23451078506888
C            5.45637363455471        1.67246964555740        2.37963867778914
C            5.79195624598949        2.47410087751231        3.45679705361333
C            6.92543029752272        3.26766296411630        3.41569634284603
C            7.73780692596314        3.24762906437095        2.29313137889699
C            7.40967661544384        2.44709978808927        1.21228675364369
O            8.26428171569945        2.45808266526968        0.14142991186502
C            7.95183073431616        1.66497351714714       -0.93122085860542
C            8.82161878176890        1.68563529707189       -2.00816608197959
C            8.55400934133893        0.92215549962819       -3.13328835182526
C            7.40774552164238        0.14761105652452       -3.18003380869948
C            6.53321943512377        0.12183808490172       -2.10755337154969
C            6.79545019462119        0.86705645524205       -0.96047993194232
C            4.81732049670613       -1.29892144933668        0.17705512484001
C            3.65967050061305       -2.04416435197992        0.15512566101513
N            1.31787001084312       -3.56422666693983        0.06501950580283
C            0.15747651302082       -4.21089031813265        0.01651231785287
H            0.78429899800048       -7.25742876420680        0.88590183791393
H            1.92422298627283       -6.09629629769601        0.16068052291297
H            0.94560318784017       -7.15573582169255       -0.88261050660370
H           -1.87217125623237       -6.69201035623871       -0.04798425076598
H           -3.68235005450888       -3.07482753695862       -0.15279205090067
H           -5.72705988400626       -1.69493381661779       -0.20455546046927
H           -5.54185225028419       -0.35423815724942        2.16555334755461
H           -7.08755210806632       -0.28262089141397        4.07023029141383
H           -9.12952913885235        1.11338770278684        3.96583721806193
H           -9.58512965886674        2.45877525174059        1.92700772536428
H           -8.51009236004618        3.93208050360255       -2.27404464090191
H           -7.06230380895021        3.94196002745839       -4.29377378446298
H           -5.05255475915581        2.49786691002782       -4.35631255905903
H           -4.48052146334023        1.09318633997401       -2.42651416048323
H           -3.34332844417399        1.85330491443110       -0.02683956082365
H           -1.29510835547412        0.46662892758364        0.01847965327885
H            1.39005971134266        0.45240373764938       -0.04037817438109
H            3.46706666209698        1.80348368455939       -0.00751005359371
H            4.57666186698896        1.05004501999620        2.42074586168344
H            5.16068608773573        2.47265938419221        4.33178128127912
H            7.18554879156408        3.89532107722979        4.25307171968288
H            8.63432298980838        3.84416169771233        2.23496168478982
H            9.69909243611703        2.30944439628185       -1.94559626716244
H            9.23680543698063        0.94154666454919       -3.96768111603105
H            7.18435719849449       -0.44048314833170       -4.05661538662579
H            5.63595951434046       -0.47453058251257       -2.15464159413679
H            5.78107533025398       -1.78310126142743        0.24228297949133
H            3.69489610077256       -3.12142004778743        0.20113691960461

          :  Hamiltonian                  GFN2-xTB          :
         :: gradient norm              0.000115802936 Eh/a0 ::
         :: HOMO-LUMO gap              0.489251564150 eV    ::
         :: SCC energy              -132.158540124307 Eh    ::
         :: -> dispersion             -0.107080312457 Eh    ::
         :: -> Gsolv                  -0.061921198906 Eh    ::
         :: repulsion energy           2.177430698322 Eh    ::

    * Orbital Energies and Occupations

         #    Occupation            Energy/Eh            Energy/eV
      -------------------------------------------------------------
         1        2.0000           -0.7456048             -20.2889
       ...           ...                  ...                  ...
       108        2.0000           -0.4127453             -11.2314
       109        2.0000           -0.4083927             -11.1129
       110        2.0000           -0.4059551             -11.0466
       111        2.0000           -0.4042675             -11.0007
       112        2.0000           -0.4017932             -10.9334
       113        2.0000           -0.4009439             -10.9102
       114        2.0000           -0.3967773             -10.7969
       115        2.0000           -0.3844254             -10.4607
       116        2.0000           -0.3722055             -10.1282
       117        1.8910           -0.3535603              -9.6209
       118        1.7540           -0.3526281              -9.5955
       119        1.3550           -0.3509971              -9.5511
       120        0.9999           -0.2753726              -7.4933 (HOMO)
       121        0.0001           -0.2573929              -7.0040 (LUMO)
       122                         -0.2508093              -6.8249
       123                         -0.2499389              -6.8012
       124                         -0.2396320              -6.5207
       125                         -0.2392829              -6.5112
       126                         -0.2285192              -6.2183
       127                         -0.2257485              -6.1429
       128                         -0.2248265              -6.1178
       129                         -0.2186623              -5.9501
       130                         -0.2096736              -5.7055
       131                         -0.2067276              -5.6253
       ...                                ...                  ...
       228                          0.6968355              18.9619
      -------------------------------------------------------------
                  HL-Gap            0.0179797 Eh            0.4893 eV

     #   Z          covCN         q      C6AA      α(0)
     1   6 C        3.688    -0.045    21.570     6.648
     2   7 N        2.824    -0.077    22.724     7.080
     3   6 C        3.161     0.078    25.952     8.327
     4   7 N        1.890    -0.324    29.258     8.019
     5   6 C        3.201     0.048    26.382     8.370
     6   6 C        2.932     0.066    26.526     8.447
     7   6 C        2.974    -0.011    28.280     8.723
     8   6 C        2.921    -0.050    29.246     8.868
     9   6 C        2.915    -0.042    29.055     8.839
    10   6 C        2.922     0.035    27.207     8.554
    11   7 N        2.751    -0.036    21.933     6.956
    12   6 C        2.925     0.046    26.967     8.516
    13   6 C        2.921    -0.053    29.308     8.878
    14   6 C        2.918    -0.033    28.811     8.802
    15   6 C        2.919    -0.033    28.831     8.805
    16   6 C        2.917    -0.054    29.342     8.883
    17   6 C        2.884     0.127    25.207     8.231
    18   8 O        1.709    -0.241    17.985     5.726
    19   6 C        2.884     0.127    25.206     8.231
    20   6 C        2.917    -0.054    29.341     8.883
    21   6 C        2.919    -0.033    28.830     8.805
    22   6 C        2.918    -0.033    28.812     8.802
    23   6 C        2.921    -0.053    29.307     8.878
    24   6 C        2.925     0.046    26.967     8.516
    25   6 C        2.915    -0.044    29.090     8.844
    26   6 C        2.923    -0.041    29.008     8.832
    27   7 N        1.853    -0.293    28.433     7.903
    28   6 C        2.935     0.171    24.321     8.088
    29   6 C        2.982    -0.007    28.190     8.709
    30   6 C        2.923    -0.035    28.869     8.811
    31   6 C        2.917    -0.041    29.025     8.835
    32   6 C        2.923     0.048    26.920     8.508
    33   7 N        2.752    -0.042    22.053     6.975
    34   6 C        2.924     0.045    26.991     8.520
    35   6 C        2.922    -0.054    29.344     8.883
    36   6 C        2.918    -0.033    28.829     8.805
    37   6 C        2.919    -0.034    28.854     8.809
    38   6 C        2.918    -0.054    29.348     8.884
    39   6 C        2.883     0.127    25.218     8.233
    40   8 O        1.709    -0.245    18.057     5.737
    41   6 C        2.884     0.127    25.217     8.233
    42   6 C        2.918    -0.054    29.348     8.884
    43   6 C        2.919    -0.034    28.856     8.809
    44   6 C        2.918    -0.033    28.831     8.805
    45   6 C        2.922    -0.054    29.350     8.884
    46   6 C        2.924     0.045    26.990     8.520
    47   6 C        2.917    -0.041    29.023     8.834
    48   6 C        2.924    -0.036    28.886     8.814
    49   7 N        1.835    -0.362    30.275     8.154
    50   6 C        3.116     0.160    24.405     8.092
    51   1 H        0.924     0.062     2.174     2.306
    52   1 H        0.925     0.076     2.020     2.223
    53   1 H        0.924     0.061     2.189     2.314
    54   1 H        0.926     0.027     2.625     2.534
    55   1 H        0.926     0.050     2.315     2.380
    56   1 H        0.926     0.033     2.546     2.495
    57   1 H        0.926     0.049     2.327     2.385
    58   1 H        0.926     0.051     2.305     2.374
    59   1 H        0.926     0.054     2.267     2.355
    60   1 H        0.926     0.060     2.197     2.318
    61   1 H        0.926     0.060     2.198     2.319
    62   1 H        0.926     0.054     2.267     2.354
    63   1 H        0.926     0.052     2.301     2.372
    64   1 H        0.926     0.050     2.325     2.384
    65   1 H        0.926     0.035     2.519     2.482
    66   1 H        0.926     0.038     2.470     2.458
    67   1 H        0.926     0.047     2.359     2.402
    68   1 H        0.926     0.043     2.407     2.426
    69   1 H        0.926     0.047     2.353     2.399
    70   1 H        0.926     0.050     2.316     2.380
    71   1 H        0.926     0.053     2.285     2.364
    72   1 H        0.926     0.059     2.214     2.327
    73   1 H        0.926     0.059     2.214     2.327
    74   1 H        0.926     0.053     2.286     2.364
    75   1 H        0.926     0.050     2.318     2.381
    76   1 H        0.926     0.047     2.353     2.399
    77   1 H        0.926     0.043     2.406     2.426
    78   1 H        0.926     0.047     2.362     2.403

molecular dipole:
                 x           y           z       tot (Debye)
 q only:        0.674       1.827       0.010
   full:        0.713       1.263       0.004       3.685

 projected vibrational frequencies (cm⁻¹)
eigval :       -0.00    -0.00    -0.00    -0.00     0.00     0.00
eigval :       -7.64     7.96    15.79    16.44    21.93    32.41
eigval :       39.28    40.71    48.24    52.65    56.65    61.64
eigval :       66.12    70.19    93.15   111.38   112.92   119.75
eigval :      122.80   140.04   149.28   184.81   187.03   191.51
eigval :      216.44   242.81   244.20   250.50   251.08   254.59
eigval :      269.50   276.25   286.18   314.40   336.08   347.54
eigval :      363.63   368.13   374.96   377.82   380.34   392.70
eigval :      400.60   406.69   417.00   423.27   428.24   430.00
eigval :      431.74   451.82   457.85   465.38   477.40   501.57
eigval :      502.48   505.49   525.64   527.43   533.00   543.26
eigval :      557.70   561.53   572.24   584.30   585.72   586.64
eigval :      600.73   609.25   620.61   623.00   647.80   650.25
eigval :      662.23   664.82   666.33   667.93   669.96   680.96
eigval :      681.64   689.25   700.34   710.43   716.14   776.65
eigval :      776.73   777.77   778.21   789.92   797.67   800.67
eigval :      810.64   820.52   848.20   854.38   854.53   858.61
eigval :      862.21   867.91   868.20   868.28   868.81   893.29
eigval :      898.87   899.91   901.31   901.67   902.84   907.45
eigval :      913.29   915.33   915.42   916.13   917.18   917.65
eigval :      918.58   919.04   919.66   937.42  1001.61  1004.65
eigval :     1028.95  1077.77  1084.16  1085.62  1085.82  1086.72
eigval :     1102.39  1109.07  1109.53  1110.43  1115.55  1118.05
eigval :     1118.85  1124.18  1135.66  1153.51  1166.78  1168.29
eigval :     1170.53  1170.65  1176.23  1182.93  1186.95  1204.10
eigval :     1204.95  1206.93  1209.70  1217.50  1231.99  1236.85
eigval :     1238.25  1252.43  1253.81  1256.44  1259.90  1276.44
eigval :     1291.79  1301.98  1307.83  1308.75  1314.48  1315.81
eigval :     1317.50  1329.17  1330.38  1342.28  1345.83  1364.74
eigval :     1385.43  1392.70  1407.12  1413.78  1415.86  1419.32
eigval :     1422.88  1438.62  1438.98  1444.59  1448.29  1450.91
eigval :     1454.29  1456.02  1465.34  1470.45  1475.80  1483.42
eigval :     1490.54  1493.42  1519.66  1534.07  1555.25  1557.86
eigval :     1562.94  1564.57  1565.56  1570.28  1575.28  1584.40
eigval :     1585.47  1589.50  2970.01  2987.05  3035.72  3069.64
eigval :     3072.18  3078.77  3080.45  3092.82  3092.90  3093.27
eigval :     3093.80  3096.67  3100.71  3101.11  3101.26  3101.61
eigval :     3102.12  3102.99  3103.62  3109.14  3109.62  3109.68
eigval :     3110.63  3113.03  3113.13  3113.48  3114.00  3167.66

   temp. (K)  partition function   enthalpy   heat capacity  entropy
                                   cal/mol     cal/K/mol   cal/K/mol   J/K/mol
 298.15  VIB  0.128E+20            23305.053    145.286    146.490
         ROT  0.142E+09              888.752      2.981     40.290
         INT  0.182E+28            24193.805    148.267    186.781
         TR   0.160E+29             1481.254      4.968     45.271
         TOT                       25675.0591   153.2354   232.0518   970.9046

       T/K    H(0)-H(T)+PV         H(T)/Eh          T*S/Eh         G(T)/Eh
   ------------------------------------------------------------------------
    298.15    0.409158E-01    0.621793E+00    0.110255E+00    0.511537E+00
   ------------------------------------------------------------------------

         :::::::::::::::::::::::::::::::::::::::::::::::::::::
         ::                  THERMODYNAMIC                  ::
         :::::::::::::::::::::::::::::::::::::::::::::::::::::
         :: total free energy        -129.469572025040 Eh   ::
         ::.................................................::
         :: total energy             -129.981109427362 Eh   ::
         :: zero point energy           0.580876874631 Eh   ::
         :: G(RRHO) w/o ZPVE           -0.069339472310 Eh   ::
         :: G(RRHO) contrib.            0.511537402322 Eh   ::
         :::::::::::::::::::::::::::::::::::::::::::::::::::::

           -------------------------------------------------
          | TOTAL ENERGY             -129.981109427362 Eh   |
          | TOTAL ENTHALPY           -129.359316741578 Eh   |
          | TOTAL FREE ENERGY        -129.469572025040 Eh   |
          | GRADIENT NORM               0.000116194943 Eh/α |
          | HOMO-LUMO GAP               0.489252822364 eV   |
           -------------------------------------------------

 * finished run on 2025/08/25 at 03:17:40.340
