   * xtb version 6.7.1 (edcfbbe) compiled by 'albert@albert-system' on 2024-07-22

   ID    Z sym.   atoms
    1    6 C      1-4, 6-13, 15-33, 35-50, 52-59
    2    7 N      5, 14, 34, 51
    3    1 H      60-95

          program call               : xtb data2507/toluene/CBPBM/CBPBM_toluene_S0_crest.xyz --gfn 2 --gbsa toluene --ohess vtight --parallel 40 --molden --ceasefiles --namespace data2507/toluene/CBPBM/CBPBM_toluene_S0_finalOpt
      * Solvation model:               GBSA
        Solvent                        toluene
        Solvent mass                       9.2140E+01 g/mol
          :  Hamiltonian                  GFN2-xTB          :
 * total energy  :  -147.9923562 Eh     change       -0.4219373E-08 Eh
 * total energy  :  -147.9924293 Eh     change       -0.7315403E-04 Eh
 * total energy  :  -147.9924861 Eh     change       -0.5680479E-04 Eh
 * total energy  :  -147.9925177 Eh     change       -0.3155360E-04 Eh
 * total energy  :  -147.9925457 Eh     change       -0.2804646E-04 Eh
 * total energy  :  -147.9925770 Eh     change       -0.3121278E-04 Eh
 * total energy  :  -147.9925959 Eh     change       -0.1898327E-04 Eh
 * total energy  :  -147.9926124 Eh     change       -0.1650004E-04 Eh
 * total energy  :  -147.9926385 Eh     change       -0.2604057E-04 Eh
 * total energy  :  -147.9926619 Eh     change       -0.2338341E-04 Eh
 * total energy  :  -147.9934145 Eh     change       -0.1261667E-05 Eh
 * total energy  :  -147.9934156 Eh     change       -0.1118541E-05 Eh
 * total energy  :  -147.9934165 Eh     change       -0.8692234E-06 Eh
 * total energy  :  -147.9934171 Eh     change       -0.5937916E-06 Eh
 * total energy  :  -147.9934176 Eh     change       -0.4550998E-06 Eh
 * total energy  :  -147.9934180 Eh     change       -0.4159405E-06 Eh
 * total energy  :  -147.9934184 Eh     change       -0.3736298E-06 Eh
 * total energy  :  -147.9934187 Eh     change       -0.3183617E-06 Eh
 * total energy  :  -147.9934187 Eh     change       -0.4025537E-08 Eh
   *** GEOMETRY OPTIMIZATION CONVERGED AFTER 94 ITERATIONS ***

 final structure:
================
95
 xtb: 6.7.1 (edcfbbe)
C           -2.22209004168867       -3.68022615775071        3.91000085548280
C           -2.36267431527570       -2.49150127879933        3.21157232091747
C           -2.55951029801062       -2.50672168646655        1.84321161831204
C           -2.60317133725118       -3.72129339156773        1.16644661876871
N           -2.81339893219056       -3.74362146638215       -0.22525501941709
C           -2.15404523740440       -3.02030589018699       -1.19713585808407
C           -0.98302291217164       -2.19534869344227       -0.94157235654478
C           -0.01639248020122       -2.54252823481363        0.00054952246098
C            1.06551133919916       -1.71376396107064        0.22568967130988
C            1.20333328151876       -0.51693977123426       -0.47128607155293
C            2.31564721928677        0.40740980419624       -0.18259228937656
C            3.62424518184820       -0.05350029359629       -0.22026640588412
C            4.69112791392143        0.81247185350938       -0.00575806544706
N            6.00810766351324        0.33129983902301       -0.04392989880338
C            7.04525804190824        0.87026685442348       -0.77936135472576
C            7.03869679376885        1.93546845783972       -1.66925773253200
C            8.22555718272407        2.25839136382423       -2.29904962742644
C            9.39521496304873        1.53903943830799       -2.06088528645403
C            9.40239876843256        0.46251524202340       -1.19621083985078
C            8.22086119065745        0.11750941137728       -0.55211547971579
C            7.86587506106620       -0.92450994769096        0.37063013899588
C            8.57963276868561       -1.95314130735677        0.97255568554079
C            7.92134023312560       -2.78960029125969        1.85212922626607
C            6.57226015145883       -2.60098712443590        2.14632630851322
C            5.84143764313205       -1.58523635261189        1.56014964775677
C            6.49087652098207       -0.75660218309367        0.65583129386142
C            4.44235723192695        2.15959696740743        0.24226655159422
C            3.14155952938482        2.62192892208910        0.28125635799056
C            2.06624719592573        1.76202999888532        0.08547326354632
C            0.68367980054134        2.25881273521206        0.18829635378789
C            0.26134477700963        3.36404822250906       -0.54485778207774
C           -1.05982084426047        3.76847010795018       -0.51595505962545
C           -1.97972961456206        3.08270775115198        0.27063978555388
N           -3.33895136868719        3.43016599502809        0.25714863609377
C           -3.87390006928803        4.68602067990647        0.45657992474803
C           -3.23498610527113        5.88033128136315        0.75947612788861
C           -4.01894170605702        7.00412227603374        0.93780150089746
C           -5.40729201965088        6.94772096471997        0.82758664726128
C           -6.04992641099175        5.75844519716668        0.54568051682503
C           -5.28368706499554        4.61450085152625        0.36071725471782
C           -5.60443029388052        3.24280714704231        0.07809720607909
C           -6.79473591055652        2.56160812088553       -0.14479901150188
C           -6.74315010645203        1.21014866365284       -0.42394879515993
C           -5.52395096735655        0.53833675923894       -0.49803714332877
C           -4.32736696956439        1.19350025629057       -0.27951141848227
C           -4.37434613216083        2.54723082212585        0.02485593100626
C           -1.54905213043263        2.01964765961144        1.06034723214890
C           -0.23353523931918        1.60982540947820        1.01264279028104
C            0.26540510494035       -0.20163658582878       -1.45347274398042
C           -0.80875665344352       -1.03153311119815       -1.69124380195926
N           -2.67563313772993       -3.17366477479603       -2.38612110334105
C           -3.72977029370893       -4.03196050596274       -2.23064949987781
C           -4.63187039641682       -4.53075198156014       -3.16510306817448
C           -5.61957927554690       -5.37933951452287       -2.71168162269164
C           -5.72732488426431       -5.72484763414751       -1.36230439897838
C           -4.84275369897785       -5.24263543336681       -0.41814445398688
C           -3.83568474788935       -4.40457869138362       -0.86967216306689
C           -2.46301668730198       -4.91514233413211        1.86515710346926
C           -2.27488323512064       -4.88899930525065        3.23594688607288
H           -2.07312807230015       -3.66430988759827        4.97904464928502
H           -2.32793617227136       -1.54834075116566        3.73570370351949
H           -2.68025969068433       -1.58709485518143        1.29075951416062
H           -0.10383628869944       -3.46607278944211        0.55363888366769
H            1.79916121640945       -1.98640783800358        0.97022112364270
H            3.81770629054054       -1.09033249932841       -0.45283604105376
H            6.13482369943469        2.48919915507632       -1.87353263681832
H            8.24683051116071        3.08518265945973       -2.99421637048056
H           10.30429193854312        1.82556633782706       -2.56931167781543
H           10.30530033411858       -0.10443031997456       -1.02407621604197
H            9.62904199737099       -2.08963442409787        0.75747879945978
H            8.45796107152998       -3.59723828907148        2.32834812243342
H            6.08852911135251       -3.26188498780130        2.85103689311821
H            4.80185681659595       -1.43514040049491        1.80837877518908
H            5.26767755011920        2.83191541522416        0.42137479041336
H            2.95055516044937        3.66315881974565        0.49570724378453
H            0.96533775157060        3.88365056478385       -1.17842411689912
H           -1.39041463779348        4.59734467109817       -1.12405391392494
H           -2.16146911960234        5.92976156699724        0.86229039321131
H           -3.54600326218723        7.94704608696071        1.17133603857861
H           -5.98533863892486        7.84870106988157        0.97241101011920
H           -7.12645286585517        5.71352044747083        0.47314366927532
H           -7.73956671617918        3.08301713189697       -0.10543155787844
H           -7.65760440164169        0.66252992252545       -0.59935850469176
H           -5.51516500578800       -0.51559672562807       -0.73872514886310
H           -3.38475889773499        0.67200827836963       -0.35849180945012
H           -2.25565008120967        1.52053553248137        1.70636023449754
H            0.09247986233240        0.78155836246083        1.62367602544601
H            0.38480660563591        0.70111770415413       -2.03336559153611
H           -1.53801706408320       -0.79043711707669       -2.44944887918528
H           -4.55271785450297       -4.25176024808697       -4.20414114668917
H           -6.33510502294048       -5.78442200785781       -3.41228170081807
H           -6.52383701514958       -6.38469929665200       -1.05138832299225
H           -4.93573545253239       -5.50290421077266        0.62576609921840
H           -2.49048447245003       -5.85310689122211        1.33002597671223
H           -2.16554785633935       -5.81741569677228        3.77631326691312

          :  Hamiltonian                  GFN2-xTB          :
         :: gradient norm              0.000044682096 Eh/a0 ::
         :: HOMO-LUMO gap              2.485838593006 eV    ::
         :: SCC energy              -150.788200825645 Eh    ::
         :: -> dispersion             -0.140101268379 Eh    ::
         :: -> Gsolv                  -0.061239950713 Eh    ::
         :: repulsion energy           2.794782152974 Eh    ::

    * Orbital Energies and Occupations

         #    Occupation            Energy/Eh            Energy/eV
      -------------------------------------------------------------
         1        2.0000           -0.6902194             -18.7818
       ...           ...                  ...                  ...
       126        2.0000           -0.4138707             -11.2620
       127        2.0000           -0.4117041             -11.2030
       128        2.0000           -0.4073959             -11.0858
       129        2.0000           -0.4055841             -11.0365
       130        2.0000           -0.4049131             -11.0182
       131        2.0000           -0.3964454             -10.7878
       132        2.0000           -0.3852252             -10.4825
       133        2.0000           -0.3822887             -10.4026
       134        2.0000           -0.3810220             -10.3681
       135        2.0000           -0.3790668             -10.3149
       136        2.0000           -0.3784210             -10.2974
       137        2.0000           -0.3640903              -9.9074
       138        2.0000           -0.3601868              -9.8012 (HOMO)
       139                         -0.2688339              -7.3153 (LUMO)
       140                         -0.2539400              -6.9101
       141                         -0.2454945              -6.6802
       142                         -0.2435961              -6.6286
       143                         -0.2417194              -6.5775
       144                         -0.2395687              -6.5190
       145                         -0.2344896              -6.3808
       146                         -0.2338338              -6.3629
       147                         -0.2292177              -6.2373
       148                         -0.2224516              -6.0532
       149                         -0.2218271              -6.0362
       ...                                ...                  ...
       272                          0.7446774              20.2637
      -------------------------------------------------------------
                  HL-Gap            0.0913529 Eh            2.4858 eV

     #   Z          covCN         q      C6AA      α(0)
     1   6 C        2.919    -0.030    28.746     8.792
     2   6 C        2.920    -0.025    28.636     8.775
     3   6 C        2.922    -0.038    28.955     8.824
     4   6 C        2.913     0.065    26.553     8.450
     5   7 N        2.824    -0.060    22.396     7.029
     6   6 C        3.180     0.145    24.467     8.075
     7   6 C        2.975    -0.003    28.084     8.693
     8   6 C        2.921    -0.033    28.831     8.805
     9   6 C        2.923    -0.033    28.820     8.804
    10   6 C        2.977     0.017    27.626     8.622
    11   6 C        2.980     0.009    27.808     8.650
    12   6 C        2.926    -0.047    29.171     8.857
    13   6 C        2.911     0.063    26.592     8.456
    14   7 N        2.802    -0.045    22.104     6.983
    15   6 C        3.075     0.047    26.865     8.498
    16   6 C        2.910    -0.052    29.289     8.874
    17   6 C        2.924    -0.035    28.872     8.812
    18   6 C        2.920    -0.043    29.060     8.840
    19   6 C        2.912    -0.035    28.867     8.810
    20   6 C        3.067    -0.019    28.404     8.739
    21   6 C        3.067    -0.019    28.402     8.739
    22   6 C        2.912    -0.035    28.867     8.810
    23   6 C        2.920    -0.043    29.063     8.841
    24   6 C        2.924    -0.035    28.877     8.812
    25   6 C        2.910    -0.052    29.287     8.874
    26   6 C        3.076     0.047    26.866     8.498
    27   6 C        2.920    -0.044    29.103     8.847
    28   6 C        2.923    -0.033    28.818     8.803
    29   6 C        2.980     0.005    27.911     8.666
    30   6 C        2.977     0.011    27.758     8.642
    31   6 C        2.924    -0.033    28.820     8.804
    32   6 C        2.920    -0.043    29.060     8.840
    33   6 C        2.913     0.062    26.611     8.459
    34   7 N        2.802    -0.045    22.117     6.985
    35   6 C        3.075     0.048    26.857     8.497
    36   6 C        2.909    -0.052    29.288     8.874
    37   6 C        2.924    -0.035    28.869     8.811
    38   6 C        2.919    -0.043    29.061     8.840
    39   6 C        2.912    -0.035    28.863     8.810
    40   6 C        3.068    -0.019    28.406     8.739
    41   6 C        3.066    -0.019    28.402     8.739
    42   6 C        2.912    -0.035    28.862     8.809
    43   6 C        2.920    -0.043    29.058     8.840
    44   6 C        2.923    -0.034    28.836     8.806
    45   6 C        2.910    -0.050    29.248     8.868
    46   6 C        3.078     0.047    26.853     8.496
    47   6 C        2.921    -0.043    29.059     8.840
    48   6 C        2.925    -0.032    28.788     8.799
    49   6 C        2.923    -0.030    28.753     8.794
    50   6 C        2.925    -0.028    28.704     8.786
    51   7 N        1.886    -0.320    29.159     8.005
    52   6 C        3.189     0.069    25.995     8.317
    53   6 C        2.910    -0.048    29.186     8.859
    54   6 C        2.922    -0.042    29.035     8.836
    55   6 C        2.926    -0.039    28.977     8.828
    56   6 C        2.907    -0.054    29.343     8.882
    57   6 C        3.088     0.036    27.086     8.531
    58   6 C        2.921    -0.041    29.010     8.833
    59   6 C        2.920    -0.027    28.664     8.780
    60   1 H        0.926     0.046     2.366     2.406
    61   1 H        0.926     0.046     2.375     2.410
    62   1 H        0.926     0.036     2.508     2.476
    63   1 H        0.926     0.032     2.556     2.500
    64   1 H        0.926     0.041     2.431     2.438
    65   1 H        0.926     0.045     2.387     2.416
    66   1 H        0.926     0.031     2.573     2.508
    67   1 H        0.926     0.030     2.586     2.515
    68   1 H        0.926     0.027     2.625     2.533
    69   1 H        0.926     0.030     2.592     2.518
    70   1 H        0.926     0.030     2.592     2.518
    71   1 H        0.926     0.027     2.626     2.534
    72   1 H        0.926     0.030     2.590     2.517
    73   1 H        0.926     0.029     2.593     2.518
    74   1 H        0.926     0.045     2.379     2.412
    75   1 H        0.926     0.046     2.376     2.411
    76   1 H        0.926     0.044     2.398     2.421
    77   1 H        0.926     0.044     2.397     2.421
    78   1 H        0.926     0.031     2.571     2.508
    79   1 H        0.926     0.031     2.578     2.511
    80   1 H        0.926     0.028     2.617     2.530
    81   1 H        0.926     0.030     2.587     2.515
    82   1 H        0.926     0.031     2.569     2.506
    83   1 H        0.926     0.027     2.628     2.535
    84   1 H        0.926     0.023     2.694     2.567
    85   1 H        0.926     0.023     2.683     2.562
    86   1 H        0.926     0.040     2.454     2.450
    87   1 H        0.926     0.038     2.470     2.458
    88   1 H        0.926     0.041     2.439     2.442
    89   1 H        0.926     0.046     2.368     2.406
    90   1 H        0.926     0.038     2.481     2.463
    91   1 H        0.926     0.034     2.534     2.489
    92   1 H        0.926     0.035     2.517     2.481
    93   1 H        0.926     0.031     2.566     2.505
    94   1 H        0.926     0.042     2.419     2.432
    95   1 H        0.926     0.046     2.369     2.407

molecular dipole:
                 x           y           z       tot (Debye)
 q only:        0.599       0.407       1.406
   full:        0.443       0.183       1.655       4.379

 projected vibrational frequencies (cm⁻¹)
eigval :       -0.00    -0.00    -0.00     0.00     0.00     0.00
eigval :       12.78    14.76    15.76    16.56    18.66    20.29
eigval :       30.86    37.62    44.56    48.39    63.55    66.14
eigval :       71.10    75.95    84.86    88.49   100.21   103.30
eigval :      106.13   109.44   111.10   131.16   143.05   146.71
eigval :      167.43   175.77   190.73   209.03   220.07   228.52
eigval :      231.30   241.72   248.55   260.79   272.23   272.94
eigval :      289.57   301.15   319.64   343.53   359.74   369.89
eigval :      373.59   377.16   382.48   384.80   385.68   392.85
eigval :      393.86   400.36   406.57   420.60   421.67   424.81
eigval :      433.71   436.11   451.02   476.09   482.50   503.51
eigval :      511.30   517.79   519.39   529.83   532.80   537.74
eigval :      541.65   543.04   547.00   548.37   570.42   580.60
eigval :      584.22   588.37   592.07   596.79   599.78   609.68
eigval :      612.10   616.92   633.60   645.37   660.61   668.63
eigval :      670.54   674.05   675.36   688.43   700.04   703.03
eigval :      708.15   709.89   710.77   714.97   722.14   748.92
eigval :      754.70   758.78   763.36   769.50   770.39   774.75
eigval :      780.90   781.26   800.78   819.43   823.22   839.20
eigval :      864.42   865.58   867.05   868.09   872.69   874.03
eigval :      874.32   876.41   880.06   885.95   892.17   897.48
eigval :      898.34   898.93   901.56   902.43   903.34   903.92
eigval :      905.20   919.07   919.82   922.10   922.38   922.73
eigval :      923.66   924.98   927.28   929.29   930.27   930.89
eigval :      932.04   934.19   947.91   961.35   999.57  1002.07
eigval :     1011.19  1011.62  1025.93  1035.50  1060.11  1067.66
eigval :     1068.68  1071.20  1072.44  1079.47  1086.29  1115.45
eigval :     1116.24  1117.07  1132.47  1133.09  1135.15  1137.18
eigval :     1149.53  1150.96  1153.83  1173.74  1174.33  1175.48
eigval :     1178.69  1180.95  1181.52  1182.29  1185.20  1189.35
eigval :     1195.37  1199.99  1206.21  1230.83  1235.15  1235.51
eigval :     1239.99  1243.16  1257.34  1265.20  1266.08  1269.72
eigval :     1276.44  1287.93  1291.96  1298.66  1300.99  1303.12
eigval :     1303.79  1308.05  1313.08  1314.63  1317.55  1321.73
eigval :     1354.22  1355.92  1358.11  1360.75  1360.94  1362.03
eigval :     1372.23  1373.30  1393.84  1403.61  1414.55  1416.05
eigval :     1426.42  1427.29  1428.86  1434.20  1434.35  1467.09
eigval :     1473.91  1474.88  1475.03  1483.10  1486.08  1486.95
eigval :     1487.25  1503.76  1531.00  1549.01  1560.43  1563.33
eigval :     1572.85  1573.17  1582.74  1583.41  1587.11  1587.55
eigval :     1588.02  1592.67  1595.97  1596.95  1597.01  1597.65
eigval :     1612.89  1612.99  1614.24  3065.93  3070.65  3071.43
eigval :     3072.03  3074.08  3074.35  3076.58  3076.70  3076.77
eigval :     3077.61  3078.22  3079.02  3079.48  3080.15  3082.15
eigval :     3082.77  3083.95  3084.96  3085.07  3085.99  3087.80
eigval :     3088.56  3088.96  3089.19  3089.42  3089.77  3091.79
eigval :     3092.26  3092.76  3093.51  3093.93  3095.71  3096.49
eigval :     3099.88  3100.74  3100.91

   temp. (K)  partition function   enthalpy   heat capacity  entropy
                                   cal/mol     cal/K/mol   cal/K/mol   J/K/mol
 298.15  VIB  0.973E+21            26771.754    171.124    166.315
         ROT  0.168E+09              888.752      2.981     40.620
         INT  0.164E+30            27660.506    174.105    206.935
         TR   0.200E+29             1481.254      4.968     45.715
         TOT                       29141.7600   179.0732   252.6498  1057.0869

       T/K    H(0)-H(T)+PV         H(T)/Eh          T*S/Eh         G(T)/Eh
   ------------------------------------------------------------------------
    298.15    0.464404E-01    0.776916E+00    0.120042E+00    0.656874E+00
   ------------------------------------------------------------------------

         :::::::::::::::::::::::::::::::::::::::::::::::::::::
         ::                  THERMODYNAMIC                  ::
         :::::::::::::::::::::::::::::::::::::::::::::::::::::
         :: total free energy        -147.336544310860 Eh   ::
         ::.................................................::
         :: total energy             -147.993418669175 Eh   ::
         :: zero point energy           0.730476095159 Eh   ::
         :: G(RRHO) w/o ZPVE           -0.073601736845 Eh   ::
         :: G(RRHO) contrib.            0.656874358315 Eh   ::
         :::::::::::::::::::::::::::::::::::::::::::::::::::::

           -------------------------------------------------
          | TOTAL ENERGY             -147.993418669175 Eh   |
          | TOTAL ENTHALPY           -147.216502223449 Eh   |
          | TOTAL FREE ENERGY        -147.336544310860 Eh   |
          | GRADIENT NORM               0.000044672764 Eh/α |
          | HOMO-LUMO GAP               2.485839012297 eV   |
           -------------------------------------------------

 * finished run on 2025/08/22 at 08:08:47.338
