   * xtb version 6.7.1 (edcfbbe) compiled by 'albert@albert-system' on 2024-07-22

   ID    Z sym.   atoms
    1    6 C      1-4, 6-13, 15-33, 35-50, 52-59
    2    7 N      5, 14, 34, 51
    3    1 H      60-95

          program call               : xtb data2507/toluene/CBPBM/CBPBM_toluene_T1_crest.xyz --gfn 2 --uhf 2 --gbsa toluene --ohess vtight --parallel 40 --molden --ceasefiles --namespace data2507/toluene/CBPBM/CBPBM_toluene_T1_finalOpt
      * Solvation model:               GBSA
        Solvent                        toluene
        Solvent mass                       9.2140E+01 g/mol
          :  Hamiltonian                  GFN2-xTB          :
 * total energy  :  -147.9039955 Eh     change       -0.7553069E-08 Eh
 * total energy  :  -147.9040541 Eh     change       -0.5868357E-04 Eh
 * total energy  :  -147.9040932 Eh     change       -0.3902886E-04 Eh
 * total energy  :  -147.9041157 Eh     change       -0.2255469E-04 Eh
 * total energy  :  -147.9041369 Eh     change       -0.2116662E-04 Eh
 * total energy  :  -147.9041767 Eh     change       -0.3982189E-04 Eh
 * total energy  :  -147.9041974 Eh     change       -0.2065842E-04 Eh
 * total energy  :  -147.9042195 Eh     change       -0.2216238E-04 Eh
 * total energy  :  -147.9042385 Eh     change       -0.1900204E-04 Eh
 * total energy  :  -147.9042514 Eh     change       -0.1281682E-04 Eh
 * total energy  :  -147.9048583 Eh     change       -0.5315459E-06 Eh
 * total energy  :  -147.9048585 Eh     change       -0.2619417E-06 Eh
 * total energy  :  -147.9048588 Eh     change       -0.2497361E-06 Eh
 * total energy  :  -147.9048592 Eh     change       -0.3869148E-06 Eh
 * total energy  :  -147.9048596 Eh     change       -0.4633499E-06 Eh
 * total energy  :  -147.9048601 Eh     change       -0.4794088E-06 Eh
 * total energy  :  -147.9048605 Eh     change       -0.4086770E-06 Eh
 * total energy  :  -147.9048608 Eh     change       -0.3077014E-06 Eh
 * total energy  :  -147.9048608 Eh     change       -0.1510401E-07 Eh
   *** GEOMETRY OPTIMIZATION CONVERGED AFTER 94 ITERATIONS ***

 final structure:
================
95
 xtb: 6.7.1 (edcfbbe)
C            1.46485619901765       -7.01036296328154        0.50619732078942
C            0.38231510618828       -7.06981771401243        1.36859944323999
C           -0.74119602926481       -6.29795852289507        1.13257696384417
C           -0.78512184164487       -5.45942997201426        0.02237448171733
N           -1.93826637001329       -4.70270381632620       -0.23874735547086
C           -2.03409009566573       -3.35434336661658       -0.59150464340471
C           -1.00852344512406       -2.38552152907353       -0.46670729982630
C            0.15728475363988       -2.54505580027093        0.32793609204053
C            1.09839762262036       -1.56207314587083        0.40540693012835
C            0.94207729190117       -0.31680795031271       -0.25700031580410
C            1.90198371015597        0.73394262992226       -0.12489571087875
C            3.26572089479474        0.42742778782989        0.00986186637631
C            4.24008867299983        1.39402150810020       -0.09847154731279
N            5.59141499802616        1.05702430802478        0.00880535879643
C            6.59185908761398        1.44346934054358       -0.86144467923722
C            6.50425851096799        2.16828379902554       -2.04265564106602
C            7.67177393600015        2.40015963132455       -2.74598307093291
C            8.89821981887735        1.91301155450051       -2.29979624378156
C            8.98697396673787        1.16220523236124       -1.14198175527645
C            7.82872909958881        0.91850318630316       -0.41794628546563
C            7.54933651607104        0.17714971243196        0.78266091250644
C            8.34243353372262       -0.53570884973912        1.67067146485401
C            7.74230963899447       -1.12629470643649        2.76732454277614
C            6.37342214906009       -0.99682410148934        2.99154123200443
C            5.56378361943276       -0.29029607974676        2.12158753348316
C            6.15595685073971        0.28323265702991        1.00449452018991
C            3.87247662210120        2.74215430239977       -0.33499414775992
C            2.54617349289253        3.07819426632940       -0.40008073248268
C            1.52966750900969        2.12563046720854       -0.23921765658223
C            0.16432904481030        2.55219370246241       -0.07224303096282
C           -0.35399485726041        3.66526999995157       -0.76416449411056
C           -1.66905217879357        4.03641432196465       -0.63864620161381
C           -2.53056452424989        3.32841445226325        0.21075971138410
N           -3.87465001287756        3.67618297870739        0.31386929066289
C           -4.37890952605000        4.95398151078174        0.47097848586880
C           -3.70610507946343        6.15873438142122        0.62602424801702
C           -4.46167000793360        7.30379553298304        0.80038699401149
C           -5.85317300360857        7.25796660268399        0.83529922317616
C           -6.52844841383963        6.05694531111040        0.71426375442922
C           -5.79121988634540        4.89561333831481        0.53525960363037
C           -6.14936177029859        3.50813372398535        0.40348218252913
C           -7.36289223490137        2.83672352427189        0.36769936909402
C           -7.35506400620562        1.46455439346912        0.19394695293497
C           -6.15844620211151        0.76875025693748        0.03874465672374
C           -4.93725856715401        1.41687078071309        0.06941795894655
C           -4.93728610178294        2.79024951367145        0.27433972718225
C           -2.01732051583518        2.25742790013252        0.95192413216721
C           -0.70757985864092        1.87823359821416        0.81169026213921
C           -0.22705263969834       -0.16662600743376       -1.05834947116396
C           -1.15814309233086       -1.15353660381933       -1.15392116516011
N           -3.26253967490089       -3.04262896549180       -1.00656648914230
C           -3.99585626562699       -4.17398054470058       -0.91923473903854
C           -5.33880132956854       -4.40366326606217       -1.22922371253962
C           -5.82851121057102       -5.68159027021971       -1.06473621977957
C           -5.01873970038047       -6.72593556911736       -0.61292488944050
C           -3.68487014347569       -6.52426359870255       -0.29581601757732
C           -3.18835575322533       -5.24204817158624       -0.43778321730119
C            0.30086932375618       -5.40651475286433       -0.84971233004013
C            1.42119530033698       -6.17569636517059       -0.59997950128077
H            2.34075283026316       -7.61237662990235        0.69525582896468
H            0.41239029936912       -7.71618359271196        2.23339800528817
H           -1.58158614246348       -6.32714093562026        1.81073515705824
H            0.28199650220495       -3.44097598381992        0.91689771954083
H            1.94971259925261       -1.70881416521594        1.05414020632393
H            3.56588079024346       -0.60517752776807        0.10512126577807
H            5.55559144395959        2.52888141281074       -2.40948467926945
H            7.63053904019026        2.96561155743887       -3.66533130715354
H            9.78869521824116        2.11601857856653       -2.87626581029419
H            9.93517297460062        0.76818743118483       -0.80848135106425
H            9.40631361961579       -0.62135108950208        1.50836187073777
H            8.34162630455291       -1.68888793749906        3.46787902060091
H            5.93512048694630       -1.45546303945629        3.86582002344525
H            4.50787982762451       -0.17807257334782        2.31438167023074
H            4.63958406701075        3.49846858419924       -0.38958253931904
H            2.27537404755056        4.11879989355189       -0.49873233361199
H            0.27624587777959        4.19367311487152       -1.46334353027204
H           -2.06188828798660        4.84769184869906       -1.23301987168752
H           -2.62809037003771        6.20341152559628        0.62694714091558
H           -3.96087919085685        8.25343041174665        0.91844111820977
H           -6.40902017661489        8.17376183140993        0.97180527722584
H           -7.60621717139745        6.01986411551438        0.76293740883112
H           -8.29195495178697        3.37751085463882        0.46672070538492
H           -8.28893775259838        0.92268834365290        0.16649585712792
H           -6.17876023098781       -0.30007712355694       -0.11398295460457
H           -4.02147070349397        0.86510487079191       -0.07453255817039
H           -2.65601999549302        1.74783717692762        1.65757581290459
H           -0.32056113162224        1.07856307068092        1.42410533815822
H           -0.34050292059479        0.72817747166911       -1.65153602816907
H           -2.02893137674029       -1.03796343590305       -1.78101285181129
H           -5.95917540962794       -3.59947302920748       -1.59277308313990
H           -6.86351744772999       -5.88809660009216       -1.29728434120143
H           -5.44133684058627       -7.71468723841630       -0.51090100875208
H           -3.06074209844641       -7.33953523350503        0.03955208585599
H            0.25607769778449       -4.75747554659025       -1.71230179522773
H            2.26089920568490       -6.12868720432304       -1.27731980303304

          :  Hamiltonian                  GFN2-xTB          :
         :: gradient norm              0.000052840525 Eh/a0 ::
         :: HOMO-LUMO gap              0.536646454482 eV    ::
         :: SCC energy              -150.677947709748 Eh    ::
         :: -> dispersion             -0.138410689270 Eh    ::
         :: -> Gsolv                  -0.062808840296 Eh    ::
         :: repulsion energy           2.773086859134 Eh    ::

    * Orbital Energies and Occupations

         #    Occupation            Energy/Eh            Energy/eV
      -------------------------------------------------------------
         1        2.0000           -0.6826524             -18.5759
       ...           ...                  ...                  ...
       127        2.0000           -0.4098032             -11.1513
       128        2.0000           -0.4065257             -11.0621
       129        2.0000           -0.4022645             -10.9462
       130        2.0000           -0.3994893             -10.8707
       131        2.0000           -0.3881009             -10.5608
       132        2.0000           -0.3838338             -10.4446
       133        2.0000           -0.3835135             -10.4359
       134        2.0000           -0.3768213             -10.2538
       135        2.0000           -0.3713091             -10.1038
       136        1.9999           -0.3693574             -10.0507
       137        1.9971           -0.3663499              -9.9689
       138        1.0030           -0.3553004              -9.6682
       139        1.0000           -0.2767524              -7.5308 (HOMO)
       140        0.0000           -0.2570310              -6.9942 (LUMO)
       141                         -0.2497270              -6.7954
       142                         -0.2475318              -6.7357
       143                         -0.2363851              -6.4324
       144                         -0.2334852              -6.3535
       145                         -0.2304028              -6.2696
       146                         -0.2278129              -6.1991
       147                         -0.2273888              -6.1876
       148                         -0.2271906              -6.1822
       149                         -0.2172860              -5.9127
       150                         -0.2110362              -5.7426
       ...                                ...                  ...
       272                          0.7392502              20.1160
      -------------------------------------------------------------
                  HL-Gap            0.0197214 Eh            0.5366 eV

     #   Z          covCN         q      C6AA      α(0)
     1   6 C        2.919    -0.033    28.832     8.805
     2   6 C        2.919    -0.029    28.716     8.788
     3   6 C        2.921    -0.043    29.073     8.842
     4   6 C        2.912     0.067    26.497     8.441
     5   7 N        2.814    -0.075    22.702     7.077
     6   6 C        3.144     0.137    24.789     8.146
     7   6 C        2.970    -0.016    28.410     8.743
     8   6 C        2.912    -0.042    29.043     8.837
     9   6 C        2.916    -0.039    28.972     8.826
    10   6 C        2.972     0.002    27.980     8.677
    11   6 C        2.971     0.001    28.002     8.680
    12   6 C        2.922    -0.052    29.290     8.875
    13   6 C        2.908     0.056    26.739     8.479
    14   7 N        2.801    -0.027    21.759     6.928
    15   6 C        3.074     0.047    26.864     8.498
    16   6 C        2.909    -0.047    29.160     8.855
    17   6 C        2.923    -0.033    28.831     8.805
    18   6 C        2.920    -0.038    28.948     8.823
    19   6 C        2.912    -0.032    28.807     8.801
    20   6 C        3.065    -0.015    28.322     8.727
    21   6 C        3.066    -0.015    28.322     8.727
    22   6 C        2.912    -0.033    28.810     8.802
    23   6 C        2.920    -0.038    28.954     8.824
    24   6 C        2.923    -0.033    28.833     8.806
    25   6 C        2.910    -0.047    29.163     8.855
    26   6 C        3.073     0.047    26.875     8.500
    27   6 C        2.915    -0.051    29.271     8.872
    28   6 C        2.917    -0.033    28.824     8.804
    29   6 C        2.973    -0.001    28.057     8.689
    30   6 C        2.973     0.016    27.658     8.627
    31   6 C        2.920    -0.035    28.877     8.812
    32   6 C        2.916    -0.042    29.035     8.836
    33   6 C        2.912     0.058    26.709     8.474
    34   7 N        2.800    -0.021    21.646     6.910
    35   6 C        3.070     0.046    26.899     8.504
    36   6 C        2.910    -0.046    29.152     8.853
    37   6 C        2.923    -0.033    28.824     8.804
    38   6 C        2.920    -0.037    28.924     8.819
    39   6 C        2.912    -0.032    28.790     8.798
    40   6 C        3.065    -0.014    28.284     8.721
    41   6 C        3.064    -0.014    28.300     8.723
    42   6 C        2.912    -0.032    28.799     8.800
    43   6 C        2.920    -0.037    28.908     8.817
    44   6 C        2.923    -0.031    28.777     8.797
    45   6 C        2.909    -0.044    29.098     8.845
    46   6 C        3.071     0.046    26.890     8.503
    47   6 C        2.916    -0.041    29.025     8.835
    48   6 C        2.921    -0.028    28.710     8.787
    49   6 C        2.915    -0.036    28.896     8.815
    50   6 C        2.920    -0.036    28.890     8.814
    51   7 N        1.881    -0.339    29.651     8.072
    52   6 C        3.163     0.078    25.949     8.326
    53   6 C        2.909    -0.056    29.403     8.891
    54   6 C        2.920    -0.043    29.073     8.842
    55   6 C        2.925    -0.043    29.060     8.840
    56   6 C        2.907    -0.061    29.523     8.909
    57   6 C        3.069     0.042    26.980     8.517
    58   6 C        2.921    -0.040    28.991     8.830
    59   6 C        2.919    -0.027    28.687     8.783
    60   1 H        0.926     0.042     2.423     2.434
    61   1 H        0.926     0.042     2.426     2.436
    62   1 H        0.926     0.038     2.476     2.461
    63   1 H        0.926     0.020     2.732     2.585
    64   1 H        0.926     0.029     2.601     2.522
    65   1 H        0.926     0.040     2.451     2.448
    66   1 H        0.926     0.038     2.478     2.462
    67   1 H        0.926     0.035     2.513     2.479
    68   1 H        0.926     0.033     2.538     2.491
    69   1 H        0.926     0.036     2.509     2.477
    70   1 H        0.926     0.036     2.507     2.476
    71   1 H        0.926     0.033     2.541     2.493
    72   1 H        0.926     0.034     2.526     2.486
    73   1 H        0.926     0.035     2.513     2.479
    74   1 H        0.926     0.041     2.440     2.443
    75   1 H        0.926     0.043     2.412     2.428
    76   1 H        0.926     0.046     2.373     2.409
    77   1 H        0.926     0.047     2.360     2.402
    78   1 H        0.926     0.039     2.456     2.451
    79   1 H        0.926     0.037     2.490     2.467
    80   1 H        0.926     0.035     2.516     2.480
    81   1 H        0.926     0.037     2.487     2.466
    82   1 H        0.926     0.038     2.477     2.461
    83   1 H        0.926     0.034     2.526     2.485
    84   1 H        0.926     0.036     2.500     2.473
    85   1 H        0.926     0.040     2.451     2.448
    86   1 H        0.926     0.042     2.425     2.435
    87   1 H        0.926     0.041     2.439     2.442
    88   1 H        0.926     0.031     2.574     2.509
    89   1 H        0.926     0.038     2.475     2.460
    90   1 H        0.926     0.031     2.579     2.511
    91   1 H        0.926     0.028     2.617     2.530
    92   1 H        0.926     0.028     2.609     2.526
    93   1 H        0.926     0.024     2.678     2.559
    94   1 H        0.926     0.033     2.541     2.493
    95   1 H        0.926     0.042     2.427     2.436

molecular dipole:
                 x           y           z       tot (Debye)
 q only:        1.594       2.041       0.512
   full:        1.651       1.546       0.615       5.958

 projected vibrational frequencies (cm⁻¹)
eigval :       -0.00     0.00     0.00     0.00     0.00     0.00
eigval :      -13.21    -6.59     9.58    11.65    14.37    19.50
eigval :       33.50    36.15    41.68    44.94    58.46    63.85
eigval :       76.19    77.57    84.43    87.91    93.45   101.58
eigval :      109.35   117.13   120.23   137.48   143.55   153.47
eigval :      157.21   181.83   190.35   208.03   222.41   231.61
eigval :      237.64   241.60   258.88   262.15   270.03   270.92
eigval :      275.36   306.61   314.28   328.86   345.15   364.24
eigval :      366.54   376.63   381.20   383.25   386.91   388.36
eigval :      394.41   397.93   406.37   408.43   420.16   421.14
eigval :      430.59   435.09   436.85   458.79   477.91   480.55
eigval :      498.30   515.27   515.89   524.44   527.35   530.41
eigval :      536.53   537.32   540.11   542.53   556.83   575.76
eigval :      580.17   585.13   588.13   589.70   592.49   602.88
eigval :      607.15   613.36   616.69   626.45   636.00   658.63
eigval :      667.70   671.75   672.58   673.94   677.44   689.20
eigval :      693.98   699.96   707.64   710.10   711.63   738.25
eigval :      753.02   755.27   755.78   759.93   766.65   769.15
eigval :      777.03   779.56   789.44   800.32   802.47   819.43
eigval :      832.74   844.71   846.81   861.70   862.60   871.03
eigval :      871.91   873.35   874.85   878.73   879.74   880.90
eigval :      895.62   896.33   898.01   899.85   901.24   902.65
eigval :      904.80   905.69   906.95   910.35   914.89   915.23
eigval :      917.72   920.40   921.40   922.53   925.72   926.60
eigval :      927.34   929.56   932.37   939.12   976.60   985.47
eigval :     1000.64  1009.39  1009.99  1012.45  1041.68  1058.41
eigval :     1067.01  1068.09  1070.46  1071.62  1076.51  1094.56
eigval :     1109.54  1112.22  1115.94  1130.41  1135.78  1137.51
eigval :     1138.53  1146.21  1146.95  1161.05  1170.68  1172.27
eigval :     1175.59  1176.92  1178.06  1178.15  1183.68  1184.38
eigval :     1191.63  1204.01  1207.59  1213.20  1229.56  1230.47
eigval :     1233.01  1237.46  1241.54  1257.56  1262.47  1265.62
eigval :     1273.79  1278.92  1283.47  1286.52  1290.80  1292.61
eigval :     1295.36  1301.81  1314.87  1317.56  1320.61  1327.50
eigval :     1344.18  1347.79  1349.63  1352.77  1356.39  1357.03
eigval :     1359.97  1369.00  1379.64  1395.61  1410.41  1415.78
eigval :     1416.23  1417.66  1418.67  1423.66  1429.23  1432.74
eigval :     1436.88  1447.46  1462.19  1464.48  1469.94  1471.70
eigval :     1475.66  1479.41  1481.13  1482.50  1486.27  1491.62
eigval :     1506.14  1562.29  1568.45  1569.06  1570.33  1572.78
eigval :     1578.02  1580.81  1582.10  1583.42  1585.78  1586.41
eigval :     1589.34  1600.76  1603.81  3069.19  3071.24  3071.91
eigval :     3074.22  3075.43  3075.94  3076.26  3077.31  3077.35
eigval :     3080.17  3080.55  3080.59  3081.94  3082.40  3083.33
eigval :     3084.32  3084.44  3085.41  3085.98  3087.44  3089.06
eigval :     3090.18  3090.99  3091.07  3092.09  3092.56  3093.86
eigval :     3095.00  3095.97  3096.38  3097.14  3097.50  3097.90
eigval :     3098.47  3099.78  3100.32

   temp. (K)  partition function   enthalpy   heat capacity  entropy
                                   cal/mol     cal/K/mol   cal/K/mol   J/K/mol
 298.15  VIB  0.780E+22            27049.859    172.903    169.103
         ROT  0.188E+09              888.752      2.981     40.844
         INT  0.147E+31            27938.611    175.884    209.947
         TR   0.200E+29             1481.254      4.968     45.715
         TOT                       29419.8649   180.8523   255.6617  1069.6884

       T/K    H(0)-H(T)+PV         H(T)/Eh          T*S/Eh         G(T)/Eh
   ------------------------------------------------------------------------
    298.15    0.468835E-01    0.772778E+00    0.121473E+00    0.651305E+00
   ------------------------------------------------------------------------

         :::::::::::::::::::::::::::::::::::::::::::::::::::::
         ::                  THERMODYNAMIC                  ::
         :::::::::::::::::::::::::::::::::::::::::::::::::::::
         :: total free energy        -147.253555992362 Eh   ::
         ::.................................................::
         :: total energy             -147.904860846886 Eh   ::
         :: zero point energy           0.725894418769 Eh   ::
         :: G(RRHO) w/o ZPVE           -0.074589564245 Eh   ::
         :: G(RRHO) contrib.            0.651304854524 Eh   ::
         :::::::::::::::::::::::::::::::::::::::::::::::::::::

           -------------------------------------------------
          | TOTAL ENERGY             -147.904860846886 Eh   |
          | TOTAL ENTHALPY           -147.132082889166 Eh   |
          | TOTAL FREE ENERGY        -147.253555992362 Eh   |
          | GRADIENT NORM               0.000052620880 Eh/α |
          | HOMO-LUMO GAP               0.536647494990 eV   |
           -------------------------------------------------

 * finished run on 2025/08/22 at 08:15:56.922
