   * xtb version 6.7.1 (edcfbbe) compiled by 'albert@albert-system' on 2024-07-22

   ID    Z sym.   atoms
    1    6 C      1-4, 6-13, 15-33, 35-50, 52-59
    2    7 N      5, 14, 34, 51
    3    1 H      60-95

          program call               : xtb data2507/toluene/CBPBM/CBPBM.xyz --gfn 2 --gbsa toluene --ohess vtight --parallel 40 --molden --ceasefiles --namespace data2507/toluene/CBPBM/CBPBM_toluene_S0_preOpt
      * Solvation model:               GBSA
        Solvent                        toluene
        Solvent mass                       9.2140E+01 g/mol
          :  Hamiltonian                  GFN2-xTB          :
 * total energy  :  -147.9668975 Eh     change       -0.2291017E-08 Eh
 * total energy  :  -147.9836053 Eh     change       -0.1670785E-01 Eh
 * total energy  :  -147.9875506 Eh     change       -0.3945269E-02 Eh
 * total energy  :  -147.9885412 Eh     change       -0.9905693E-03 Eh
 * total energy  :  -147.9892803 Eh     change       -0.7391630E-03 Eh
 * total energy  :  -147.9895716 Eh     change       -0.2912758E-03 Eh
 * total energy  :  -147.9897639 Eh     change       -0.1923236E-03 Eh
 * total energy  :  -147.9899298 Eh     change       -0.1658951E-03 Eh
 * total energy  :  -147.9900886 Eh     change       -0.1587389E-03 Eh
 * total energy  :  -147.9902581 Eh     change       -0.1694938E-03 Eh
 * total energy  :  -147.9935234 Eh     change       -0.2255459E-06 Eh
 * total energy  :  -147.9935235 Eh     change       -0.1500621E-06 Eh
 * total energy  :  -147.9935236 Eh     change       -0.1234445E-06 Eh
 * total energy  :  -147.9935238 Eh     change       -0.1351016E-06 Eh
 * total energy  :  -147.9935239 Eh     change       -0.1632539E-06 Eh
 * total energy  :  -147.9935241 Eh     change       -0.2200652E-06 Eh
 * total energy  :  -147.9935244 Eh     change       -0.2818765E-06 Eh
 * total energy  :  -147.9935247 Eh     change       -0.3095392E-06 Eh
 * total energy  :  -147.9935247 Eh     change       -0.3002128E-08 Eh
   *** GEOMETRY OPTIMIZATION CONVERGED AFTER 122 ITERATIONS ***

 final structure:
================
95
 xtb: 6.7.1 (edcfbbe)
C           -2.38375145630468       -3.84760443169362        3.74552872819869
C           -2.56702334950815       -2.71136344490360        2.97363447857496
C           -2.63529250677091       -2.80872110912537        1.59622345789106
C           -2.50633240729216       -4.05175837323337        0.98476580987049
N           -2.57606327768017       -4.15600713649430       -0.41701411967296
C           -1.90390617903282       -3.40087985059688       -1.35574263949349
C           -0.84975399437699       -2.45183731359419       -1.02928268667915
C            0.06331266700880       -2.68766814657251       -0.00303896160771
C            1.05695294897636       -1.76828534976306        0.26811111611814
C            1.15877411706329       -0.58887899770769       -0.46535013877284
C            2.21713889605152        0.39142512294561       -0.16287323077254
C            3.53345308695504       -0.04571788372424       -0.08212285747200
C            4.57274072903327        0.84781558206212        0.14914277444717
N            5.89454741393463        0.38641974456036        0.23142437443443
C            6.97411615567108        0.90032152597603       -0.45971315831675
C            7.01664052111212        1.91405673529949       -1.40690953733711
C            8.24006761287062        2.21902601512026       -1.97236237336265
C            9.39842186764952        1.53092519981558       -1.61594074656362
C            9.35847226988112        0.50525759935757       -0.69240004254261
C            8.13997632059818        0.18039918559881       -0.10959547675523
C            7.73428636251031       -0.81323589784439        0.84517624139321
C            8.41796909800550       -1.79155127059333        1.55605973998565
C            7.71034991752924       -2.58938461880877        2.43319949361959
C            6.34053815508715       -2.41132843488855        2.61718448952106
C            5.63928438947463       -1.44378738751790        1.92322149837814
C            6.34023237744220       -0.65366007144888        1.02280423603911
C            4.28978161368895        2.20328076388122        0.29407372382707
C            2.98385352298010        2.64236623413891        0.21137652069326
C            1.93275564396271        1.75560173612176       -0.00653468892511
C            0.55227682815020        2.26687060412601       -0.02660730062676
C            0.22054792088070        3.37082998580671       -0.80840616191475
C           -1.07160217745074        3.85759631491445       -0.83486163469001
C           -2.05756704844874        3.25959391916504       -0.05586356790025
N           -3.37388169525883        3.74530347309334       -0.07992934038791
C           -3.75969728324417        5.05697615851967        0.11100213050725
C           -2.98679219721528        6.17287468255253        0.40097246588554
C           -3.63540682165807        7.38102728129489        0.57141868079384
C           -5.02133976328530        7.48442868523249        0.46621689332272
C           -5.79761872854008        6.37413116690234        0.19937052773770
C           -5.16863117308153        5.14805981280058        0.02316788663436
C           -5.64738547721533        3.81982881156027       -0.24143754441996
C           -6.91097514157068        3.27983555202347       -0.44620412067934
C           -7.01977934507895        1.92832928645315       -0.70766298807141
C           -5.88741581604721        1.11902142176215       -0.78216640441257
C           -4.62055498373716        1.63284457257125       -0.58201953543851
C           -4.50633755231240        2.98595154884847       -0.29461389812829
C           -1.72784305726605        2.17199564213498        0.74893519286192
C           -0.43916111135543        1.67870404421195        0.75597018150345
C            0.26452247349157       -0.37189149824531       -1.51235336488964
C           -0.72066337350912       -1.29390326468844       -1.79638586343857
N           -2.27930941214035       -3.66044627052773       -2.58052163894610
C           -3.24174018429915       -4.62854085428260       -2.48533454702873
C           -3.97792407522026       -5.26712792562761       -3.47814271597952
C           -4.90590700400927       -6.20712699797621       -3.08248074241099
C           -5.11513936149404       -6.50847296755683       -1.73455725486236
C           -4.39442322782497       -5.88861517338134       -0.73304908856540
C           -3.44609302600596       -4.95670411293915       -1.12401465004927
C           -2.32432552044847       -5.19322359669664        1.75758175169503
C           -2.26666700388303       -5.08586857493238        3.13604870008808
H           -2.33446367549846       -3.76848626510385        4.82094123578670
H           -2.66493286169389       -1.74511631516414        3.44528763759074
H           -2.78642061213365       -1.93036299611402        0.98687690733411
H            0.00889155876517       -3.59889723945244        0.57411595298325
H            1.75349908571517       -1.95970192413642        1.07129280266831
H            3.75621334938093       -1.09119267522232       -0.23656456107027
H            6.12261042868091        2.44137924772845       -1.70341732121638
H            8.29975239205929        3.00656880828035       -2.70962519735823
H           10.33654997965529        1.80082814407571       -2.07861777404633
H           10.25328661699656       -0.03884609666438       -0.42874986088856
H            9.48236528214527       -1.91919383155247        1.42590192181303
H            8.22312243048030       -3.35780269199191        2.99318093408105
H            5.81631584700206       -3.04151038684107        3.32110325398713
H            4.58214412751018       -1.30096659881205        2.08742890615828
H            5.09040442639634        2.90036943999456        0.48945881560194
H            2.76540109169527        3.69145012053087        0.34669651020243
H            0.97738956270047        3.83248852025799       -1.42575912179559
H           -1.32723370355152        4.69326583281915       -1.46925920595534
H           -1.91427390443119        6.10055287163795        0.50068984931965
H           -3.05584584586914        8.26504624386187        0.79484038896933
H           -5.49109496090127        8.44743630879518        0.60368885519086
H           -6.87259893565576        6.45204719913807        0.13179652376049
H           -7.78803739710585        3.90852608016838       -0.40532725439577
H           -7.99353625052333        1.48894994056426       -0.86784616784537
H           -6.00257752714765        0.06805513555479       -1.00627536813643
H           -3.74666841442433        1.00418993970425       -0.66181834419049
H           -2.48586277561194        1.72774187021483        1.37662072524616
H           -0.19062557198518        0.84104559378870        1.39021222389349
H            0.35279246674587        0.52138555647145       -2.11222139195772
H           -1.41016181863928       -1.13330923245775       -2.61111259669789
H           -3.82058678844826       -5.02318436818858       -4.51712047654078
H           -5.49288796191638       -6.72160729792484       -3.82926909595583
H           -5.86054659410293       -7.24418354394030       -1.47061887558728
H           -4.56714306965119       -6.11735223550647        0.30806820261767
H           -2.21609949670774       -6.15332737261903        1.27461077055730
H           -2.12384765733383       -5.97379223532768        3.73367212297855

          :  Hamiltonian                  GFN2-xTB          :
         :: gradient norm              0.000038623878 Eh/a0 ::
         :: HOMO-LUMO gap              2.477694094289 eV    ::
         :: SCC energy              -150.787988804566 Eh    ::
         :: -> dispersion             -0.137700637248 Eh    ::
         :: -> Gsolv                  -0.062397891261 Eh    ::
         :: repulsion energy           2.794464067556 Eh    ::

    * Orbital Energies and Occupations

         #    Occupation            Energy/Eh            Energy/eV
      -------------------------------------------------------------
         1        2.0000           -0.6901338             -18.7795
       ...           ...                  ...                  ...
       126        2.0000           -0.4139907             -11.2653
       127        2.0000           -0.4118752             -11.2077
       128        2.0000           -0.4067723             -11.0688
       129        2.0000           -0.4052483             -11.0274
       130        2.0000           -0.4048977             -11.0178
       131        2.0000           -0.3962718             -10.7831
       132        2.0000           -0.3850570             -10.4779
       133        2.0000           -0.3823765             -10.4050
       134        2.0000           -0.3810660             -10.3693
       135        2.0000           -0.3786703             -10.3041
       136        2.0000           -0.3784723             -10.2988
       137        2.0000           -0.3640037              -9.9050
       138        2.0000           -0.3599444              -9.7946 (HOMO)
       139                         -0.2688908              -7.3169 (LUMO)
       140                         -0.2540923              -6.9142
       141                         -0.2452630              -6.6739
       142                         -0.2436226              -6.6293
       143                         -0.2416707              -6.5762
       144                         -0.2394127              -6.5148
       145                         -0.2343854              -6.3780
       146                         -0.2336306              -6.3574
       147                         -0.2290584              -6.2330
       148                         -0.2220542              -6.0424
       149                         -0.2218656              -6.0373
       ...                                ...                  ...
       272                          0.7445657              20.2607
      -------------------------------------------------------------
                  HL-Gap            0.0910536 Eh            2.4777 eV

     #   Z          covCN         q      C6AA      α(0)
     1   6 C        2.919    -0.030    28.748     8.793
     2   6 C        2.920    -0.025    28.638     8.776
     3   6 C        2.922    -0.039    28.968     8.826
     4   6 C        2.912     0.064    26.555     8.450
     5   7 N        2.824    -0.059    22.386     7.027
     6   6 C        3.180     0.144    24.478     8.077
     7   6 C        2.975    -0.002    28.077     8.692
     8   6 C        2.921    -0.033    28.825     8.804
     9   6 C        2.924    -0.033    28.826     8.805
    10   6 C        2.978     0.017    27.625     8.621
    11   6 C        2.979     0.009    27.807     8.650
    12   6 C        2.928    -0.048    29.184     8.859
    13   6 C        2.911     0.063    26.592     8.456
    14   7 N        2.802    -0.045    22.103     6.983
    15   6 C        3.075     0.047    26.865     8.498
    16   6 C        2.910    -0.052    29.289     8.874
    17   6 C        2.924    -0.035    28.871     8.812
    18   6 C        2.919    -0.043    29.059     8.840
    19   6 C        2.912    -0.035    28.867     8.810
    20   6 C        3.067    -0.019    28.404     8.739
    21   6 C        3.067    -0.019    28.401     8.739
    22   6 C        2.912    -0.035    28.866     8.810
    23   6 C        2.920    -0.043    29.063     8.841
    24   6 C        2.924    -0.035    28.877     8.812
    25   6 C        2.910    -0.052    29.286     8.874
    26   6 C        3.075     0.047    26.867     8.498
    27   6 C        2.920    -0.044    29.105     8.847
    28   6 C        2.925    -0.033    28.827     8.805
    29   6 C        2.979     0.005    27.912     8.666
    30   6 C        2.977     0.011    27.758     8.642
    31   6 C        2.925    -0.033    28.832     8.806
    32   6 C        2.920    -0.043    29.061     8.840
    33   6 C        2.913     0.062    26.608     8.459
    34   7 N        2.802    -0.046    22.120     6.985
    35   6 C        3.076     0.047    26.859     8.497
    36   6 C        2.909    -0.052    29.290     8.874
    37   6 C        2.924    -0.035    28.873     8.812
    38   6 C        2.919    -0.043    29.062     8.840
    39   6 C        2.912    -0.035    28.867     8.810
    40   6 C        3.067    -0.019    28.406     8.739
    41   6 C        3.067    -0.019    28.407     8.740
    42   6 C        2.912    -0.035    28.867     8.810
    43   6 C        2.920    -0.043    29.062     8.840
    44   6 C        2.923    -0.035    28.866     8.811
    45   6 C        2.910    -0.051    29.272     8.872
    46   6 C        3.077     0.047    26.857     8.497
    47   6 C        2.921    -0.043    29.061     8.840
    48   6 C        2.924    -0.031    28.784     8.798
    49   6 C        2.923    -0.030    28.746     8.792
    50   6 C        2.925    -0.028    28.701     8.786
    51   7 N        1.885    -0.320    29.146     8.003
    52   6 C        3.190     0.069    25.996     8.317
    53   6 C        2.910    -0.048    29.184     8.858
    54   6 C        2.922    -0.042    29.034     8.836
    55   6 C        2.926    -0.039    28.977     8.828
    56   6 C        2.907    -0.054    29.341     8.882
    57   6 C        3.087     0.036    27.096     8.533
    58   6 C        2.921    -0.041    29.014     8.833
    59   6 C        2.920    -0.027    28.665     8.780
    60   1 H        0.926     0.046     2.368     2.407
    61   1 H        0.926     0.046     2.374     2.409
    62   1 H        0.926     0.036     2.506     2.475
    63   1 H        0.926     0.032     2.560     2.502
    64   1 H        0.926     0.041     2.432     2.439
    65   1 H        0.926     0.045     2.388     2.417
    66   1 H        0.926     0.031     2.571     2.508
    67   1 H        0.926     0.030     2.586     2.515
    68   1 H        0.926     0.027     2.624     2.533
    69   1 H        0.926     0.030     2.592     2.518
    70   1 H        0.926     0.030     2.591     2.517
    71   1 H        0.926     0.027     2.625     2.534
    72   1 H        0.926     0.030     2.590     2.517
    73   1 H        0.926     0.029     2.593     2.518
    74   1 H        0.926     0.045     2.381     2.413
    75   1 H        0.926     0.045     2.379     2.412
    76   1 H        0.926     0.043     2.403     2.424
    77   1 H        0.926     0.044     2.401     2.423
    78   1 H        0.926     0.031     2.574     2.509
    79   1 H        0.926     0.030     2.583     2.513
    80   1 H        0.926     0.028     2.621     2.532
    81   1 H        0.926     0.030     2.591     2.517
    82   1 H        0.926     0.030     2.581     2.512
    83   1 H        0.926     0.027     2.627     2.535
    84   1 H        0.926     0.026     2.638     2.540
    85   1 H        0.926     0.026     2.641     2.541
    86   1 H        0.926     0.040     2.443     2.444
    87   1 H        0.926     0.038     2.471     2.458
    88   1 H        0.926     0.041     2.432     2.438
    89   1 H        0.926     0.046     2.373     2.409
    90   1 H        0.926     0.038     2.479     2.462
    91   1 H        0.926     0.034     2.532     2.489
    92   1 H        0.926     0.035     2.516     2.480
    93   1 H        0.926     0.032     2.562     2.503
    94   1 H        0.926     0.042     2.418     2.432
    95   1 H        0.926     0.046     2.371     2.408

molecular dipole:
                 x           y           z       tot (Debye)
 q only:        0.426       0.397       1.373
   full:        0.265       0.179       1.623       4.205

 projected vibrational frequencies (cm⁻¹)
eigval :       -0.00    -0.00    -0.00     0.00     0.00     0.00
eigval :       10.18    12.53    13.47    16.05    18.37    19.07
eigval :       29.46    37.86    39.45    47.64    56.94    66.96
eigval :       72.71    75.31    85.45    87.48    98.26   103.64
eigval :      105.59   111.06   111.69   133.69   144.61   146.68
eigval :      163.65   175.47   190.56   210.09   219.68   228.53
eigval :      231.02   243.17   249.08   261.77   270.49   272.34
eigval :      291.15   303.12   320.38   344.66   357.66   369.33
eigval :      373.46   376.30   379.64   383.29   386.50   392.93
eigval :      393.94   399.96   409.46   421.56   423.82   425.18
eigval :      434.22   436.21   451.04   475.37   481.99   505.08
eigval :      512.82   517.83   519.55   529.24   532.17   537.57
eigval :      540.96   542.94   547.98   548.68   570.54   580.09
eigval :      584.06   587.91   591.69   596.80   599.43   609.43
eigval :      611.73   616.94   631.56   645.04   660.78   666.58
eigval :      670.65   673.56   675.56   687.55   699.93   702.11
eigval :      708.33   710.01   710.72   714.83   721.06   748.90
eigval :      754.59   758.90   762.18   766.86   769.99   774.73
eigval :      778.95   781.14   801.59   818.52   823.71   839.23
eigval :      866.90   867.67   869.09   869.21   872.99   873.95
eigval :      875.28   876.81   879.65   886.07   892.99   897.38
eigval :      898.27   898.38   901.83   902.18   903.36   904.07
eigval :      904.18   918.06   920.38   920.66   921.15   922.60
eigval :      923.33   924.71   925.81   928.05   928.72   930.96
eigval :      933.39   934.29   947.81   961.42   999.44  1002.47
eigval :     1011.43  1011.68  1025.99  1035.71  1059.55  1067.74
eigval :     1069.90  1071.43  1072.99  1078.77  1086.87  1114.47
eigval :     1116.59  1117.64  1132.38  1135.03  1136.32  1138.32
eigval :     1150.22  1150.71  1154.09  1173.44  1174.27  1174.86
eigval :     1175.52  1180.46  1180.67  1182.71  1187.09  1188.81
eigval :     1196.75  1201.22  1205.56  1232.39  1235.06  1235.53
eigval :     1241.10  1243.23  1257.25  1266.26  1266.80  1270.24
eigval :     1276.30  1286.70  1292.12  1298.72  1300.86  1302.15
eigval :     1302.91  1310.45  1312.55  1314.32  1317.42  1321.30
eigval :     1354.39  1356.00  1357.97  1360.78  1360.80  1361.80
eigval :     1371.63  1372.99  1393.04  1403.24  1414.10  1415.15
eigval :     1426.42  1427.17  1428.57  1433.82  1434.01  1467.34
eigval :     1473.77  1474.55  1474.93  1483.40  1485.95  1486.75
eigval :     1487.21  1504.21  1532.46  1548.69  1559.96  1562.89
eigval :     1572.71  1573.35  1582.14  1582.40  1587.28  1587.45
eigval :     1587.78  1592.58  1595.36  1596.78  1597.22  1597.58
eigval :     1612.80  1613.19  1614.35  3069.23  3070.71  3070.79
eigval :     3071.11  3073.83  3075.73  3076.15  3076.60  3077.10
eigval :     3077.91  3078.05  3078.44  3080.49  3082.21  3082.70
eigval :     3084.33  3084.65  3084.83  3085.84  3086.04  3087.54
eigval :     3088.81  3089.04  3089.63  3090.14  3091.18  3091.39
eigval :     3092.16  3093.29  3093.65  3095.12  3095.99  3096.60
eigval :     3100.00  3100.46  3101.49

   temp. (K)  partition function   enthalpy   heat capacity  entropy
                                   cal/mol     cal/K/mol   cal/K/mol   J/K/mol
 298.15  VIB  0.230E+22            26798.905    170.903    166.982
         ROT  0.181E+09              888.752      2.981     40.763
         INT  0.416E+30            27687.657    173.884    207.744
         TR   0.200E+29             1481.254      4.968     45.715
         TOT                       29168.9114   178.8525   253.4592  1060.4732

       T/K    H(0)-H(T)+PV         H(T)/Eh          T*S/Eh         G(T)/Eh
   ------------------------------------------------------------------------
    298.15    0.464836E-01    0.776930E+00    0.120427E+00    0.656503E+00
   ------------------------------------------------------------------------

         :::::::::::::::::::::::::::::::::::::::::::::::::::::
         ::                  THERMODYNAMIC                  ::
         :::::::::::::::::::::::::::::::::::::::::::::::::::::
         :: total free energy        -147.337021713236 Eh   ::
         ::.................................................::
         :: total energy             -147.993524734194 Eh   ::
         :: zero point energy           0.730446035607 Eh   ::
         :: G(RRHO) w/o ZPVE           -0.073943014648 Eh   ::
         :: G(RRHO) contrib.            0.656503020958 Eh   ::
         :::::::::::::::::::::::::::::::::::::::::::::::::::::

           -------------------------------------------------
          | TOTAL ENERGY             -147.993524734194 Eh   |
          | TOTAL ENTHALPY           -147.216595079530 Eh   |
          | TOTAL FREE ENERGY        -147.337021713236 Eh   |
          | GRADIENT NORM               0.000038631306 Eh/α |
          | HOMO-LUMO GAP               2.477694379359 eV   |
           -------------------------------------------------

 * finished run on 2025/08/22 at 08:03:13.081
