   * xtb version 6.7.1 (edcfbbe) compiled by 'albert@albert-system' on 2024-07-22

   ID    Z sym.   atoms
    1    6 C      1-4, 6-13, 15-33, 35-50, 52-59
    2    7 N      5, 14, 34, 51
    3    1 H      60-95

          program call               : xtb data2507/toluene/CBPBM/CBPBM_toluene_S0_finalOpt.xtbopt.xyz --gfn 2 --uhf 2 --gbsa toluene --ohess vtight --parallel 40 --molden --ceasefiles --namespace data2507/toluene/CBPBM/CBPBM_toluene_T1_preOpt
      * Solvation model:               GBSA
        Solvent                        toluene
        Solvent mass                       9.2140E+01 g/mol
          :  Hamiltonian                  GFN2-xTB          :
 * total energy  :  -147.8903086 Eh     change       -0.2063970E-07 Eh
 * total energy  :  -147.8946525 Eh     change       -0.4343936E-02 Eh
 * total energy  :  -147.8975738 Eh     change       -0.2921315E-02 Eh
 * total energy  :  -147.8983514 Eh     change       -0.7775584E-03 Eh
 * total energy  :  -147.8995187 Eh     change       -0.1167319E-02 Eh
 * total energy  :  -147.9000461 Eh     change       -0.5274007E-03 Eh
 * total energy  :  -147.9004029 Eh     change       -0.3567519E-03 Eh
 * total energy  :  -147.9006483 Eh     change       -0.2454006E-03 Eh
 * total energy  :  -147.9007957 Eh     change       -0.1474988E-03 Eh
 * total energy  :  -147.9008876 Eh     change       -0.9189260E-04 Eh
 * total energy  :  -147.9041544 Eh     change       -0.3996676E-06 Eh
 * total energy  :  -147.9041548 Eh     change       -0.4169374E-06 Eh
 * total energy  :  -147.9041553 Eh     change       -0.4847700E-06 Eh
 * total energy  :  -147.9041558 Eh     change       -0.5087381E-06 Eh
 * total energy  :  -147.9041563 Eh     change       -0.4766084E-06 Eh
 * total energy  :  -147.9041568 Eh     change       -0.4877608E-06 Eh
 * total energy  :  -147.9041574 Eh     change       -0.5591515E-06 Eh
 * total energy  :  -147.9041580 Eh     change       -0.6134806E-06 Eh
 * total energy  :  -147.9041580 Eh     change       -0.1340064E-07 Eh
   *** GEOMETRY OPTIMIZATION CONVERGED AFTER 122 ITERATIONS ***

 final structure:
================
95
 xtb: 6.7.1 (edcfbbe)
C           -1.08054019698176       -5.62586721585486        3.27971769176182
C           -1.42399025227131       -4.28545494083884        3.19405826177276
C           -1.95026046811574       -3.77424671920527        2.02313731035960
C           -2.12287876412226       -4.60671154521571        0.91889044285997
N           -2.68497705219707       -4.10243615298662       -0.26537016477433
C           -2.34980817579476       -2.94430158469060       -0.97274571256299
C           -1.16961083583188       -2.17969407661359       -0.82100563416086
C           -0.01186634064385       -2.60249296658615       -0.11244831500804
C            1.07532094529479       -1.79062164625433        0.01357910073986
C            1.08993512991682       -0.47046801725186       -0.50991440715706
C            2.15927219993724        0.44119795391949       -0.25245971081904
C            3.47617601393927       -0.02407027911152       -0.10217288778334
C            4.54963507701011        0.83751765934862       -0.07565305732797
N            5.85086467255955        0.34517608530773        0.05328012334753
C            6.93176526541810        0.69595217172438       -0.73149970932578
C            6.98730867703357        1.53795462879117       -1.83430056743893
C            8.20871477215407        1.70089558672693       -2.46136923970776
C            9.34871515173810        1.03494501741298       -2.01698906145815
C            9.29323650032192        0.17139481490709       -0.93839905341407
C            8.07850196329731       -0.00694622737188       -0.29210704708643
C            7.65726840486977       -0.82176968285534        0.81586508328006
C            8.31966642308182       -1.70198168357015        1.65977023500644
C            7.60281736795894       -2.31692213318606        2.66950696351259
C            6.24795545015757       -2.04913131408282        2.85211552219130
C            5.56694460600802       -1.17699598593744        2.02330100951381
C            6.27475125708798       -0.57725609784218        0.99046645322520
C            4.33812368875114        2.23363388650131       -0.18629241084990
C            3.05793445535984        2.71742824639935       -0.26430442937804
C            1.94331456602300        1.86969596462403       -0.23695345984450
C            0.61999739427328        2.42010037563057       -0.07842022578521
C            0.23996332124320        3.62730566646362       -0.69523203841442
C           -1.04663031992241        4.09894001115945       -0.60834210308699
C           -2.01169168113330        3.39861966096102        0.12721752790304
N           -3.33381017931645        3.83490858964134        0.16859562414186
C           -3.76485009554831        5.12806999804705        0.39667174673126
C           -3.02946538273897        6.26318269246967        0.71064126117011
C           -3.72025062900310        7.44160457727864        0.92587078673655
C           -5.10969083568444        7.49486583386577        0.84439084258611
C           -5.84970788414076        6.36108970455086        0.56222476147891
C           -5.17813416265563        5.16750411679921        0.34078007211530
C           -5.61339747888591        3.82573965769167        0.05672691331480
C           -6.85997814576443        3.24863959724468       -0.13894126077863
C           -6.92598368470715        1.89888957653686       -0.43279620738607
C           -5.76813998116820        1.13317498589355       -0.55030813462483
C           -4.51518699686700        1.68662391318588       -0.36064911859357
C           -4.44424011676846        3.03508703340120       -0.03661729612603
C           -1.63034890149082        2.23941559815442        0.81145766614572
C           -0.34898244218150        1.76210554561637        0.70957740158694
C           -0.02455196344802       -0.10155470111644       -1.32126368644736
C           -1.09471064339867       -0.92373757560173       -1.48052136550639
N           -3.26811407743945       -2.65623702122677       -1.89886885174913
C           -4.20562040814723       -3.62371769733322       -1.82624562412522
C           -5.37597417917518       -3.80140543058513       -2.56945377324723
C           -6.17309999577295       -4.88387026671092       -2.26529347157256
C           -5.84041191568164       -5.77736497373295       -1.24427756708780
C           -4.68498181942000       -5.62470251528358       -0.49390777655603
C           -3.86807148846364       -4.55375267119707       -0.80323355327055
C           -1.78056345682306       -5.95274442023768        1.00587369560589
C           -1.26150023315647       -6.45594715275836        2.18547899855107
H           -0.67323591359565       -6.02238211864435        4.19746451713725
H           -1.28917343312181       -3.63588483011022        4.04616330226492
H           -2.22589693284708       -2.73228988327283        1.94799910567471
H            0.01844942729400       -3.59185557991921        0.31720767166974
H            1.92312928499384       -2.14468616213395        0.58148849116503
H            3.66366517304399       -1.08700751058943       -0.10072178115504
H            6.10511112101950        2.03993673082117       -2.20071136599204
H            8.27871240991535        2.35384167081236       -3.31898638247763
H           10.28538608500303        1.18915430090013       -2.53209376514021
H           10.17356903170462       -0.35838849638568       -0.60689365291570
H            9.37395169201247       -1.89572462730131        1.53147322430800
H            8.09908572995464       -3.00770440464578        3.33509955967843
H            5.71821581400918       -2.53068587140740        3.66097312168722
H            4.52185571842197       -0.96107697544224        2.18421983612930
H            5.18200081284918        2.90346047970679       -0.13621705064332
H            2.90151803817317        3.78586563385812       -0.26692944492043
H            0.95245890016605        4.15364896646655       -1.31212597467199
H           -1.33667817124485        4.98622441576724       -1.15097775690156
H           -1.95475349607112        6.22831100594715        0.80076667306398
H           -3.17024878615078        8.33907589724185        1.16763265101060
H           -5.61364512856849        8.43436650355330        1.01666811198499
H           -6.92768832618134        6.39916627101865        0.51959342336412
H           -7.75736905562279        3.84461862599920       -0.06908673865041
H           -7.88670612742753        1.42980529922860       -0.58598046766138
H           -5.84707840926165        0.08564247921254       -0.80200664046537
H           -3.62621199704095        1.08607852567767       -0.47753022658070
H           -2.34996156614822        1.73523248494180        1.43891355597232
H           -0.06083356172527        0.89068387133890        1.27719788105417
H            0.01553113960261        0.82962747149104       -1.86612220425280
H           -1.92423852809016       -0.64508166259014       -2.11200002338213
H           -5.63422638364212       -3.10375372636830       -3.35090012081565
H           -7.08356255149710       -5.04716801410137       -2.82415129778751
H           -6.50039904788583       -6.60593433191807       -1.03328018495435
H           -4.43937910920923       -6.31318828186302        0.30129210989979
H           -1.91036588088454       -6.59078907454681        0.14378788983849
H           -0.99320657448616       -7.50032508434243        2.24676207700531

          :  Hamiltonian                  GFN2-xTB          :
         :: gradient norm              0.000048074675 Eh/a0 ::
         :: HOMO-LUMO gap              0.548904944583 eV    ::
         :: SCC energy              -150.677066468045 Eh    ::
         :: -> dispersion             -0.139030510531 Eh    ::
         :: -> Gsolv                  -0.062729747176 Eh    ::
         :: repulsion energy           2.772908477179 Eh    ::

    * Orbital Energies and Occupations

         #    Occupation            Energy/Eh            Energy/eV
      -------------------------------------------------------------
         1        2.0000           -0.6830339             -18.5863
       ...           ...                  ...                  ...
       127        2.0000           -0.4100118             -11.1570
       128        2.0000           -0.4060265             -11.0485
       129        2.0000           -0.4026262             -10.9560
       130        2.0000           -0.4003364             -10.8937
       131        2.0000           -0.3878701             -10.5545
       132        2.0000           -0.3839814             -10.4487
       133        2.0000           -0.3837671             -10.4428
       134        2.0000           -0.3774493             -10.2709
       135        2.0000           -0.3710793             -10.0976
       136        1.9999           -0.3694966             -10.0545
       137        1.9961           -0.3661769              -9.9642
       138        1.0040           -0.3556582              -9.6780
       139        1.0000           -0.2777730              -7.5586 (HOMO)
       140        0.0000           -0.2576010              -7.0097 (LUMO)
       141                         -0.2499058              -6.8003
       142                         -0.2478631              -6.7447
       143                         -0.2368162              -6.4441
       144                         -0.2340654              -6.3692
       145                         -0.2314382              -6.2978
       146                         -0.2284210              -6.2157
       147                         -0.2276171              -6.1938
       148                         -0.2273313              -6.1860
       149                         -0.2177896              -5.9264
       150                         -0.2100787              -5.7165
       ...                                ...                  ...
       272                          0.7393876              20.1198
      -------------------------------------------------------------
                  HL-Gap            0.0201720 Eh            0.5489 eV

     #   Z          covCN         q      C6AA      α(0)
     1   6 C        2.919    -0.033    28.828     8.805
     2   6 C        2.919    -0.028    28.689     8.783
     3   6 C        2.921    -0.040    28.987     8.829
     4   6 C        2.913     0.067    26.496     8.441
     5   7 N        2.814    -0.076    22.717     7.079
     6   6 C        3.141     0.136    24.806     8.150
     7   6 C        2.970    -0.016    28.409     8.743
     8   6 C        2.912    -0.042    29.055     8.839
     9   6 C        2.915    -0.039    28.967     8.826
    10   6 C        2.971     0.002    27.974     8.676
    11   6 C        2.971     0.002    27.982     8.677
    12   6 C        2.921    -0.052    29.291     8.875
    13   6 C        2.908     0.057    26.724     8.477
    14   7 N        2.802    -0.027    21.768     6.929
    15   6 C        3.074     0.047    26.863     8.498
    16   6 C        2.909    -0.047    29.163     8.855
    17   6 C        2.923    -0.033    28.830     8.805
    18   6 C        2.920    -0.038    28.948     8.823
    19   6 C        2.912    -0.032    28.807     8.801
    20   6 C        3.066    -0.015    28.322     8.727
    21   6 C        3.066    -0.015    28.322     8.727
    22   6 C        2.912    -0.033    28.810     8.802
    23   6 C        2.920    -0.038    28.955     8.824
    24   6 C        2.923    -0.033    28.834     8.806
    25   6 C        2.910    -0.047    29.168     8.856
    26   6 C        3.074     0.047    26.875     8.500
    27   6 C        2.915    -0.051    29.262     8.871
    28   6 C        2.917    -0.033    28.819     8.803
    29   6 C        2.974    -0.001    28.041     8.686
    30   6 C        2.973     0.016    27.647     8.625
    31   6 C        2.921    -0.035    28.862     8.810
    32   6 C        2.916    -0.041    29.030     8.835
    33   6 C        2.912     0.058    26.699     8.473
    34   7 N        2.800    -0.022    21.679     6.915
    35   6 C        3.070     0.046    26.894     8.503
    36   6 C        2.909    -0.047    29.158     8.854
    37   6 C        2.923    -0.033    28.823     8.804
    38   6 C        2.920    -0.037    28.929     8.820
    39   6 C        2.912    -0.032    28.791     8.799
    40   6 C        3.065    -0.014    28.291     8.722
    41   6 C        3.065    -0.014    28.303     8.724
    42   6 C        2.912    -0.032    28.800     8.800
    43   6 C        2.920    -0.037    28.919     8.819
    44   6 C        2.923    -0.031    28.776     8.797
    45   6 C        2.909    -0.045    29.109     8.847
    46   6 C        3.071     0.046    26.885     8.502
    47   6 C        2.917    -0.041    29.031     8.835
    48   6 C        2.922    -0.028    28.701     8.785
    49   6 C        2.915    -0.036    28.886     8.813
    50   6 C        2.920    -0.037    28.919     8.819
    51   7 N        1.882    -0.339    29.643     8.071
    52   6 C        3.161     0.078    25.944     8.326
    53   6 C        2.909    -0.057    29.406     8.892
    54   6 C        2.920    -0.043    29.068     8.841
    55   6 C        2.925    -0.042    29.048     8.839
    56   6 C        2.906    -0.061    29.526     8.910
    57   6 C        3.069     0.043    26.965     8.515
    58   6 C        2.921    -0.043    29.062     8.840
    59   6 C        2.920    -0.028    28.711     8.787
    60   1 H        0.926     0.042     2.420     2.433
    61   1 H        0.926     0.042     2.416     2.431
    62   1 H        0.926     0.034     2.531     2.488
    63   1 H        0.926     0.020     2.727     2.582
    64   1 H        0.926     0.029     2.594     2.518
    65   1 H        0.926     0.040     2.451     2.448
    66   1 H        0.926     0.038     2.478     2.462
    67   1 H        0.926     0.035     2.513     2.479
    68   1 H        0.926     0.033     2.538     2.491
    69   1 H        0.926     0.035     2.510     2.477
    70   1 H        0.926     0.036     2.508     2.477
    71   1 H        0.926     0.033     2.542     2.493
    72   1 H        0.926     0.034     2.524     2.484
    73   1 H        0.926     0.036     2.508     2.477
    74   1 H        0.926     0.041     2.433     2.439
    75   1 H        0.926     0.043     2.407     2.426
    76   1 H        0.926     0.046     2.365     2.405
    77   1 H        0.926     0.047     2.357     2.401
    78   1 H        0.926     0.039     2.461     2.453
    79   1 H        0.926     0.037     2.490     2.468
    80   1 H        0.926     0.035     2.518     2.481
    81   1 H        0.926     0.037     2.491     2.468
    82   1 H        0.926     0.038     2.476     2.461
    83   1 H        0.926     0.034     2.533     2.489
    84   1 H        0.926     0.033     2.545     2.495
    85   1 H        0.926     0.037     2.489     2.467
    86   1 H        0.926     0.041     2.441     2.443
    87   1 H        0.926     0.041     2.434     2.440
    88   1 H        0.926     0.030     2.585     2.514
    89   1 H        0.926     0.040     2.447     2.446
    90   1 H        0.926     0.031     2.573     2.509
    91   1 H        0.926     0.028     2.615     2.529
    92   1 H        0.926     0.029     2.603     2.523
    93   1 H        0.926     0.024     2.677     2.559
    94   1 H        0.926     0.037     2.483     2.464
    95   1 H        0.926     0.042     2.428     2.437

molecular dipole:
                 x           y           z       tot (Debye)
 q only:        1.605       1.902       1.257
   full:        1.520       1.455       1.454       6.501

 projected vibrational frequencies (cm⁻¹)
eigval :       -0.00    -0.00    -0.00     0.00     0.00     0.00
eigval :        7.67    13.29    15.04    18.94    19.39    22.07
eigval :       29.83    37.19    45.35    49.06    57.31    62.35
eigval :       73.87    77.95    89.03    92.90   101.73   106.04
eigval :      108.73   114.74   125.35   129.20   145.89   147.15
eigval :      168.66   182.56   191.03   207.41   227.30   227.83
eigval :      236.34   244.15   247.90   265.93   271.48   271.87
eigval :      287.42   295.23   310.43   332.99   350.57   366.39
eigval :      370.39   375.39   375.68   384.18   387.84   391.94
eigval :      395.42   399.66   404.50   411.72   420.37   421.73
eigval :      433.38   435.82   436.76   461.79   472.03   480.22
eigval :      498.33   515.56   515.98   524.26   528.21   530.79
eigval :      538.75   539.84   540.30   544.17   562.00   574.49
eigval :      580.60   585.35   587.34   589.79   592.96   601.99
eigval :      606.81   611.85   615.08   624.14   636.90   658.22
eigval :      665.98   671.07   674.22   675.55   677.31   689.41
eigval :      693.02   701.70   707.53   709.98   711.29   739.33
eigval :      753.40   756.14   758.68   759.57   768.54   769.41
eigval :      778.58   779.34   786.84   800.52   804.66   818.79
eigval :      834.97   847.43   851.59   861.15   862.08   870.32
eigval :      871.02   871.92   874.94   878.33   879.72   883.55
eigval :      895.65   896.60   899.41   899.79   902.36   903.67
eigval :      904.28   905.91   907.07   911.89   915.53   915.90
eigval :      919.99   921.32   924.15   924.28   924.52   925.63
eigval :      925.88   927.09   933.72   938.94   975.63   986.30
eigval :     1000.07  1009.65  1010.38  1013.06  1041.40  1056.61
eigval :     1068.24  1069.20  1070.74  1071.69  1076.98  1093.42
eigval :     1109.88  1112.62  1116.07  1129.71  1135.93  1137.13
eigval :     1139.39  1146.41  1147.66  1161.25  1171.08  1172.76
eigval :     1175.50  1178.06  1178.13  1178.95  1184.30  1184.89
eigval :     1192.06  1203.52  1206.71  1213.49  1230.40  1230.92
eigval :     1231.66  1236.97  1240.74  1255.51  1262.82  1264.82
eigval :     1274.08  1278.84  1282.26  1287.46  1290.95  1292.69
eigval :     1295.42  1302.33  1314.18  1317.17  1320.49  1328.63
eigval :     1343.38  1349.10  1350.05  1353.31  1356.49  1356.71
eigval :     1359.30  1368.70  1380.46  1393.53  1407.09  1415.00
eigval :     1416.88  1418.05  1418.55  1422.32  1429.66  1432.64
eigval :     1435.30  1449.15  1463.47  1464.62  1470.52  1475.08
eigval :     1477.12  1479.83  1481.89  1482.56  1490.43  1491.83
eigval :     1507.28  1562.95  1568.56  1568.98  1569.59  1573.39
eigval :     1578.47  1581.25  1582.39  1584.64  1586.19  1586.98
eigval :     1589.57  1601.58  1604.51  3069.00  3071.66  3073.27
eigval :     3075.13  3075.54  3075.79  3076.95  3077.17  3077.58
eigval :     3080.69  3081.02  3081.42  3081.92  3082.77  3083.61
eigval :     3084.45  3084.82  3085.03  3085.58  3088.01  3089.06
eigval :     3090.03  3090.28  3091.62  3093.73  3094.26  3094.83
eigval :     3095.23  3096.24  3096.51  3096.95  3097.45  3097.82
eigval :     3098.30  3099.94  3101.04

   temp. (K)  partition function   enthalpy   heat capacity  entropy
                                   cal/mol     cal/K/mol   cal/K/mol   J/K/mol
 298.15  VIB  0.145E+22            26973.598    172.986    167.295
         ROT  0.180E+09              888.752      2.981     40.753
         INT  0.261E+30            27862.351    175.967    208.048
         TR   0.200E+29             1481.254      4.968     45.715
         TOT                       29343.6047   180.9347   253.7627  1061.7433

       T/K    H(0)-H(T)+PV         H(T)/Eh          T*S/Eh         G(T)/Eh
   ------------------------------------------------------------------------
    298.15    0.467620E-01    0.772930E+00    0.120571E+00    0.652359E+00
   ------------------------------------------------------------------------

         :::::::::::::::::::::::::::::::::::::::::::::::::::::
         ::                  THERMODYNAMIC                  ::
         :::::::::::::::::::::::::::::::::::::::::::::::::::::
         :: total free energy        -147.251799166407 Eh   ::
         ::.................................................::
         :: total energy             -147.904157985961 Eh   ::
         :: zero point energy           0.726167677011 Eh   ::
         :: G(RRHO) w/o ZPVE           -0.073808857458 Eh   ::
         :: G(RRHO) contrib.            0.652358819554 Eh   ::
         :::::::::::::::::::::::::::::::::::::::::::::::::::::

           -------------------------------------------------
          | TOTAL ENERGY             -147.904157985961 Eh   |
          | TOTAL ENTHALPY           -147.131228298298 Eh   |
          | TOTAL FREE ENERGY        -147.251799166407 Eh   |
          | GRADIENT NORM               0.000048029149 Eh/α |
          | HOMO-LUMO GAP               0.548908583069 eV   |
           -------------------------------------------------

 * finished run on 2025/08/22 at 08:09:06.982
