   * xtb version 6.7.1 (edcfbbe) compiled by 'albert@albert-system' on 2024-07-22

   ID    Z sym.   atoms
    1    6 C      1-9, 11, 12, 14, 16-32, 34, 36-52, 54-59
    2    7 N      10, 15, 33, 35, 53
    3    9 F      13
    4    1 H      60-101

          program call               : xtb data2507/gas/3DMACIPN/3DMACIPN_gas_S0_crest.xyz --gfn 2 --ohess vtight --parallel 40 --molden --ceasefiles --namespace data2507/gas/3DMACIPN/3DMACIPN_gas_S0_finalOpt
          :  Hamiltonian                  GFN2-xTB          :
 * total energy  :  -154.2941711 Eh     change       -0.3778410E-08 Eh
 * total energy  :  -154.2941723 Eh     change       -0.1231760E-05 Eh
 * total energy  :  -154.2941745 Eh     change       -0.2201084E-05 Eh
 * total energy  :  -154.2941764 Eh     change       -0.1841582E-05 Eh
 * total energy  :  -154.2941773 Eh     change       -0.9695206E-06 Eh
 * total energy  :  -154.2941784 Eh     change       -0.1121074E-05 Eh
 * total energy  :  -154.2941803 Eh     change       -0.1907476E-05 Eh
 * total energy  :  -154.2941822 Eh     change       -0.1834595E-05 Eh
 * total energy  :  -154.2941839 Eh     change       -0.1722150E-05 Eh
 * total energy  :  -154.2941855 Eh     change       -0.1643120E-05 Eh
 * total energy  :  -154.2942011 Eh     change       -0.3130017E-06 Eh
 * total energy  :  -154.2942014 Eh     change       -0.3599840E-06 Eh
 * total energy  :  -154.2942018 Eh     change       -0.3447766E-06 Eh
 * total energy  :  -154.2942020 Eh     change       -0.2443321E-06 Eh
 * total energy  :  -154.2942022 Eh     change       -0.1599115E-06 Eh
 * total energy  :  -154.2942023 Eh     change       -0.1484520E-06 Eh
 * total energy  :  -154.2942024 Eh     change       -0.1179650E-06 Eh
 * total energy  :  -154.2942024 Eh     change        0.3872628E-08 Eh
 * total energy  :  -154.2942025 Eh     change       -0.3256218E-07 Eh
   *** GEOMETRY OPTIMIZATION CONVERGED AFTER 45 ITERATIONS ***

 final structure:
================
101
 xtb: 6.7.1 (edcfbbe)
C            4.47429946250185        5.12410664910463        0.21722608124163
C            4.33753868795509        3.66167403802730        0.67854601723701
C            5.61886722895741        3.19913858395940        1.39588067221350
C            3.18294041156603        3.56110055854025        1.65502616331829
C            3.22190314743482        4.30357140648376        2.82836256725222
C            2.23464062392266        4.21181337219039        3.79039507420143
C            1.18903373525705        3.32795330004274        3.60081144848430
C            1.12677077927930        2.57968639307606        2.44433345383039
C            2.09370778637405        2.71211158765251        1.44585796969797
N            1.99587901028092        1.96153245269272        0.27216640289223
C            0.93464106255833        1.06226232071550        0.11516648679221
C           -0.38414389452143        1.50986763354664        0.00856577497108
F           -0.62617439982547        2.83158452694895        0.04923171714952
C           -1.45342223211248        0.63191676056780       -0.13303924897309
N           -2.77960252022069        1.08156416484413       -0.22382434019768
C           -3.65176005287532        0.68857571524734        0.79138756728568
C           -3.12399548690363        0.26130216404306        2.01200430530166
C           -3.94918188631973       -0.16253530924067        3.03171895560288
C           -5.32000971871348       -0.14776251713361        2.85156866074673
C           -5.84352854553264        0.32825055962601        1.66442019766365
C           -5.03386631853654        0.76568048209211        0.62445117817875
C           -5.65892136870753        1.30270115298916       -0.64624609896985
C           -6.60392070951297        2.46124968580750       -0.28043544894934
C           -6.43873592709307        0.15835790142560       -1.31909445633101
C           -4.61583271385381        1.80593604095207       -1.62586068330444
C           -5.02893130102456        2.38847646592873       -2.81717390922408
C           -4.13172021526933        2.81586538620816       -3.77727855946064
C           -2.77767709019295        2.63947330918602       -3.56337516764830
C           -2.34002240505396        2.05880495794356       -2.39142300381226
C           -3.24394807004244        1.65943490316861       -1.40643785910869
C           -1.18975199529742       -0.75093688537045       -0.19007159701520
C           -2.26791579743172       -1.63118542102443       -0.44042780695306
N           -3.14743908073457       -2.32337396455427       -0.68537490385563
C            0.11605785239842       -1.23866390381020       -0.07064148778972
N            0.40517686238631       -2.60881294376956       -0.12473720678298
C            0.08804643707193       -3.44533171023370        0.95032222886965
C           -0.82441901945665       -3.03100715757809        1.92089945406501
C           -1.14875179122325       -3.84414198019652        2.98656501445532
C           -0.54997955488836       -5.08334180596984        3.11116137958386
C            0.37730927567316       -5.48177302512448        2.16783619488354
C            0.71553946824654       -4.68735177844308        1.07937097088164
C            1.78445484637537       -5.17117213399819        0.11732893772568
C            1.39633899962654       -6.56709089672410       -0.40230624063382
C            3.12539333413710       -5.22718849611850        0.87151631646138
C            1.94549396299296       -4.24007918187384       -1.06563105163706
C            2.80745708165781       -4.57235121661368       -2.10273355370415
C            2.96207414486397       -3.76571828893453       -3.21394630378568
C            2.21286716897454       -2.60857941432533       -3.32355796059352
C            1.35852167614874       -2.25235915807635       -2.30253986848494
C            1.25210545362816       -3.03449252104024       -1.15060988145941
C            1.16887964692393       -0.32295959621765        0.08673568628090
C            2.48425975869362       -0.80839666896880        0.26917421655022
N            3.53979042835740       -1.20936322435699        0.46447665598387
C            2.98367970010603        2.00857879935276       -0.71414584859945
C            2.80016227621949        1.31497784344361       -1.91234446713889
C            3.76715740753684        1.32243415239029       -2.89454280791863
C            4.92981773986448        2.04605604273896       -2.70611478130428
C            5.08598868433101        2.78171046465981       -1.54739983491710
C            4.12681778829613        2.79052593131133       -0.54263533378478
H            4.65273031509194        5.78270275987211        1.06237379614328
H            3.55933736968883        5.44227142322030       -0.27901037771961
H            5.29965999288550        5.23673268776904       -0.47988250079658
H            5.51714727697765        2.15820645304688        1.69711115579661
H            5.80602476420903        3.79777626236884        2.28293518602267
H            6.48071197300714        3.28311918910062        0.73992500115609
H            4.05046865200734        4.97249821835784        3.00310200513491
H            2.29248745890170        4.80987463931964        4.68663012845206
H            0.42228259655851        3.21263876793701        4.35174187647082
H            0.31603953368486        1.87639030384322        2.33051093968679
H           -2.05467107781396        0.27376854182073        2.17119967964698
H           -3.51927052004456       -0.49801841733971        3.96347826481365
H           -5.97820736953635       -0.49003302227649        3.63507114686689
H           -6.91586461036847        0.35057815015710        1.54656569612159
H           -7.36681896550148        2.13567632237782        0.42053972956989
H           -7.10410809450977        2.85029859395390       -1.16231870262586
H           -6.03746875729508        3.26939332697904        0.17862913524823
H           -5.76544960190893       -0.66910264304212       -1.53542688083359
H           -7.22762609138306       -0.20427870966273       -0.66571271639384
H           -6.88850919826681        0.49112046083794       -2.25069643530021
H           -6.08398871866410        2.50522051967393       -3.01112570671637
H           -4.48858632713369        3.26829751734246       -4.68963499235230
H           -2.05825426121594        2.94633376846394       -4.30738854273911
H           -1.27990997574803        1.91289348733315       -2.25289882598672
H           -1.29405850096294       -2.06276979864622        1.85812735897248
H           -1.86610638567029       -3.50184065593926        3.71667696083301
H           -0.79201242226017       -5.72962896862147        3.94065325289064
H            0.85873613112244       -6.43915754772004        2.29330462765749
H            2.13211067977169       -6.93872102613244       -1.10909404500023
H            1.32601050740943       -7.28234373830509        0.41157001737735
H            0.43142636644046       -6.51897504302758       -0.90341479383635
H            3.04785209955948       -5.85891978523375        1.75247510825819
H            3.90828553303476       -5.62243899118674        0.22987050461060
H            3.41423148278783       -4.22605829896780        1.18638956780731
H            3.38448686682164       -5.48205543600361       -2.04199093789986
H            3.64961672542318       -4.04801342233186       -3.99615990771472
H            2.28739863805364       -1.98571624989050       -4.20194332283248
H            0.75157859135977       -1.36386412207772       -2.40465976078612
H            1.88715152848403        0.76823440616857       -2.09112775824873
H            3.60561316628551        0.76646206544372       -3.80524331737461
H            5.70027094950867        2.05309547064827       -3.46141018522969
H            5.98491875136417        3.36598900845127       -1.42500895051318

          :  Hamiltonian                  GFN2-xTB          :
         :: gradient norm              0.000100770246 Eh/a0 ::
         :: HOMO-LUMO gap              1.393547607155 eV    ::
         :: SCC energy              -157.049421065056 Eh    ::
         :: -> dispersion             -0.161045758598 Eh    ::
         :: repulsion energy           2.755218599059 Eh    ::

    * Orbital Energies and Occupations

         #    Occupation            Energy/Eh            Energy/eV
      -------------------------------------------------------------
         1        2.0000           -0.8420697             -22.9139
       ...           ...                  ...                  ...
       131        2.0000           -0.4138941             -11.2626
       132        2.0000           -0.4122095             -11.2168
       133        2.0000           -0.4109069             -11.1813
       134        2.0000           -0.4105105             -11.1706
       135        2.0000           -0.4056201             -11.0375
       136        2.0000           -0.4048618             -11.0169
       137        2.0000           -0.4044897             -11.0067
       138        2.0000           -0.4003159             -10.8931
       139        2.0000           -0.3993123             -10.8658
       140        2.0000           -0.3990584             -10.8589
       141        2.0000           -0.3620388              -9.8516
       142        2.0000           -0.3608481              -9.8192
       143        2.0000           -0.3580302              -9.7425 (HOMO)
       144                         -0.3068183              -8.3489 (LUMO)
       145                         -0.2898751              -7.8879
       146                         -0.2345524              -6.3825
       147                         -0.2326530              -6.3308
       148                         -0.2319096              -6.3106
       149                         -0.2292074              -6.2370
       150                         -0.2281457              -6.2082
       151                         -0.2270989              -6.1797
       152                         -0.2266312              -6.1669
       153                         -0.2262161              -6.1557
       154                         -0.2253243              -6.1314
       ...                                ...                  ...
       278                          1.1555976              31.4454
      -------------------------------------------------------------
                  HL-Gap            0.0512119 Eh            1.3935 eV

     #   Z          covCN         q      C6AA      α(0)
     1   6 C        3.761    -0.105    22.543     6.768
     2   6 C        3.910     0.023    20.134     6.378
     3   6 C        3.762    -0.105    22.549     6.769
     4   6 C        2.980    -0.008    28.212     8.713
     5   6 C        2.929    -0.034    28.842     8.807
     6   6 C        2.918    -0.040    28.985     8.829
     7   6 C        2.920    -0.030    28.755     8.794
     8   6 C        2.925    -0.049    29.221     8.865
     9   6 C        2.926     0.062    26.620     8.461
    10   7 N        2.752    -0.058    22.366     7.024
    11   6 C        2.929     0.066    26.523     8.446
    12   6 C        2.781     0.140    24.930     8.178
    13   9 F        0.787    -0.200    11.240     3.960
    14   6 C        2.934     0.066    26.511     8.444
    15   7 N        2.753    -0.064    22.481     7.042
    16   6 C        2.935     0.059    26.676     8.471
    17   6 C        2.925    -0.052    29.285     8.875
    18   6 C        2.920    -0.030    28.756     8.794
    19   6 C        2.918    -0.039    28.963     8.825
    20   6 C        2.929    -0.032    28.805     8.802
    21   6 C        2.980    -0.006    28.164     8.705
    22   6 C        3.909     0.023    20.133     6.378
    23   6 C        3.761    -0.105    22.552     6.770
    24   6 C        3.762    -0.105    22.552     6.769
    25   6 C        2.980    -0.008    28.224     8.715
    26   6 C        2.929    -0.034    28.844     8.808
    27   6 C        2.918    -0.040    29.002     8.831
    28   6 C        2.920    -0.031    28.772     8.796
    29   6 C        2.924    -0.051    29.275     8.873
    30   6 C        2.926     0.061    26.627     8.462
    31   6 C        2.976    -0.016    28.400     8.742
    32   6 C        1.911     0.126    28.023     8.549
    33   7 N        0.911    -0.220    25.807     7.347
    34   6 C        2.939     0.082    26.178     8.391
    35   7 N        2.753    -0.075    22.687     7.074
    36   6 C        2.924     0.059    26.671     8.469
    37   6 C        2.924    -0.054    29.341     8.883
    38   6 C        2.921    -0.030    28.744     8.792
    39   6 C        2.917    -0.040    28.989     8.829
    40   6 C        2.929    -0.034    28.844     8.808
    41   6 C        2.980    -0.008    28.210     8.712
    42   6 C        3.909     0.023    20.135     6.378
    43   6 C        3.761    -0.106    22.568     6.772
    44   6 C        3.762    -0.105    22.547     6.769
    45   6 C        2.980    -0.005    28.152     8.703
    46   6 C        2.929    -0.032    28.802     8.801
    47   6 C        2.919    -0.038    28.949     8.823
    48   6 C        2.920    -0.030    28.742     8.792
    49   6 C        2.926    -0.051    29.269     8.872
    50   6 C        2.936     0.058    26.688     8.473
    51   6 C        2.978    -0.016    28.402     8.742
    52   6 C        1.912     0.125    28.028     8.550
    53   7 N        0.911    -0.223    25.871     7.356
    54   6 C        2.929     0.059    26.681     8.471
    55   6 C        2.925    -0.052    29.293     8.876
    56   6 C        2.920    -0.029    28.732     8.790
    57   6 C        2.918    -0.039    28.959     8.825
    58   6 C        2.929    -0.033    28.823     8.804
    59   6 C        2.981    -0.007    28.185     8.709
    60   1 H        0.925     0.042     2.422     2.434
    61   1 H        0.925     0.035     2.518     2.482
    62   1 H        0.925     0.041     2.429     2.437
    63   1 H        0.925     0.037     2.490     2.468
    64   1 H        0.925     0.042     2.429     2.437
    65   1 H        0.925     0.042     2.416     2.431
    66   1 H        0.926     0.036     2.509     2.477
    67   1 H        0.926     0.032     2.557     2.500
    68   1 H        0.926     0.033     2.543     2.494
    69   1 H        0.926     0.018     2.765     2.600
    70   1 H        0.926     0.011     2.868     2.649
    71   1 H        0.926     0.032     2.561     2.503
    72   1 H        0.926     0.033     2.543     2.494
    73   1 H        0.926     0.037     2.489     2.467
    74   1 H        0.925     0.041     2.432     2.439
    75   1 H        0.925     0.042     2.426     2.436
    76   1 H        0.925     0.034     2.528     2.486
    77   1 H        0.925     0.041     2.433     2.439
    78   1 H        0.925     0.042     2.416     2.431
    79   1 H        0.925     0.041     2.436     2.441
    80   1 H        0.926     0.035     2.512     2.478
    81   1 H        0.926     0.031     2.568     2.506
    82   1 H        0.926     0.032     2.558     2.501
    83   1 H        0.926     0.020     2.729     2.583
    84   1 H        0.926     0.021     2.717     2.578
    85   1 H        0.926     0.033     2.539     2.492
    86   1 H        0.926     0.033     2.545     2.495
    87   1 H        0.926     0.037     2.491     2.468
    88   1 H        0.925     0.042     2.423     2.434
    89   1 H        0.925     0.042     2.418     2.432
    90   1 H        0.925     0.035     2.514     2.480
    91   1 H        0.925     0.041     2.434     2.440
    92   1 H        0.925     0.043     2.405     2.425
    93   1 H        0.925     0.041     2.439     2.442
    94   1 H        0.926     0.038     2.477     2.461
    95   1 H        0.926     0.034     2.528     2.486
    96   1 H        0.926     0.032     2.552     2.498
    97   1 H        0.926     0.013     2.849     2.639
    98   1 H        0.926     0.016     2.800     2.617
    99   1 H        0.926     0.033     2.543     2.494
   100   1 H        0.926     0.034     2.536     2.490
   101   1 H        0.926     0.037     2.492     2.469

molecular dipole:
                 x           y           z       tot (Debye)
 q only:        0.233       0.121       0.073
   full:        0.169       0.524       0.088       1.417

 projected vibrational frequencies (cm⁻¹)
eigval :       -0.00    -0.00     0.00     0.00     0.00     0.00
eigval :        7.26    10.07    13.12    14.56    16.17    19.20
eigval :       22.88    39.57    41.12    48.93    52.28    55.48
eigval :       83.99    88.95    93.19    96.49    99.99   103.85
eigval :      108.02   110.80   110.99   119.18   123.89   127.40
eigval :      129.86   131.65   140.38   146.95   156.97   183.20
eigval :      190.39   198.13   198.73   205.72   217.10   219.71
eigval :      220.69   225.30   235.06   237.73   239.20   268.40
eigval :      273.39   300.01   304.16   305.48   309.23   316.10
eigval :      318.30   332.33   335.29   339.20   344.92   347.19
eigval :      350.20   351.86   359.25   366.94   376.40   377.83
eigval :      380.89   386.08   407.39   407.94   411.94   430.94
eigval :      451.73   452.71   453.80   478.11   484.25   486.68
eigval :      487.60   494.92   505.85   510.66   513.50   514.36
eigval :      514.63   527.85   535.55   547.39   548.52   548.80
eigval :      551.95   553.70   569.21   577.08   586.38   588.43
eigval :      589.83   601.70   608.06   646.05   647.88   660.59
eigval :      669.36   672.00   682.54   683.21   683.91   693.94
eigval :      694.67   695.62   696.29   708.83   722.98   753.65
eigval :      757.05   772.16   773.31   775.52   776.13   780.43
eigval :      781.14   825.42   825.59   826.54   861.53   864.61
eigval :      865.70   867.10   871.16   874.55   875.89   906.19
eigval :      910.02   910.34   911.34   912.70   913.44   914.22
eigval :      914.63   915.19   920.54   920.73   921.92   922.14
eigval :      923.09   923.27   938.91   939.51   940.31   950.19
eigval :      959.15   960.03   960.05   969.47  1015.45  1015.64
eigval :     1015.69  1062.48  1065.85  1077.27  1077.47  1077.75
eigval :     1083.54  1114.30  1114.74  1117.45  1120.47  1120.62
eigval :     1121.28  1140.45  1141.65  1141.89  1143.08  1143.63
eigval :     1160.83  1161.42  1161.56  1177.62  1181.56  1182.72
eigval :     1184.35  1185.82  1190.31  1190.36  1190.78  1191.82
eigval :     1207.42  1236.84  1237.40  1246.93  1247.86  1250.22
eigval :     1253.33  1264.25  1265.31  1270.42  1278.25  1280.47
eigval :     1284.46  1290.59  1294.91  1295.28  1296.23  1320.34
eigval :     1321.73  1323.90  1329.36  1331.49  1332.54  1333.73
eigval :     1334.76  1335.52  1384.54  1403.93  1404.02  1404.17
eigval :     1407.82  1420.42  1421.65  1421.93  1422.45  1435.92
eigval :     1436.18  1436.62  1438.71  1439.24  1440.37  1477.10
eigval :     1477.84  1479.77  1487.14  1487.95  1488.47  1488.69
eigval :     1489.08  1489.59  1489.97  1491.92  1493.73  1497.32
eigval :     1499.53  1501.05  1501.75  1503.68  1504.00  1504.18
eigval :     1507.13  1579.53  1579.71  1579.92  1593.48  1593.58
eigval :     1593.79  1594.25  1594.52  1594.56  1601.67  1601.81
eigval :     1602.94  2366.53  2368.52  3029.20  3029.42  3030.49
eigval :     3031.68  3032.10  3032.30  3039.83  3040.44  3042.32
eigval :     3045.24  3046.41  3047.13  3047.69  3048.01  3051.01
eigval :     3055.63  3058.03  3059.97  3064.21  3067.39  3082.29
eigval :     3082.57  3084.64  3084.69  3085.15  3085.52  3086.74
eigval :     3087.86  3088.40  3090.81  3091.45  3091.75  3094.04
eigval :     3095.78  3096.52  3100.97  3101.60  3102.02  3102.35
eigval :     3102.57  3104.22  3112.09

   temp. (K)  partition function   enthalpy   heat capacity  entropy
                                   cal/mol     cal/K/mol   cal/K/mol   J/K/mol
 298.15  VIB  0.220E+25            30847.628    189.640    193.045
         ROT  0.986E+08              888.752      2.981     39.559
         INT  0.217E+33            31736.380    192.621    232.603
         TR   0.206E+29             1481.254      4.968     45.774
         TOT                       33217.6343   197.5889   278.3768  1164.7287

       T/K    H(0)-H(T)+PV         H(T)/Eh          T*S/Eh         G(T)/Eh
   ------------------------------------------------------------------------
    298.15    0.529357E-01    0.843506E+00    0.132266E+00    0.711241E+00
   ------------------------------------------------------------------------

         :::::::::::::::::::::::::::::::::::::::::::::::::::::
         ::                  THERMODYNAMIC                  ::
         :::::::::::::::::::::::::::::::::::::::::::::::::::::
         :: total free energy        -153.582961924412 Eh   ::
         ::.................................................::
         :: total energy             -154.294202465997 Eh   ::
         :: zero point energy           0.790570691772 Eh   ::
         :: G(RRHO) w/o ZPVE           -0.079330150187 Eh   ::
         :: G(RRHO) contrib.            0.711240541585 Eh   ::
         :::::::::::::::::::::::::::::::::::::::::::::::::::::

           -------------------------------------------------
          | TOTAL ENERGY             -154.294202465997 Eh   |
          | TOTAL ENTHALPY           -153.450696104483 Eh   |
          | TOTAL FREE ENERGY        -153.582961924412 Eh   |
          | GRADIENT NORM               0.000100511350 Eh/α |
          | HOMO-LUMO GAP               1.393546650493 eV   |
           -------------------------------------------------

 * finished run on 2025/09/10 at 16:46:47.341
