   * xtb version 6.7.1 (edcfbbe) compiled by 'albert@albert-system' on 2024-07-22

   ID    Z sym.   atoms
    1    6 C      1-9, 11, 12, 14, 16-32, 34, 36-52, 54-59
    2    7 N      10, 15, 33, 35, 53
    3    9 F      13
    4    1 H      60-101

          program call               : xtb data2507/gas/3DMACIPN/3DMACIPN_gas_T1_crest.xyz --gfn 2 --spinpol --tblite --uhf 2 --ohess vtight --parallel 40 --molden --ceasefiles --namespace data2507/gas/3DMACIPN/3DMACIPN_gas_T1_finalOpt
 * total energy  :  -154.2343310 Eh     change       -0.9074341E-08 Eh
 * total energy  :  -154.2343315 Eh     change       -0.5512275E-06 Eh
 * total energy  :  -154.2343305 Eh     change        0.1064961E-05 Eh
 * total energy  :  -154.2343327 Eh     change       -0.2287059E-05 Eh
 * total energy  :  -154.2343328 Eh     change       -0.3609100E-07 Eh
 * total energy  :  -154.2343331 Eh     change       -0.3432325E-06 Eh
 * total energy  :  -154.2343334 Eh     change       -0.2362927E-06 Eh
 * total energy  :  -154.2343338 Eh     change       -0.4846144E-06 Eh
 * total energy  :  -154.2343347 Eh     change       -0.8125227E-06 Eh
 * total energy  :  -154.2343352 Eh     change       -0.5625182E-06 Eh
 * total energy  :  -154.2343493 Eh     change       -0.4764982E-06 Eh
 * total energy  :  -154.2343495 Eh     change       -0.2169298E-06 Eh
 * total energy  :  -154.2343504 Eh     change       -0.8554667E-06 Eh
 * total energy  :  -154.2343504 Eh     change       -0.1952068E-07 Eh
 * total energy  :  -154.2343509 Eh     change       -0.5141148E-06 Eh
 * total energy  :  -154.2343513 Eh     change       -0.3947188E-06 Eh
 * total energy  :  -154.2343516 Eh     change       -0.2805266E-06 Eh
 * total energy  :  -154.2343518 Eh     change       -0.1811115E-06 Eh
 * total energy  :  -154.2343519 Eh     change       -0.9589417E-07 Eh
   *** GEOMETRY OPTIMIZATION CONVERGED AFTER 32 ITERATIONS ***

 final structure:
================
101
 xtb: 6.7.1 (edcfbbe)
C            5.05240339158362        4.70206028863440       -0.40828403593983
C            4.84191456268140        3.19572774749856       -0.16606712970235
C            6.19458050280923        2.48917619468227        0.04646423496308
C            4.00939139444051        3.01125721546062        1.08437236318475
C            4.45809885888469        3.52495820740036        2.29297625521256
C            3.74824763265012        3.36072678592811        3.46809766717158
C            2.55650574047077        2.65424690064106        3.45229117204517
C            2.08879725872826        2.13234198811659        2.26826463998653
C            2.79710400591126        2.30776426794629        1.07283751589265
N            2.29084527586245        1.78618606329743       -0.10038229867287
C            1.12309722801069        0.98742241854076       -0.05167252111560
C           -0.15042410503633        1.52574493841812       -0.10947007099023
F           -0.28099956624572        2.86963838648089       -0.21307028824123
C           -1.29611324695614        0.75140956383719       -0.06079716457886
N           -2.59716715604204        1.30666221444088       -0.11771450801582
C           -3.20815325097891        1.70632950669135        1.05356153932603
C           -2.48375930145626        1.68431191837084        2.25198861500984
C           -3.05801631502022        2.08974449468483        3.43474820459193
C           -4.37408298729129        2.52268889364990        3.44612603071629
C           -5.09707702118773        2.53512524862652        2.26761249482505
C           -4.54281184689008        2.13438686932406        1.06006673407319
C           -5.38971502605455        2.13979141126813       -0.19429118203439
C           -5.92242583505379        3.56526216401161       -0.43141797472833
C           -6.55646835539658        1.15391146061979        0.00772051403690
C           -4.60471536802589        1.70190930368655       -1.41176370386235
C           -5.22043063853701        1.66972699839958       -2.65497227538961
C           -4.54916248326416        1.26737301050186       -3.79480734121710
C           -3.22036490960535        0.88528624933631       -3.70565356331252
C           -2.58557777652118        0.90494205193109       -2.48516389345648
C           -3.26370405040295        1.30430438677916       -1.32646765323630
C           -1.15877901681280       -0.68938125572143        0.04527825014459
C           -2.29467268302779       -1.49297001341233        0.08870016799980
N           -3.24395779630786       -2.14970426775010        0.12564137859966
C            0.11830654370421       -1.24023409168356        0.09836510274134
N            0.25971069405175       -2.65164127893035        0.18925597269189
C            0.31566902096967       -3.23458913307712        1.43709988830817
C            0.20294722237538       -2.43258711994430        2.57932279680872
C            0.25510185590249       -2.98677735241508        3.83794103284206
C            0.42231690015070       -4.35472500621860        3.98044958102418
C            0.53460159807008       -5.14914954433229        2.85441445172862
C            0.48417136531614       -4.61883761399279        1.57305238937826
C            0.61604997263262       -5.53247288049094        0.37352786956138
C           -0.52159110775672       -6.56993695978983        0.41875261851480
C            1.98801434651610       -6.22994032426560        0.43967294593414
C            0.52585323152333       -4.77410960336451       -0.93326294851202
C            0.61811489818527       -5.45868170817995       -2.13691994911618
C            0.54340481999000       -4.81036852592278       -3.35574340173022
C            0.37112307110001       -3.43608149494464       -3.38903408662842
C            0.27798545360795       -2.73102952930425       -2.21095364521665
C            0.35445750309584       -3.38425680558912       -0.97488837431976
C            1.26526336162189       -0.45264765506179        0.05552191909942
C            2.53299650151872       -1.02520663090684        0.10954153310485
N            3.58746768400397       -1.49407081007933        0.15545609218997
C            2.95185977148098        1.91835676379860       -1.30492347332171
C            2.38351505882025        1.37677824953908       -2.46494635317138
C            3.01659867603434        1.48718698656123       -3.68149558276559
C            4.23305369952606        2.14504695567744       -3.76552285897218
C            4.79465693702583        2.68720948509305       -2.62431106224102
C            4.17779487760619        2.59254089922189       -1.38485650870450
H            5.55226183451125        5.16485731841588        0.43765199270813
H            4.09082017263988        5.19168624014102       -0.55036593798065
H            5.65851971197661        4.87146182652768       -1.29348543282647
H            6.70880157578173        2.89189459809891        0.91467966834240
H            6.83610398211486        2.61480295219857       -0.82124639251338
H            6.03183772866828        1.42468007706624        0.20384024409562
H            5.39076519453689        4.06700164904592        2.32619978254429
H            4.12554054697988        3.77547201114358        4.39014941998572
H            1.99420956707305        2.50934345691843        4.36224282011337
H            1.16400363978750        1.57689247531355        2.25947840315661
H           -1.46052720309196        1.34254208729918        2.24643822708923
H           -2.48161090258319        2.06680918030417        4.34712617304878
H           -4.83616284194547        2.84274491024151        4.36731717031279
H           -6.12468856273086        2.86359545033788        2.29734669914044
H           -6.51521595431583        3.90353792431662        0.41343417647434
H           -6.54676811781496        3.60324676447796       -1.31931667593664
H           -5.09005589062222        4.25348457354184       -0.56594130616504
H           -7.20611841349668        1.14146173870495       -0.86296236202165
H           -6.16586911875373        0.14974939427926        0.16105076004929
H           -7.14977450809004        1.42987768467823        0.87505569083986
H           -6.25557782956497        1.96209404517295       -2.74291948110905
H           -5.05941648272543        1.25206652922207       -4.74556266149258
H           -2.68094861096386        0.57173649196975       -4.58647599688463
H           -1.54954083132147        0.61138609643920       -2.41837963485535
H            0.07251322399523       -1.36716685620909        2.47226231180390
H            0.16578476916201       -2.35320602790663        4.70713190637985
H            0.46550225959177       -4.80014769437803        4.96238824874164
H            0.66603039418773       -6.21237734195232        2.98452506014120
H           -0.45294015793205       -7.25677705033114       -0.41991730391592
H           -0.48138284873872       -7.14888020663486        1.33691255355590
H           -1.48345700329333       -6.06306097582944        0.37206718216500
H            2.11734038596477       -6.90904835476949       -0.39825617914798
H            2.78082016706745       -5.48517807371982        0.40609694045097
H            2.08842997389348       -6.79904986880014        1.35949041626350
H            0.75311239866423       -6.52936893600519       -2.12995671924970
H            0.61892832816310       -5.37366221271218       -4.27304921987724
H            0.30968387213120       -2.91524334650730       -4.33238262522269
H            0.14299171864343       -1.66135787217056       -2.24133728528312
H            1.43459780056146        0.86732380004396       -2.40244624287649
H            2.56329589075155        1.06048301509021       -4.56328542402548
H            4.74104716209819        2.23538992755536       -4.71331535329550
H            5.74338274344903        3.19479618454972       -2.70819467713945

 projected vibrational frequencies (cm⁻¹)
eigval :       -0.00    -0.00    -0.00     0.00     0.00     0.00
eigval :       -3.43     3.89     6.49     7.21     9.18    10.01
eigval :       15.74    31.52    37.45    38.50    43.63    52.73
eigval :       74.39    75.88    88.19    90.56    90.90    93.17
eigval :       94.17    94.64    95.06   119.43   119.94   121.76
eigval :      134.13   134.20   138.08   143.81   147.58   169.05
eigval :      197.66   198.10   198.78   200.84   217.27   217.79
eigval :      218.22   219.92   234.70   235.11   237.11   258.98
eigval :      266.71   303.41   304.24   308.38   309.81   323.05
eigval :      326.97   326.99   327.78   327.96   339.84   344.69
eigval :      346.95   355.19   359.68   360.26   380.21   380.69
eigval :      385.01   396.84   405.00   409.48   418.35   427.92
eigval :      446.23   448.38   449.80   455.69   471.37   482.76
eigval :      494.38   498.86   501.98   506.47   506.64   506.80
eigval :      506.83   525.85   526.02   528.34   533.67   543.10
eigval :      543.81   544.26   550.10   550.55   583.51   583.86
eigval :      586.65   600.20   607.39   609.40   613.09   648.66
eigval :      651.55   667.98   671.43   686.05   687.34   687.38
eigval :      698.70   700.12   700.72   707.18   714.15   752.07
eigval :      755.53   766.79   767.98   769.51   771.34   771.89
eigval :      773.04   825.20   825.51   826.11   857.13   858.01
eigval :      861.90   863.50   864.19   865.06   868.96   907.75
eigval :      908.29   910.92   911.67   912.22   912.54   912.68
eigval :      912.98   913.40   919.53   919.74   920.04   920.21
eigval :      920.26   920.47   936.78   937.64   938.36   943.59
eigval :      959.44   959.58   959.70   959.87  1014.27  1014.28
eigval :     1014.63  1059.03  1061.63  1076.21  1076.56  1077.06
eigval :     1083.74  1105.28  1106.72  1109.60  1113.09  1113.81
eigval :     1114.72  1128.94  1129.26  1137.99  1139.00  1140.58
eigval :     1152.63  1152.69  1153.32  1172.29  1177.85  1178.72
eigval :     1181.37  1182.72  1183.34  1183.91  1186.12  1186.56
eigval :     1208.07  1219.92  1234.74  1234.95  1240.56  1242.20
eigval :     1242.78  1245.58  1252.57  1255.32  1261.40  1276.09
eigval :     1280.20  1295.44  1295.51  1295.62  1300.02  1313.70
eigval :     1314.63  1324.01  1332.38  1332.57  1334.37  1336.36
eigval :     1338.23  1338.36  1345.71  1368.50  1401.12  1401.44
eigval :     1401.47  1417.77  1418.08  1418.43  1418.81  1423.11
eigval :     1424.02  1427.71  1432.15  1433.85  1434.94  1438.56
eigval :     1459.98  1460.21  1461.28  1463.08  1480.80  1481.63
eigval :     1485.64  1486.39  1486.51  1486.53  1486.60  1487.00
eigval :     1487.30  1496.29  1497.40  1497.48  1500.61  1500.78
eigval :     1500.86  1560.00  1560.24  1561.18  1574.15  1574.81
eigval :     1576.02  1582.56  1582.58  1582.92  1593.12  1593.53
eigval :     1595.68  2265.16  2322.92  3029.99  3030.21  3032.86
eigval :     3034.06  3034.22  3034.31  3042.23  3042.33  3043.42
eigval :     3045.78  3045.90  3046.00  3049.85  3050.05  3051.33
eigval :     3055.18  3055.62  3055.87  3083.30  3083.58  3083.65
eigval :     3083.81  3084.69  3084.94  3087.78  3087.96  3088.22
eigval :     3088.35  3089.51  3089.65  3096.49  3096.79  3097.25
eigval :     3097.67  3098.89  3099.51  3100.92  3101.93  3102.14
eigval :     3102.71  3104.90  3105.42

   temp. (K)  partition function   enthalpy   heat capacity  entropy
                                   cal/mol     cal/K/mol   cal/K/mol   J/K/mol
 298.15  VIB  0.139E+28            31292.456    189.939    200.761
         ROT  0.100E+09              888.752      2.981     39.594
         INT  0.140E+36            32181.208    192.920    240.355
         TR   0.206E+29             1481.254      4.968     45.774
         TOT                       33662.4619   197.8885   286.1289  1197.1632

       T/K    H(0)-H(T)+PV         H(T)/Eh          T*S/Eh         G(T)/Eh
   ------------------------------------------------------------------------
    298.15    0.536445E-01    0.840644E+00    0.135949E+00    0.704695E+00
   ------------------------------------------------------------------------

         :::::::::::::::::::::::::::::::::::::::::::::::::::::
         ::                  THERMODYNAMIC                  ::
         :::::::::::::::::::::::::::::::::::::::::::::::::::::
         :: total free energy        -153.529656744083 Eh   ::
         ::.................................................::
         :: total energy             -154.234351893406 Eh   ::
         :: zero point energy           0.786999664773 Eh   ::
         :: G(RRHO) w/o ZPVE           -0.082304515450 Eh   ::
         :: G(RRHO) contrib.            0.704695149323 Eh   ::
         :::::::::::::::::::::::::::::::::::::::::::::::::::::

           -------------------------------------------------
          | TOTAL ENERGY             -154.234351893406 Eh   |
          | TOTAL ENTHALPY           -153.393707681001 Eh   |
          | TOTAL FREE ENERGY        -153.529656744083 Eh   |
          | GRADIENT NORM               0.000065417657 Eh/α |
           -------------------------------------------------

 * finished run on 2025/09/10 at 17:03:54.107
