   * xtb version 6.7.1 (edcfbbe) compiled by 'albert@albert-system' on 2024-07-22

   ID    Z sym.   atoms
    1    6 C      1-9, 11, 12, 14, 16-32, 34, 36-52, 54-59
    2    7 N      10, 15, 33, 35, 53
    3    9 F      13
    4    1 H      60-101

          program call               : xtb data2507/gas/3DMACIPN/3DMACIPN_gas_S0_finalOpt.xtbopt.xyz --gfn 2 --spinpol --tblite --uhf 2 --ohess vtight --parallel 40 --molden --ceasefiles --namespace data2507/gas/3DMACIPN/3DMACIPN_gas_T1_preOpt
 * total energy  :  -154.2259866 Eh     change        0.8864518E-07 Eh
 * total energy  :  -154.2306683 Eh     change       -0.4681741E-02 Eh
 * total energy  :  -154.2319317 Eh     change       -0.1263383E-02 Eh
 * total energy  :  -154.2321722 Eh     change       -0.2404415E-03 Eh
 * total energy  :  -154.2323906 Eh     change       -0.2184287E-03 Eh
 * total energy  :  -154.2325715 Eh     change       -0.1809304E-03 Eh
 * total energy  :  -154.2327093 Eh     change       -0.1377498E-03 Eh
 * total energy  :  -154.2328299 Eh     change       -0.1206157E-03 Eh
 * total energy  :  -154.2329224 Eh     change       -0.9256757E-04 Eh
 * total energy  :  -154.2329795 Eh     change       -0.5704930E-04 Eh
 * total energy  :  -154.2343414 Eh     change       -0.9753724E-06 Eh
 * total energy  :  -154.2343428 Eh     change       -0.1421549E-05 Eh
 * total energy  :  -154.2343443 Eh     change       -0.1541119E-05 Eh
 * total energy  :  -154.2343453 Eh     change       -0.9902836E-06 Eh
 * total energy  :  -154.2343457 Eh     change       -0.3357994E-06 Eh
 * total energy  :  -154.2343459 Eh     change       -0.1950818E-06 Eh
 * total energy  :  -154.2343461 Eh     change       -0.2034663E-06 Eh
 * total energy  :  -154.2343462 Eh     change       -0.1693617E-06 Eh
 * total energy  :  -154.2343463 Eh     change       -0.4395648E-07 Eh
   *** GEOMETRY OPTIMIZATION CONVERGED AFTER 140 ITERATIONS ***

 final structure:
================
101
 xtb: 6.7.1 (edcfbbe)
C            4.27294075180080        5.37314539901362        1.07567957084628
C            4.23154124469383        3.83383804512862        1.10054639739578
C            5.61034537184600        3.26250193972602        1.48358645445226
C            3.22840773429754        3.38568621637957        2.14151906783068
C            3.38042544518094        3.78445102758175        3.46203615098074
C            2.50722850982170        3.38012174561965        4.45495449183425
C            1.44993300667111        2.54378851447643        4.13508455429600
C            1.27707219365980        2.12994534534531        2.83431411387182
C            2.15245107284177        2.54568130518320        1.82317590388709
N            1.94229478902789        2.12300793875368        0.52624552381324
C            0.93906567656537        1.15741438075963        0.27063748102536
C           -0.38033503095921        1.49500631082667        0.02632417443005
F           -0.72945340510242        2.80316756547186        0.04877905293990
C           -1.35926154929873        0.55342021552830       -0.23808797426210
N           -2.71288314737853        0.90272377156697       -0.46332239041555
C           -3.59338281195424        0.86050873668997        0.59876930610060
C           -3.10565560951085        0.61528589515194        1.88863408588584
C           -3.95475337959305        0.56892594051605        2.97020852982241
C           -5.31349959095529        0.76702637892491        2.78536296215521
C           -5.79971566374528        1.00997710174913        1.51404672692371
C           -4.96632391242024        1.06470910585314        0.40573822790079
C           -5.55415181927890        1.31687085551591       -0.96587094747506
C           -6.30867573896155        2.65933634970222       -0.94582319486786
C           -6.51746427260650        0.16096366346482       -1.29759940853772
C           -4.48904243315375        1.36854982517299       -2.03990451527760
C           -4.84894783507269        1.61675688514431       -3.35695535581808
C           -3.91632116678570        1.65250847378648       -4.37715499501208
C           -2.57969327554703        1.42905924024110       -4.08860421690508
C           -2.19468093188613        1.17797104909715       -2.79174279369149
C           -3.13488514548561        1.14726393683652       -1.75412920481074
C           -0.98717196948253       -0.84867854316778       -0.26945371973964
C           -1.95077008194660       -1.81585864279621       -0.54147534173189
N           -2.75840249328187       -2.60952778499262       -0.76867948512361
C            0.33655433738408       -1.19823164785938       -0.01855737099826
N            0.70563395658544       -2.57043643658522       -0.04208676782292
C            0.56227203781833       -3.31614885292425        1.10864760793773
C            0.05036202402529       -2.71281933635863        2.26387486025338
C           -0.11042508912697       -3.43429979308542        3.42465689039583
C            0.24137671027186       -4.77397708711087        3.45577264937778
C            0.75541565615926       -5.37044724896029        2.31932896526475
C            0.92769620393835       -4.66847981469351        1.13468475085720
C            1.50377502510321       -5.36738021246402       -0.07799681031007
C            0.58373749923159       -6.54576600944917       -0.44897559192367
C            2.91562535229696       -5.87277163246998        0.27460707299758
C            1.60831978797345       -4.44342671137321       -1.27225001071924
C            2.11339319425481       -4.92143725213526       -2.47319949017599
C            2.22414359355645       -4.11770474486614       -3.59266015297632
C            1.81698154962420       -2.79504967753849       -3.52705045086961
C            1.31259966903531       -2.29354265913196       -2.34900335747865
C            1.20754420658616       -3.10235559288237       -1.21087978689751
C            1.31309723647518       -0.24448801896098        0.25423797920434
C            2.63172257155681       -0.61389739145078        0.50416835684879
N            3.72799159477612       -0.91052675765327        0.71441084140559
C            2.77060964843021        2.50363832779617       -0.51041541338432
C            2.49378094959718        2.06125783476229       -1.81024948279879
C            3.30051140405114        2.41728202431268       -2.86632266776485
C            4.40334551750471        3.22640286729052       -2.64558319926836
C            4.67679054442456        3.67109331404141       -1.36530052070520
C            3.87862232632435        3.33060160141390       -0.28233751268900
H            4.55054965529337        5.76972100231842        2.04788991228605
H            3.29282491223386        5.76520861058355        0.81066417329954
H            4.99459296811952        5.73018198962631        0.34677724791279
H            5.56921342030224        2.17495412352132        1.48518152151448
H            5.90603844598994        3.59840093261769        2.47364965466546
H            6.36924322995689        3.57738648438379        0.77275728523803
H            4.20551152853874        4.42575512370549        3.73168281003976
H            2.65426749214389        3.71065983928476        5.47165530512574
H            0.76277284186796        2.21366907805171        4.89927923871180
H            0.45578305645489        1.47509796290656        2.58840361174188
H           -2.04786706610603        0.46088756700705        2.03474530391294
H           -3.55884391655762        0.37733539403761        3.95599190129337
H           -5.99021724370262        0.73035297639276        3.62514448525301
H           -6.86152462880394        1.15636155237760        1.38801859379569
H           -7.09456791992097        2.65146245972712       -0.19619395869637
H           -6.76383038178397        2.86295968243876       -1.91069156222084
H           -5.61849286391958        3.46802890823429       -0.71291692327713
H           -5.97205524322549       -0.78079619323389       -1.30384962669385
H           -7.31053861939307        0.09506433595986       -0.55797885472155
H           -6.97020033932717        0.30398828772470       -2.27482051211982
H           -5.88671068095596        1.78386814365228       -3.60169528849386
H           -4.23103184522999        1.84913456220625       -5.39049413642259
H           -1.83963509776718        1.44928714967508       -4.87413564981862
H           -1.15384861111282        1.00185418407049       -2.56871878258034
H           -0.22134358903144       -1.66919648291999        2.24517844243905
H           -0.50888025878092       -2.95280856101194        4.30458951931998
H            0.11890711087084       -5.34989967702127        4.36008074350648
H            1.02898358127010       -6.41345913913784        2.36326228834098
H            0.96874433683475       -7.08072970002888       -1.31238482027088
H            0.50050552331136       -7.24661887013611        0.37667913411620
H           -0.41088051292891       -6.17444242527341       -0.68803727054510
H            2.88368800850754       -6.54799404428683        1.12494540731056
H            3.35791002486939       -6.40153819324810       -0.56488008903854
H            3.55541868105513       -5.02939185090981        0.52701453801909
H            2.43196048331504       -5.95013847664207       -2.54350176202369
H            2.62309772055489       -4.52140416586071       -4.51043785693421
H            1.89231382016782       -2.15595807661068       -4.39353093187985
H            0.99291780764319       -1.26442787243288       -2.30332662849883
H            1.63359358727360        1.43375687729447       -1.98454319784036
H            3.07132892677820        2.06390543088233       -3.86018789943453
H            5.04650359522188        3.50881281275668       -3.46480234434968
H            5.54170573038143        4.29799658042178       -1.21154230885060

 projected vibrational frequencies (cm⁻¹)
eigval :       -0.00    -0.00    -0.00     0.00     0.00     0.00
eigval :        1.57     3.75     7.08     7.44     9.69    10.62
eigval :       15.55    31.88    37.56    38.31    43.47    52.85
eigval :       74.19    76.03    89.04    90.04    91.33    93.21
eigval :       93.68    94.95    95.67   119.14   120.84   121.01
eigval :      133.83   134.49   138.22   143.72   147.60   168.23
eigval :      197.61   199.09   199.56   200.91   217.74   217.96
eigval :      218.22   219.41   234.65   235.76   237.20   258.82
eigval :      266.55   303.41   304.12   308.35   309.72   322.74
eigval :      326.88   327.03   327.93   328.36   340.08   344.71
eigval :      347.09   354.88   359.93   361.21   379.68   380.35
eigval :      384.87   396.96   405.04   409.58   418.31   428.16
eigval :      446.35   448.50   449.87   455.85   471.62   482.63
eigval :      494.51   499.11   502.10   506.50   506.81   506.89
eigval :      506.96   525.97   526.13   527.97   533.43   543.19
eigval :      543.91   544.35   550.22   550.56   583.59   583.90
eigval :      586.71   600.40   607.24   609.99   612.73   648.61
eigval :      651.32   667.85   670.85   686.06   687.40   687.42
eigval :      698.69   700.21   700.80   707.04   714.50   752.18
eigval :      755.45   767.15   768.40   769.73   771.58   772.36
eigval :      773.36   825.22   825.55   826.15   857.85   858.26
eigval :      862.66   863.42   864.91   865.38   868.94   907.65
eigval :      908.30   911.19   911.85   912.49   912.60   912.85
eigval :      913.27   913.63   919.82   919.96   920.37   920.48
eigval :      920.63   920.75   936.67   937.69   938.42   943.79
eigval :      959.75   959.80   959.89   960.12  1014.53  1014.61
eigval :     1015.00  1059.03  1061.86  1076.33  1076.67  1077.19
eigval :     1083.78  1105.11  1106.58  1109.41  1113.11  1113.79
eigval :     1114.74  1128.97  1129.24  1138.10  1139.06  1140.68
eigval :     1152.65  1152.73  1153.40  1172.48  1178.35  1179.03
eigval :     1181.91  1183.11  1183.50  1183.91  1186.62  1187.00
eigval :     1208.23  1220.10  1235.10  1235.22  1240.73  1242.43
eigval :     1242.93  1245.89  1254.16  1255.83  1261.77  1276.60
eigval :     1280.71  1295.62  1295.65  1295.82  1300.16  1313.82
eigval :     1315.03  1323.79  1332.39  1332.57  1334.27  1336.28
eigval :     1338.16  1338.27  1345.24  1368.75  1401.82  1402.01
eigval :     1402.12  1418.33  1419.46  1419.64  1419.68  1423.31
eigval :     1424.10  1427.67  1432.44  1433.98  1435.04  1439.08
eigval :     1460.02  1460.65  1461.50  1462.91  1480.62  1481.44
eigval :     1485.82  1487.09  1487.20  1487.27  1487.54  1487.77
eigval :     1487.94  1497.41  1498.11  1498.35  1501.25  1501.45
eigval :     1501.54  1560.05  1560.30  1561.18  1574.81  1575.14
eigval :     1576.02  1582.60  1582.65  1582.98  1593.35  1593.39
eigval :     1595.67  2265.27  2323.01  3030.34  3030.44  3033.17
eigval :     3034.50  3034.55  3034.67  3042.26  3042.43  3043.66
eigval :     3046.07  3046.16  3046.33  3050.27  3050.67  3052.17
eigval :     3055.57  3056.39  3056.80  3083.58  3083.75  3083.93
eigval :     3084.04  3084.94  3085.06  3088.07  3088.18  3088.54
eigval :     3088.75  3089.89  3090.00  3096.52  3096.78  3097.38
eigval :     3097.90  3099.13  3099.51  3101.21  3102.02  3102.57
eigval :     3103.05  3105.59  3105.85

   temp. (K)  partition function   enthalpy   heat capacity  entropy
                                   cal/mol     cal/K/mol   cal/K/mol   J/K/mol
 298.15  VIB  0.248E+28            31286.499    189.913    201.305
         ROT  0.100E+09              888.752      2.981     39.593
         INT  0.248E+36            32175.251    192.894    240.897
         TR   0.206E+29             1481.254      4.968     45.774
         TOT                       33656.5054   197.8619   286.6710  1199.4316

       T/K    H(0)-H(T)+PV         H(T)/Eh          T*S/Eh         G(T)/Eh
   ------------------------------------------------------------------------
    298.15    0.536351E-01    0.840762E+00    0.136207E+00    0.704555E+00
   ------------------------------------------------------------------------

         :::::::::::::::::::::::::::::::::::::::::::::::::::::
         ::                  THERMODYNAMIC                  ::
         :::::::::::::::::::::::::::::::::::::::::::::::::::::
         :: total free energy        -153.529790883964 Eh   ::
         ::.................................................::
         :: total energy             -154.234346291708 Eh   ::
         :: zero point energy           0.787127015076 Eh   ::
         :: G(RRHO) w/o ZPVE           -0.082571607331 Eh   ::
         :: G(RRHO) contrib.            0.704555407744 Eh   ::
         :::::::::::::::::::::::::::::::::::::::::::::::::::::

           -------------------------------------------------
          | TOTAL ENERGY             -154.234346291708 Eh   |
          | TOTAL ENTHALPY           -153.393584221308 Eh   |
          | TOTAL FREE ENERGY        -153.529790883964 Eh   |
          | GRADIENT NORM               0.000088216767 Eh/α |
           -------------------------------------------------

 * finished run on 2025/09/10 at 16:47:22.926
