   * xtb version 6.7.1 (edcfbbe) compiled by 'albert@albert-system' on 2024-07-22

   ID    Z sym.   atoms
    1    6 C      1-9, 11, 12, 14, 16-32, 34, 36-52, 54-59
    2    7 N      10, 15, 33, 35, 53
    3    9 F      13
    4    1 H      60-101

          program call               : xtb data2507/gas/3DMACIPN/3DMACIPN.xyz --gfn 2 --ohess vtight --parallel 40 --molden --ceasefiles --namespace data2507/gas/3DMACIPN/3DMACIPN_gas_S0_preOpt
          :  Hamiltonian                  GFN2-xTB          :
 * total energy  :  -154.2507078 Eh     change       -0.2721094E-08 Eh
 * total energy  :  -154.2748760 Eh     change       -0.2416821E-01 Eh
 * total energy  :  -154.2845732 Eh     change       -0.9697182E-02 Eh
 * total energy  :  -154.2872791 Eh     change       -0.2705917E-02 Eh
 * total energy  :  -154.2889112 Eh     change       -0.1632155E-02 Eh
 * total energy  :  -154.2892593 Eh     change       -0.3480249E-03 Eh
 * total energy  :  -154.2900430 Eh     change       -0.7837743E-03 Eh
 * total energy  :  -154.2901758 Eh     change       -0.1327491E-03 Eh
 * total energy  :  -154.2902532 Eh     change       -0.7736322E-04 Eh
 * total energy  :  -154.2900640 Eh     change        0.1891435E-03 Eh
 * total energy  :  -154.2903853 Eh     change       -0.3570884E-05 Eh
 * total energy  :  -154.2903889 Eh     change       -0.3601746E-05 Eh
 * total energy  :  -154.2903920 Eh     change       -0.3062262E-05 Eh
 * total energy  :  -154.2903940 Eh     change       -0.1993889E-05 Eh
 * total energy  :  -154.2903954 Eh     change       -0.1437003E-05 Eh
 * total energy  :  -154.2903966 Eh     change       -0.1224774E-05 Eh
 * total energy  :  -154.2903972 Eh     change       -0.5567398E-06 Eh
 * total energy  :  -154.2903973 Eh     change       -0.1556901E-06 Eh
 * total energy  :  -154.2903974 Eh     change       -0.9739387E-07 Eh
   *** GEOMETRY OPTIMIZATION CONVERGED AFTER 35 ITERATIONS ***

 final structure:
================
101
 xtb: 6.7.1 (edcfbbe)
C            5.35243039569107       -4.28424250558580       -0.00145847249156
C            5.08279435625992       -2.76882161472176        0.00103608976475
C            6.40723313963372       -1.98422000445273        0.00362117353358
C            4.31642267502578       -2.40978534899436       -1.25753062013294
C            4.87672018374055       -2.66793024165058       -2.50113968912185
C            4.22627392825239       -2.35332207781347       -3.67996015697229
C            2.97789190270156       -1.76221893796252       -3.62970629371498
C            2.39761915500986       -1.49548971246566       -2.40720203058218
C            3.05470321785446       -1.81401474804330       -1.21808953241703
N            2.44070804897445       -1.54315942719107        0.00090254737755
C            1.21863489489628       -0.84230812147533        0.00094189597420
C            0.00162110908619       -1.52028244135919        0.00263760515577
F            0.00297715144414       -2.85812458601841        0.00489174527232
C           -1.21676346909289       -0.84477598734923        0.00110887107739
N           -2.43741025573848       -1.54810823864850        0.00104195389724
C           -3.05105140106096       -1.81973841458056       -1.21796002430261
C           -2.39481876296739       -1.49940655285767       -2.40705840211858
C           -2.97473253259814       -1.76687511832111       -3.62957092928228
C           -4.22188869228296       -2.36055635521097       -3.67985244334474
C           -4.87148585582836       -2.67697403339010       -2.50104808469086
C           -4.31152842086148       -2.41813333006282       -1.25743044788752
C           -5.07692348431625       -2.77930472972679        0.00111918302772
C           -5.34324902383908       -4.29531072138049       -0.00191652599274
C           -6.40306610990672       -1.99758796188312        0.00418099726618
C           -4.30882070102919       -2.42372681209580        1.25961917376667
C           -4.86640496977183       -2.68744419202723        2.50327691656276
C           -4.21459972184334       -2.37556007262095        3.68207406833568
C           -2.96778206867263       -1.78116865380943        3.63175397686905
C           -2.39024185270556       -1.50881414645151        2.40919711718557
C           -3.04835110512131       -1.82530958218043        1.22012238921580
C           -1.20619028021633        0.55761343947191       -0.00093547541938
C           -2.43612766609607        1.25993035589467       -0.00183411195989
N           -3.43134658088576        1.82470394120114       -0.00233141730623
C           -0.00120222573799        1.26755257983366       -0.00161979303881
N           -0.00264716096454        2.67661543493715       -0.00191929463077
C           -0.00298531381683        3.34695700035379       -1.22109448303669
C           -0.00175699566988        2.61620855931306       -2.40979750032259
C           -0.00207972879098        3.25469837698762       -3.63238988013044
C           -0.00367850432240        4.63588987596555       -3.68291849706082
C           -0.00494061379308        5.35873024947536       -2.50429022772925
C           -0.00462533134348        4.74213389916070       -1.26059289560509
C           -0.00610163407641        5.58836076105506       -0.00203419876592
C           -1.27272927814715        6.46303716861794       -0.00245633150557
C            1.25826998306851        6.46629299842038       -0.00165711394871
C           -0.00543372610868        4.74224429225905        1.25659722849365
C           -0.00649617477497        5.35900207446921        2.50021910529053
C           -0.00595474056908        4.63633433182170        3.67894970168903
C           -0.00428522929245        3.25514124006617        3.62858224321987
C           -0.00320281473846        2.61648854552115        2.40607044729667
C           -0.00379341030932        3.34705868022120        1.21724269712247
C            1.20522383706053        0.56005665933789       -0.00119442009803
C            2.43373207452714        1.26486472493364       -0.00233645353429
N            3.42780697775422        1.83164185908706       -0.00328076463421
C            3.05239579538995       -1.81866788569649        1.21999591434220
C            2.39376766817819       -1.50320417673377        2.40905824310671
C            2.97203421977569       -1.77396355042648        3.63162577359212
C            4.22011576211506       -2.36569316348059        3.68197314120348
C            4.87242744823550       -2.67656861715636        2.50318960861420
C            4.31412036691186       -2.41443321780806        1.25952189849213
H            5.91839575924031       -4.57631550230769       -0.88150813109477
H            4.40936962026333       -4.82765873420932       -0.00322154267750
H            5.91687860498457       -4.57941721008310        0.87853346582819
H            6.20226932318955       -0.91525695182841        0.00533959943964
H            6.99889570330141       -2.21934521623884       -0.87665032572194
H            6.99742113228714       -2.22249843090847        0.88403298132220
H            5.85171688128520       -3.12708194668912       -2.55774832178255
H            4.69218722033574       -2.56798556672926       -4.62920806280674
H            2.45249184059976       -1.50766838591425       -4.53765428712462
H            1.41998887721803       -1.03586381160694       -2.37907608850268
H           -1.41813701023981       -1.03777052531509       -2.37892276824535
H           -2.45001272597214       -1.51087405577109       -4.53750468292543
H           -4.68751300531008       -2.57581068780040       -4.62910917000119
H           -5.84552549957954       -3.13814870320652       -2.55767470160956
H           -5.90891793402485       -4.58823799931698       -0.88187354450125
H           -5.90671057188482       -4.59208741001790        0.87816831116340
H           -4.39900699692309       -4.83667034615756       -0.00427698666912
H           -6.20043792570577       -0.92817948092267        0.00598570673582
H           -6.99446539220335       -2.23389111518097       -0.87595238904196
H           -6.99248719184840       -2.23726867661979        0.88472395617876
H           -5.84035152000490       -3.14881487915313        2.55995178997261
H           -4.67842620720987       -2.59452965113124        4.63136177355996
H           -2.44162023153612       -1.52814272940045        4.53968717009430
H           -1.41412663008597       -1.04599125282766        2.38097577414323
H           -0.00054274348092        1.53596123912951       -2.38144918331647
H           -0.00111428357641        2.67074500633034       -4.54019131141925
H           -0.00397648333652        5.14861628746571       -4.63228277221337
H           -0.00621432740277        6.43638981744677       -2.56114249274104
H           -1.30519761243336        7.09900346693663        0.87766579177301
H           -1.30477371367613        7.09878988199346       -0.88274698677503
H           -2.15802280151056        5.82987430245511       -0.00258739516541
H            1.28919382204071        7.10217576982160       -0.88189254825611
H            1.28859424106638        7.10230168690341        0.87851001240964
H            2.14518953630740        5.83541069289001       -0.00131151699336
H           -0.00779131236651        6.43666805722285        2.55692704269015
H           -0.00680303967673        5.14918014949492        4.62824915916048
H           -0.00379511815477        2.67128664480114        4.53644869233592
H           -0.00186429451855        1.53623847977877        2.37795844170542
H            1.41666618967916       -1.04246854955047        2.38082511246760
H            2.44545540646849       -1.52176246909891        4.53954699385326
H            4.68453526687249       -2.58336184191765        4.63127106806723
H            5.84735669322703       -3.13585511951749        2.55988217171758

          :  Hamiltonian                  GFN2-xTB          :
         :: gradient norm              0.000044494648 Eh/a0 ::
         :: HOMO-LUMO gap              1.017642028981 eV    ::
         :: SCC energy              -157.050308367394 Eh    ::
         :: -> dispersion             -0.157774577712 Eh    ::
         :: repulsion energy           2.759910919493 Eh    ::

    * Orbital Energies and Occupations

         #    Occupation            Energy/Eh            Energy/eV
      -------------------------------------------------------------
         1        2.0000           -0.8528580             -23.2074
       ...           ...                  ...                  ...
       131        2.0000           -0.4149180             -11.2905
       132        2.0000           -0.4121647             -11.2156
       133        2.0000           -0.4120727             -11.2131
       134        2.0000           -0.4118119             -11.2060
       135        2.0000           -0.4059825             -11.0473
       136        2.0000           -0.4059676             -11.0469
       137        2.0000           -0.4056201             -11.0375
       138        2.0000           -0.4006425             -10.9020
       139        2.0000           -0.4006106             -10.9012
       140        2.0000           -0.4002494             -10.8913
       141        2.0000           -0.3606838              -9.8147
       142        2.0000           -0.3605522              -9.8111
       143        2.0000           -0.3566356              -9.7045 (HOMO)
       144                         -0.3192379              -8.6869 (LUMO)
       145                         -0.3025639              -8.2332
       146                         -0.2382619              -6.4834
       147                         -0.2338904              -6.3645
       148                         -0.2321915              -6.3183
       149                         -0.2321809              -6.3180
       150                         -0.2318812              -6.3098
       151                         -0.2284545              -6.2166
       152                         -0.2273498              -6.1865
       153                         -0.2273066              -6.1853
       154                         -0.2267688              -6.1707
       ...                                ...                  ...
       278                          1.1507168              31.3126
      -------------------------------------------------------------
                  HL-Gap            0.0373977 Eh            1.0176 eV

     #   Z          covCN         q      C6AA      α(0)
     1   6 C        3.761    -0.104    22.541     6.768
     2   6 C        3.909     0.023    20.135     6.378
     3   6 C        3.762    -0.105    22.556     6.770
     4   6 C        2.980    -0.009    28.226     8.715
     5   6 C        2.929    -0.033    28.825     8.805
     6   6 C        2.918    -0.041    29.017     8.833
     7   6 C        2.920    -0.030    28.754     8.793
     8   6 C        2.924    -0.053    29.318     8.880
     9   6 C        2.930     0.061    26.638     8.464
    10   7 N        2.754    -0.070    22.596     7.060
    11   6 C        2.932     0.076    26.310     8.412
    12   6 C        2.783     0.150    24.726     8.145
    13   9 F        0.787    -0.188    11.108     3.937
    14   6 C        2.932     0.076    26.310     8.412
    15   7 N        2.754    -0.070    22.596     7.060
    16   6 C        2.930     0.061    26.638     8.464
    17   6 C        2.924    -0.053    29.319     8.880
    18   6 C        2.920    -0.030    28.754     8.793
    19   6 C        2.918    -0.041    29.017     8.833
    20   6 C        2.929    -0.033    28.825     8.805
    21   6 C        2.980    -0.009    28.226     8.715
    22   6 C        3.909     0.023    20.135     6.378
    23   6 C        3.761    -0.104    22.541     6.768
    24   6 C        3.762    -0.105    22.556     6.770
    25   6 C        2.980    -0.009    28.227     8.715
    26   6 C        2.929    -0.033    28.825     8.805
    27   6 C        2.918    -0.041    29.017     8.834
    28   6 C        2.920    -0.030    28.754     8.793
    29   6 C        2.924    -0.053    29.318     8.879
    30   6 C        2.930     0.061    26.637     8.464
    31   6 C        2.977    -0.004    28.117     8.698
    32   6 C        1.911     0.129    27.938     8.536
    33   7 N        0.911    -0.201    25.368     7.285
    34   6 C        2.939     0.090    25.992     8.361
    35   7 N        2.755    -0.080    22.793     7.091
    36   6 C        2.930     0.060    26.666     8.469
    37   6 C        2.924    -0.054    29.350     8.884
    38   6 C        2.920    -0.030    28.750     8.793
    39   6 C        2.918    -0.041    29.014     8.833
    40   6 C        2.929    -0.033    28.819     8.804
    41   6 C        2.980    -0.008    28.220     8.714
    42   6 C        3.909     0.023    20.138     6.379
    43   6 C        3.761    -0.105    22.556     6.770
    44   6 C        3.761    -0.105    22.556     6.770
    45   6 C        2.980    -0.008    28.220     8.714
    46   6 C        2.929    -0.033    28.819     8.804
    47   6 C        2.918    -0.041    29.014     8.833
    48   6 C        2.920    -0.030    28.750     8.793
    49   6 C        2.924    -0.054    29.351     8.884
    50   6 C        2.930     0.059    26.666     8.469
    51   6 C        2.977    -0.004    28.117     8.698
    52   6 C        1.911     0.129    27.938     8.536
    53   7 N        0.911    -0.201    25.368     7.285
    54   6 C        2.930     0.061    26.637     8.464
    55   6 C        2.924    -0.053    29.318     8.879
    56   6 C        2.920    -0.030    28.754     8.793
    57   6 C        2.918    -0.041    29.017     8.834
    58   6 C        2.929    -0.033    28.825     8.805
    59   6 C        2.980    -0.009    28.227     8.715
    60   1 H        0.925     0.041     2.432     2.438
    61   1 H        0.925     0.035     2.520     2.482
    62   1 H        0.925     0.041     2.431     2.438
    63   1 H        0.925     0.038     2.482     2.464
    64   1 H        0.925     0.042     2.427     2.436
    65   1 H        0.925     0.042     2.427     2.436
    66   1 H        0.926     0.036     2.507     2.476
    67   1 H        0.926     0.032     2.558     2.501
    68   1 H        0.926     0.032     2.560     2.502
    69   1 H        0.926     0.008     2.930     2.677
    70   1 H        0.926     0.008     2.930     2.677
    71   1 H        0.926     0.032     2.560     2.502
    72   1 H        0.926     0.032     2.558     2.501
    73   1 H        0.926     0.036     2.507     2.476
    74   1 H        0.925     0.041     2.432     2.438
    75   1 H        0.925     0.041     2.431     2.438
    76   1 H        0.925     0.035     2.520     2.482
    77   1 H        0.925     0.038     2.482     2.464
    78   1 H        0.925     0.042     2.427     2.436
    79   1 H        0.925     0.042     2.427     2.436
    80   1 H        0.926     0.036     2.507     2.476
    81   1 H        0.926     0.032     2.559     2.501
    82   1 H        0.926     0.032     2.560     2.502
    83   1 H        0.926     0.008     2.930     2.677
    84   1 H        0.926     0.006     2.947     2.685
    85   1 H        0.926     0.032     2.552     2.498
    86   1 H        0.926     0.033     2.546     2.495
    87   1 H        0.926     0.037     2.494     2.470
    88   1 H        0.925     0.042     2.423     2.434
    89   1 H        0.925     0.042     2.423     2.434
    90   1 H        0.925     0.037     2.492     2.469
    91   1 H        0.925     0.042     2.423     2.434
    92   1 H        0.925     0.042     2.423     2.434
    93   1 H        0.925     0.037     2.493     2.469
    94   1 H        0.926     0.037     2.494     2.470
    95   1 H        0.926     0.033     2.546     2.495
    96   1 H        0.926     0.032     2.552     2.498
    97   1 H        0.926     0.006     2.948     2.685
    98   1 H        0.926     0.008     2.930     2.677
    99   1 H        0.926     0.032     2.560     2.502
   100   1 H        0.926     0.032     2.559     2.501
   101   1 H        0.926     0.036     2.507     2.476

molecular dipole:
                 x           y           z       tot (Debye)
 q only:       -0.000      -0.096       0.000
   full:        0.000      -0.515       0.001       1.310

 projected vibrational frequencies (cm⁻¹)
eigval :       -0.00    -0.00    -0.00    -0.00     0.00     0.00
eigval :      -19.93   -16.91   -13.03     5.91     9.32     9.35
eigval :       16.71    33.78    34.31    34.53    34.95    43.21
eigval :       76.82    82.25    92.86    92.96    94.12    95.80
eigval :       96.01    96.68    96.78   118.74   119.06   120.57
eigval :      133.10   133.20   134.15   147.21   149.58   172.38
eigval :      193.62   193.63   193.90   201.46   215.75   217.90
eigval :      217.96   218.22   234.04   234.88   236.95   257.54
eigval :      261.51   299.39   304.33   306.11   309.40   312.30
eigval :      312.34   329.70   329.93   330.08   342.86   345.24
eigval :      345.64   349.45   352.08   359.04   377.77   378.28
eigval :      378.37   381.99   406.59   407.56   411.35   428.05
eigval :      439.39   440.99   442.02   473.62   476.40   476.91
eigval :      479.33   492.12   500.86   510.36   514.72   514.98
eigval :      514.98   526.57   533.91   547.03   547.63   547.65
eigval :      551.95   553.40   567.17   579.82   586.64   589.60
eigval :      589.65   599.85   606.85   647.25   665.64   669.73
eigval :      672.18   672.56   679.49   679.72   680.26   691.35
eigval :      692.03   692.20   709.05   709.12   716.81   752.82
eigval :      756.90   769.26   769.94   773.43   773.86   773.93
eigval :      774.37   824.91   824.91   825.57   855.31   856.09
eigval :      860.61   861.17   861.26   861.89   873.33   909.97
eigval :      910.26   911.07   911.35   911.59   912.11   912.29
eigval :      913.56   914.19   920.52   920.59   920.95   921.01
eigval :      921.15   921.17   937.80   939.33   940.09   943.40
eigval :      959.29   959.31   959.51   970.78  1015.74  1015.75
eigval :     1015.88  1062.17  1067.32  1077.59  1077.61  1077.83
eigval :     1084.59  1112.77  1113.23  1114.79  1118.45  1118.54
eigval :     1119.23  1139.41  1141.00  1141.50  1141.79  1143.02
eigval :     1162.07  1162.11  1162.39  1176.69  1181.50  1181.60
eigval :     1186.19  1186.25  1186.39  1186.48  1189.20  1190.23
eigval :     1209.85  1237.19  1237.21  1247.19  1247.74  1248.30
eigval :     1252.12  1260.29  1266.62  1266.93  1272.11  1283.05
eigval :     1283.68  1292.08  1294.34  1294.38  1294.55  1326.36
eigval :     1326.62  1326.89  1334.48  1334.84  1334.91  1339.32
eigval :     1339.40  1341.86  1386.06  1403.78  1403.84  1403.87
eigval :     1417.46  1421.50  1421.70  1421.85  1424.35  1437.05
eigval :     1437.20  1438.20  1441.90  1442.04  1443.31  1481.05
eigval :     1481.34  1484.18  1488.72  1488.83  1488.84  1489.51
eigval :     1489.76  1489.76  1493.68  1493.76  1498.15  1499.27
eigval :     1499.56  1499.57  1504.40  1504.44  1505.01  1506.92
eigval :     1519.46  1580.65  1580.76  1581.04  1593.89  1593.95
eigval :     1595.04  1595.17  1595.19  1595.77  1602.00  1602.09
eigval :     1603.96  2381.08  2384.14  3029.22  3029.28  3030.04
eigval :     3031.58  3031.59  3031.84  3041.80  3041.80  3042.16
eigval :     3044.53  3044.60  3044.91  3050.37  3050.38  3050.70
eigval :     3054.29  3054.39  3054.69  3068.52  3068.81  3069.25
eigval :     3069.45  3071.43  3072.04  3084.88  3084.99  3085.07
eigval :     3085.16  3085.35  3085.49  3090.65  3090.84  3090.97
eigval :     3091.13  3091.53  3091.82  3101.30  3101.42  3101.78
eigval :     3102.00  3102.09  3102.49

   temp. (K)  partition function   enthalpy   heat capacity  entropy
                                   cal/mol     cal/K/mol   cal/K/mol   J/K/mol
 298.15  VIB  0.494E+26            31198.945    188.850    196.704
         ROT  0.501E+08              888.752      2.981     38.214
         INT  0.248E+34            32087.698    191.831    234.918
         TR   0.206E+29             1481.254      4.968     45.774
         TOT                       33568.9516   196.7989   280.6919  1174.4148

       T/K    H(0)-H(T)+PV         H(T)/Eh          T*S/Eh         G(T)/Eh
   ------------------------------------------------------------------------
    298.15    0.534955E-01    0.843098E+00    0.133366E+00    0.709732E+00
   ------------------------------------------------------------------------

         :::::::::::::::::::::::::::::::::::::::::::::::::::::
         ::                  THERMODYNAMIC                  ::
         :::::::::::::::::::::::::::::::::::::::::::::::::::::
         :: total free energy        -153.580665462171 Eh   ::
         ::.................................................::
         :: total energy             -154.290397447924 Eh   ::
         :: zero point energy           0.789602218834 Eh   ::
         :: G(RRHO) w/o ZPVE           -0.079870233081 Eh   ::
         :: G(RRHO) contrib.            0.709731985753 Eh   ::
         :::::::::::::::::::::::::::::::::::::::::::::::::::::

           -------------------------------------------------
          | TOTAL ENERGY             -154.290397447924 Eh   |
          | TOTAL ENTHALPY           -153.447299699546 Eh   |
          | TOTAL FREE ENERGY        -153.580665462171 Eh   |
          | GRADIENT NORM               0.000044423425 Eh/α |
          | HOMO-LUMO GAP               1.017643030066 eV   |
           -------------------------------------------------

 * finished run on 2025/09/10 at 16:31:42.564
