   * xtb version 6.7.1 (edcfbbe) compiled by 'albert@albert-system' on 2024-07-22

   ID    Z sym.   atoms
    1    7 N      1, 9, 26, 32, 49, 55
    2    6 C      2-8, 10-25, 27-31, 33-48, 50-54, 56-69
    3    1 H      70-111

          program call               : xtb data2507/gas/3DPA3CN/3DPA3CN_gas_S0_crest.xyz --gfn 2 --ohess vtight --parallel 40 --molden --ceasefiles --namespace data2507/gas/3DPA3CN/3DPA3CN_gas_S0_finalOpt
          :  Hamiltonian                  GFN2-xTB          :
 * total energy  :  -173.7699334 Eh     change       -0.2799339E-08 Eh
 * total energy  :  -173.7699338 Eh     change       -0.3639363E-06 Eh
 * total energy  :  -173.7699356 Eh     change       -0.1756395E-05 Eh
 * total energy  :  -173.7699365 Eh     change       -0.9244888E-06 Eh
 * total energy  :  -173.7699380 Eh     change       -0.1493189E-05 Eh
 * total energy  :  -173.7699404 Eh     change       -0.2413427E-05 Eh
 * total energy  :  -173.7699417 Eh     change       -0.1311873E-05 Eh
 * total energy  :  -173.7699437 Eh     change       -0.2028375E-05 Eh
 * total energy  :  -173.7699460 Eh     change       -0.2269096E-05 Eh
 * total energy  :  -173.7699469 Eh     change       -0.8642912E-06 Eh
 * total energy  :  -173.7699614 Eh     change       -0.1829247E-06 Eh
 * total energy  :  -173.7699615 Eh     change       -0.1712630E-06 Eh
 * total energy  :  -173.7699617 Eh     change       -0.1663824E-06 Eh
 * total energy  :  -173.7699618 Eh     change       -0.1377975E-06 Eh
 * total energy  :  -173.7699620 Eh     change       -0.1446246E-06 Eh
 * total energy  :  -173.7699622 Eh     change       -0.2007186E-06 Eh
 * total energy  :  -173.7699624 Eh     change       -0.2581550E-06 Eh
 * total energy  :  -173.7699624 Eh     change       -0.2951879E-08 Eh
 * total energy  :  -173.7699625 Eh     change       -0.6316816E-07 Eh
   *** GEOMETRY OPTIMIZATION CONVERGED AFTER 45 ITERATIONS ***

 final structure:
================
111
 xtb: 6.7.1 (edcfbbe)
N           -0.83691072214807        3.91132500451455        0.00043678592005
C           -0.59946445737517        2.78894790039216       -0.00283358536838
C           -0.30568943290300        1.40535652296472       -0.00612091399049
C            1.03300602816123        0.98548262585145        0.01509024200076
C            2.12991105177736        1.95490701163355        0.04968807301609
C            2.15032692696361        2.98164366535472        0.99288398827472
C            3.19494075793366        3.87659661445552        1.03528498871528
C            4.24710539047983        3.78734867975216        0.11924834521542
N            5.29893025578722        4.69318722979448        0.15586259396590
C            5.08246562155176        6.01721297261688        0.56701907106631
C            6.03256478571354        6.67445928287561        1.34691446301177
C            5.82399533865546        7.98230794514127        1.74020155314857
C            4.66757895210867        8.64965720689134        1.37120866013189
C            3.71938765871458        7.99910990343024        0.59875657017268
C            3.92268616069372        6.69436049502918        0.19283730792271
C            6.59234061975002        4.29318703805841       -0.21383523999351
C            7.41616497911750        5.15856001168430       -0.93166050506539
C            8.69368282781797        4.76841838911100       -1.28445946404716
C            9.16480007980868        3.51318117718032       -0.93627207320379
C            8.34813228320925        2.64900645503707       -0.22543777039953
C            7.07235461880205        3.03298197906772        0.13991263590554
C            4.21942465472819        2.76497043200114       -0.83384185031394
C            3.18426605648102        1.85892479374612       -0.85837747866725
C            1.30827347859935       -0.39025720018312        0.01549540415703
C            2.64704415384066       -0.82157686904380        0.16726146284709
N            3.72683859614917       -1.16658647657351        0.34379316223557
C            0.27802665976317       -1.34255176705971       -0.00989414934475
C            0.58342653951063       -2.77286694244824       -0.00992050341611
C           -0.06175548392254       -3.63894915995995        0.87305942393750
C            0.23564807682843       -4.98214350090342        0.88554198693326
C            1.17638018917288       -5.51138249612112       -0.00323309258483
N            1.47257164564423       -6.86732757020084        0.00202862116815
C            0.48781500474438       -7.80881918619716        0.33933545636404
C           -0.82730737241825       -7.64402246186816       -0.09281211785866
C           -1.78916957579873       -8.57790364580456        0.24077222146635
C           -1.45572174767773       -9.68930479803372        0.99748376357597
C           -0.14875353972422       -9.85973311295878        1.42364159062878
C            0.81864605663034       -8.92705083329382        1.10276009871415
C            2.76162163925315       -7.31436551611877       -0.32735994289121
C            3.88644415376696       -6.61052100028659        0.10031951834844
C            5.15141676060421       -7.06014976639575       -0.22560737792949
C            5.31495249819398       -8.21698721527842       -0.96991748001463
C            4.19992675557784       -8.92264793351908       -1.39129587362263
C            2.93041937356595       -8.47645550483877       -1.07819646206710
C            1.81304602185180       -4.64495381523872       -0.89709820137783
C            1.52836509981290       -3.29902753426361       -0.89105069213803
C           -1.05042033127386       -0.89137068361496       -0.03367801274806
C           -2.09818746762611       -1.82961162385086       -0.18580152981557
N           -2.94353279236595       -2.58497213699208       -0.36176671086680
C           -1.35813309842602        0.47751110759188       -0.02964769658572
C           -2.75390681740806        0.91900490471346       -0.06162950118840
C           -3.18849151003035        1.85474820296963       -0.99966650462825
C           -4.50526586235691        2.25289724263945       -1.03752011498777
C           -5.43036577865353        1.74252891448696       -0.12217628198483
N           -6.75771778963245        2.14920130905391       -0.15342694905136
C           -7.78067405174402        1.26079728871422        0.21215153191988
C           -7.71417182633176       -0.08378677030224       -0.15025575948415
C           -8.72774919606432       -0.95038133224004        0.21055673971522
C           -9.82207936705311       -0.49180772386798        0.92552790330343
C           -9.89461356648145        0.84463367466109        1.28255843407721
C           -8.88195131945465        1.71751458932674        0.93427042101354
C           -7.09220117800305        3.45165629939609       -0.55446006891313
C           -6.30223094806649        4.53504146297305       -0.17260803461973
C           -6.64135427509170        5.81454983085321       -0.56801880870244
C           -7.77189322306335        6.03484837446604       -1.33763575358112
C           -8.56249966576827        4.96166955595531       -1.71453654844841
C           -8.22707681458172        3.67733392505615       -1.33163271220510
C           -4.99135773764804        0.81240941404323        0.82466648494590
C           -3.67859804347028        0.40079014495873        0.84493971193139
H            1.35947190720723        3.05463881143732        1.72468658443415
H            3.20932011574933        4.64909869380232        1.78906054736039
H            6.93083874240940        6.15220195469561        1.64223102099859
H            6.56662919502600        8.48042993964087        2.34587562032732
H            4.50661450904748        9.67029986564814        1.68332825933993
H            2.81709799548640        8.51283914636927        0.30214039653233
H            3.18603131411458        6.19320347703264       -0.41774774142664
H            7.04669016094477        6.13455531838495       -1.21062239143462
H            9.32215895676268        5.44703523352184       -1.84211546597593
H           10.16227816433021        3.21068131257991       -1.21664071959616
H            8.70852471204539        1.67048206658563        0.05493539290055
H            6.44179272557018        2.36049849160706        0.70275516181438
H            5.01495972465393        2.69184631256900       -1.55978139469494
H            3.17289293646000        1.08735403465473       -1.61448394065973
H           -0.77476380432007       -3.24791695702473        1.58400518190346
H           -0.25285547702471       -5.63376805498240        1.59401425393946
H           -1.08823621670314       -6.78365505063666       -0.69142233245855
H           -2.80428761598611       -8.43942704533871       -0.10033660738178
H           -2.20947669542184      -10.41840738907271        1.25303198293802
H            0.11908320589021      -10.72118924515629        2.01744077624708
H            1.83593368813207       -9.05643483318414        1.44226198784602
H            3.76253729241652       -5.71372960099175        0.68942972342164
H            6.01480273186239       -6.50633025216002        0.11178354523233
H            6.30508985638316       -8.56680253324887       -1.21952049946963
H            4.31817397576275       -9.82345295121618       -1.97525835641932
H            2.06125232891724       -9.02293002822424       -1.41403798795492
H            2.52776300332326       -5.03955241820029       -1.60324939191433
H            2.01616994466543       -2.65148601864934       -1.60482910228598
H           -2.49562766001537        2.24398156995592       -1.73093915655614
H           -4.83131953074119        2.95815082721341       -1.78682593239323
H           -6.86713628877976       -0.44249499993807       -0.71637861275497
H           -8.66490881873172       -1.98940232688461       -0.07665277120709
H          -10.61370032331372       -1.17139580295300        1.20223408187200
H          -10.74218260621396        1.20989656431726        1.84353571549480
H           -8.93550533516988        2.75787700839985        1.22005880646470
H           -5.42554168995658        4.36763290707620        0.43568926023017
H           -6.02169518641416        6.64547190869435       -0.26534328107285
H           -8.03542559675785        7.03648502266782       -1.64147750729676
H           -9.44324885559045        5.12380013193469       -2.31824619337678
H           -8.83966606388623        2.84018550341122       -1.63293097448441
H           -5.68869763266791        0.42068369206010        1.54957350449957
H           -3.35576985957342       -0.30458538557541        1.59683884847023

          :  Hamiltonian                  GFN2-xTB          :
         :: gradient norm              0.000122520144 Eh/a0 ::
         :: HOMO-LUMO gap              1.697319117615 eV    ::
         :: SCC energy              -177.158261633904 Eh    ::
         :: -> dispersion             -0.163016631699 Eh    ::
         :: repulsion energy           3.388299131406 Eh    ::

    * Orbital Energies and Occupations

         #    Occupation            Energy/Eh            Energy/eV
      -------------------------------------------------------------
         1        2.0000           -0.6872022             -18.6997
       ...           ...                  ...                  ...
       150        2.0000           -0.4103167             -11.1653
       151        2.0000           -0.4102408             -11.1632
       152        2.0000           -0.4085034             -11.1159
       153        2.0000           -0.4082618             -11.1094
       154        2.0000           -0.4080168             -11.1027
       155        2.0000           -0.4078189             -11.0973
       156        2.0000           -0.4077738             -11.0961
       157        2.0000           -0.4065541             -11.0629
       158        2.0000           -0.4049582             -11.0195
       159        2.0000           -0.4048833             -11.0174
       160        2.0000           -0.3553613              -9.6699
       161        2.0000           -0.3548957              -9.6572
       162        2.0000           -0.3542702              -9.6402 (HOMO)
       163                         -0.2918951              -7.9429 (LUMO)
       164                         -0.2913922              -7.9292
       165                         -0.2502161              -6.8087
       166                         -0.2349820              -6.3942
       167                         -0.2344823              -6.3806
       168                         -0.2335371              -6.3549
       169                         -0.2331236              -6.3436
       170                         -0.2326756              -6.3314
       171                         -0.2324906              -6.3264
       172                         -0.2317609              -6.3065
       173                         -0.2303731              -6.2688
       ...                                ...                  ...
       318                          1.1619790              31.6191
      -------------------------------------------------------------
                  HL-Gap            0.0623751 Eh            1.6973 eV

     #   Z          covCN         q      C6AA      α(0)
     1   7 N        0.911    -0.244    26.367     7.427
     2   6 C        1.912     0.117    28.230     8.581
     3   6 C        2.976    -0.001    28.036     8.685
     4   6 C        2.989     0.027    27.399     8.586
     5   6 C        2.978    -0.004    28.112     8.697
     6   6 C        2.922    -0.027    28.675     8.781
     7   6 C        2.921    -0.046    29.148     8.853
     8   6 C        2.924     0.071    26.423     8.430
     9   7 N        2.753    -0.070    22.590     7.059
    10   6 C        2.925     0.064    26.567     8.453
    11   6 C        2.922    -0.046    29.145     8.853
    12   6 C        2.920    -0.029    28.719     8.788
    13   6 C        2.919    -0.037    28.908     8.817
    14   6 C        2.920    -0.028    28.700     8.785
    15   6 C        2.922    -0.046    29.137     8.852
    16   6 C        2.925     0.064    26.567     8.453
    17   6 C        2.922    -0.046    29.145     8.853
    18   6 C        2.920    -0.029    28.721     8.788
    19   6 C        2.919    -0.037    28.909     8.817
    20   6 C        2.920    -0.028    28.700     8.785
    21   6 C        2.922    -0.046    29.136     8.852
    22   6 C        2.921    -0.047    29.156     8.855
    23   6 C        2.923    -0.027    28.670     8.781
    24   6 C        2.978    -0.001    28.038     8.686
    25   6 C        1.913     0.116    28.237     8.582
    26   7 N        0.911    -0.245    26.396     7.431
    27   6 C        2.988     0.026    27.405     8.587
    28   6 C        2.978    -0.003    28.106     8.696
    29   6 C        2.923    -0.026    28.664     8.780
    30   6 C        2.921    -0.047    29.155     8.855
    31   6 C        2.924     0.071    26.417     8.429
    32   7 N        2.753    -0.069    22.580     7.058
    33   6 C        2.925     0.064    26.568     8.453
    34   6 C        2.922    -0.046    29.134     8.851
    35   6 C        2.920    -0.028    28.699     8.785
    36   6 C        2.919    -0.036    28.904     8.816
    37   6 C        2.920    -0.029    28.718     8.788
    38   6 C        2.922    -0.046    29.141     8.853
    39   6 C        2.925     0.064    26.568     8.453
    40   6 C        2.922    -0.046    29.134     8.851
    41   6 C        2.920    -0.028    28.699     8.785
    42   6 C        2.919    -0.036    28.904     8.816
    43   6 C        2.920    -0.029    28.718     8.788
    44   6 C        2.922    -0.046    29.142     8.853
    45   6 C        2.921    -0.046    29.154     8.854
    46   6 C        2.923    -0.026    28.664     8.780
    47   6 C        2.978    -0.001    28.038     8.686
    48   6 C        1.913     0.116    28.237     8.582
    49   7 N        0.911    -0.245    26.393     7.430
    50   6 C        2.989     0.027    27.399     8.586
    51   6 C        2.978    -0.004    28.111     8.697
    52   6 C        2.922    -0.027    28.674     8.781
    53   6 C        2.921    -0.046    29.147     8.853
    54   6 C        2.924     0.071    26.423     8.430
    55   7 N        2.753    -0.070    22.590     7.059
    56   6 C        2.925     0.064    26.567     8.453
    57   6 C        2.922    -0.046    29.137     8.852
    58   6 C        2.920    -0.028    28.700     8.785
    59   6 C        2.919    -0.037    28.909     8.817
    60   6 C        2.920    -0.029    28.721     8.788
    61   6 C        2.922    -0.046    29.146     8.853
    62   6 C        2.925     0.064    26.567     8.453
    63   6 C        2.922    -0.046    29.136     8.852
    64   6 C        2.920    -0.028    28.700     8.785
    65   6 C        2.919    -0.036    28.908     8.817
    66   6 C        2.920    -0.029    28.719     8.788
    67   6 C        2.922    -0.046    29.144     8.853
    68   6 C        2.921    -0.047    29.155     8.855
    69   6 C        2.923    -0.027    28.670     8.781
    70   1 H        0.926     0.036     2.505     2.475
    71   1 H        0.926     0.040     2.442     2.444
    72   1 H        0.926     0.033     2.545     2.495
    73   1 H        0.926     0.033     2.540     2.492
    74   1 H        0.926     0.033     2.548     2.496
    75   1 H        0.926     0.036     2.499     2.472
    76   1 H        0.926     0.036     2.503     2.474
    77   1 H        0.926     0.033     2.547     2.496
    78   1 H        0.926     0.033     2.542     2.493
    79   1 H        0.926     0.033     2.549     2.497
    80   1 H        0.926     0.036     2.496     2.471
    81   1 H        0.926     0.037     2.491     2.468
    82   1 H        0.926     0.040     2.449     2.447
    83   1 H        0.926     0.033     2.537     2.491
    84   1 H        0.926     0.035     2.522     2.483
    85   1 H        0.926     0.040     2.446     2.446
    86   1 H        0.926     0.037     2.495     2.470
    87   1 H        0.926     0.037     2.495     2.470
    88   1 H        0.926     0.033     2.545     2.495
    89   1 H        0.926     0.033     2.537     2.491
    90   1 H        0.926     0.033     2.544     2.494
    91   1 H        0.926     0.037     2.494     2.470
    92   1 H        0.926     0.037     2.494     2.470
    93   1 H        0.926     0.033     2.545     2.495
    94   1 H        0.926     0.033     2.538     2.491
    95   1 H        0.926     0.033     2.544     2.494
    96   1 H        0.926     0.040     2.445     2.445
    97   1 H        0.926     0.035     2.522     2.483
    98   1 H        0.926     0.036     2.505     2.475
    99   1 H        0.926     0.040     2.442     2.444
   100   1 H        0.926     0.037     2.492     2.469
   101   1 H        0.926     0.036     2.497     2.471
   102   1 H        0.926     0.033     2.549     2.497
   103   1 H        0.926     0.033     2.542     2.493
   104   1 H        0.926     0.033     2.547     2.496
   105   1 H        0.926     0.036     2.503     2.474
   106   1 H        0.926     0.036     2.498     2.472
   107   1 H        0.926     0.033     2.548     2.496
   108   1 H        0.926     0.033     2.540     2.492
   109   1 H        0.926     0.033     2.545     2.495
   110   1 H        0.926     0.040     2.449     2.447
   111   1 H        0.926     0.034     2.536     2.491

molecular dipole:
                 x           y           z       tot (Debye)
 q only:        0.024      -0.088       0.003
   full:        0.025      -0.098       0.002       0.258

 projected vibrational frequencies (cm⁻¹)
eigval :       -0.00    -0.00    -0.00    -0.00     0.00     0.00
eigval :        8.35     8.68     9.82    10.30    12.20    12.23
eigval :       22.87    30.83    31.24    40.21    41.09    41.61
eigval :       46.77    48.82    52.05    58.79    59.00    59.78
eigval :       62.40    62.80    75.91    76.49    76.56    82.52
eigval :       93.11   100.66   103.87   115.98   123.67   125.79
eigval :      136.81   142.26   146.08   167.55   169.81   170.51
eigval :      189.51   197.13   207.15   217.65   223.27   233.02
eigval :      236.07   236.29   236.32   279.14   284.92   290.97
eigval :      305.64   305.92   307.55   321.22   329.81   337.49
eigval :      348.33   349.89   363.96   370.54   375.80   378.07
eigval :      378.52   378.56   380.92   381.00   381.63   389.80
eigval :      393.05   393.08   394.37   404.02   410.50   421.31
eigval :      463.88   471.14   473.19   474.98   483.89   485.27
eigval :      487.23   487.76   489.86   491.27   502.45   503.68
eigval :      512.83   542.71   542.85   571.25   571.32   583.33
eigval :      584.44   584.47   585.81   590.03   590.05   592.70
eigval :      593.95   593.97   606.26   606.79   609.26   621.38
eigval :      641.61   645.65   659.85   661.33   661.35   663.58
eigval :      664.07   667.69   670.99   679.35   683.88   692.82
eigval :      694.27   718.68   721.09   732.83   758.34   758.53
eigval :      758.57   760.20   760.23   762.03   794.09   795.33
eigval :      819.40   820.06   821.79   865.14   866.02   866.75
eigval :      875.98   876.01   876.11   876.93   877.00   877.14
eigval :      895.29   895.52   895.63   895.84   895.85   895.92
eigval :      910.17   910.17   910.19   912.53   915.80   916.19
eigval :      916.51   920.17   920.46   924.33   924.90   925.15
eigval :      928.34   928.35   928.42   929.44   929.47   929.48
eigval :      930.97   931.02   931.16   931.67   931.73   931.80
eigval :      978.55   978.66   978.95   996.46   996.62  1004.39
eigval :     1005.23  1005.27  1005.30  1030.00  1030.03  1065.95
eigval :     1082.63  1082.69  1082.82  1083.78  1083.83  1083.86
eigval :     1122.05  1122.08  1122.10  1123.91  1123.99  1124.02
eigval :     1148.21  1148.48  1149.30  1180.38  1180.41  1180.46
eigval :     1180.49  1180.53  1180.54  1186.64  1186.84  1187.29
eigval :     1195.03  1195.18  1195.24  1197.23  1197.53  1199.57
eigval :     1211.56  1211.60  1218.73  1231.59  1232.52  1271.91
eigval :     1272.58  1273.00  1278.11  1278.23  1278.28  1281.11
eigval :     1281.79  1281.83  1288.35  1297.93  1310.73  1311.10
eigval :     1311.58  1316.97  1317.04  1317.05  1325.84  1325.93
eigval :     1326.01  1328.23  1328.30  1328.69  1329.57  1333.62
eigval :     1333.98  1374.35  1399.65  1401.04  1417.16  1419.18
eigval :     1419.34  1436.25  1436.32  1436.40  1442.19  1442.32
eigval :     1442.52  1469.77  1469.93  1470.80  1474.32  1474.58
eigval :     1474.65  1488.22  1488.96  1497.06  1502.56  1503.12
eigval :     1549.66  1550.65  1551.24  1578.37  1578.40  1578.43
eigval :     1582.16  1582.18  1582.30  1590.91  1591.05  1593.35
eigval :     1593.86  1594.03  1594.07  1600.55  1600.63  1600.66
eigval :     2360.12  2360.27  2363.99  3077.29  3077.30  3077.49
eigval :     3078.06  3078.07  3078.25  3079.35  3079.51  3080.45
eigval :     3080.48  3080.49  3080.73  3080.79  3080.81  3081.23
eigval :     3082.78  3084.58  3084.75  3087.19  3087.24  3087.29
eigval :     3088.13  3088.17  3088.20  3091.32  3091.36  3091.46
eigval :     3091.91  3091.97  3092.08  3097.17  3097.20  3097.54
eigval :     3098.24  3098.61  3098.69  3099.05  3099.09  3099.19
eigval :     3099.50  3099.56  3099.68

   temp. (K)  partition function   enthalpy   heat capacity  entropy
                                   cal/mol     cal/K/mol   cal/K/mol   J/K/mol
 298.15  VIB  0.457E+30            34721.441    208.929    222.659
         ROT  0.368E+09              888.752      2.981     42.175
         INT  0.168E+39            35610.193    211.910    264.834
         TR   0.254E+29             1481.254      4.968     46.190
         TOT                       37091.4468   216.8783   311.0238  1301.3236

       T/K    H(0)-H(T)+PV         H(T)/Eh          T*S/Eh         G(T)/Eh
   ------------------------------------------------------------------------
    298.15    0.591090E-01    0.903628E+00    0.147777E+00    0.755851E+00
   ------------------------------------------------------------------------

         :::::::::::::::::::::::::::::::::::::::::::::::::::::
         ::                  THERMODYNAMIC                  ::
         :::::::::::::::::::::::::::::::::::::::::::::::::::::
         :: total free energy        -173.014111613034 Eh   ::
         ::.................................................::
         :: total energy             -173.769962502478 Eh   ::
         :: zero point energy           0.844519356432 Eh   ::
         :: G(RRHO) w/o ZPVE           -0.088668466987 Eh   ::
         :: G(RRHO) contrib.            0.755850889444 Eh   ::
         :::::::::::::::::::::::::::::::::::::::::::::::::::::

           -------------------------------------------------
          | TOTAL ENERGY             -173.769962502478 Eh   |
          | TOTAL ENTHALPY           -172.866334163064 Eh   |
          | TOTAL FREE ENERGY        -173.014111613034 Eh   |
          | GRADIENT NORM               0.000122829821 Eh/α |
          | HOMO-LUMO GAP               1.697312782351 eV   |
           -------------------------------------------------

 * finished run on 2025/08/30 at 15:01:51.188
