   * xtb version 6.7.1 (edcfbbe) compiled by 'albert@albert-system' on 2024-07-22

   ID    Z sym.   atoms
    1    7 N      1, 9, 26, 32, 49, 55
    2    6 C      2-8, 10-25, 27-31, 33-48, 50-54, 56-69
    3    1 H      70-111

          program call               : xtb data2507/gas/3DPA3CN/3DPA3CN_gas_S0_finalOpt.xtbopt.xyz --gfn 2 --spinpol --tblite --uhf 2 --ohess vtight --parallel 40 --molden --ceasefiles --namespace data2507/gas/3DPA3CN/3DPA3CN_gas_T1_preOpt
 * total energy  :  -173.6922411 Eh     change        0.3565776E-07 Eh
 * total energy  :  -173.6938726 Eh     change       -0.1631520E-02 Eh
 * total energy  :  -173.6942946 Eh     change       -0.4220194E-03 Eh
 * total energy  :  -173.6944584 Eh     change       -0.1638021E-03 Eh
 * total energy  :  -173.6948469 Eh     change       -0.3884349E-03 Eh
 * total energy  :  -173.6949971 Eh     change       -0.1501816E-03 Eh
 * total energy  :  -173.6951582 Eh     change       -0.1611959E-03 Eh
 * total energy  :  -173.6952272 Eh     change       -0.6893718E-04 Eh
 * total energy  :  -173.6952933 Eh     change       -0.6610482E-04 Eh
 * total energy  :  -173.6953582 Eh     change       -0.6487964E-04 Eh
 * total energy  :  -173.6962454 Eh     change       -0.1243765E-05 Eh
 * total energy  :  -173.6962469 Eh     change       -0.1498268E-05 Eh
 * total energy  :  -173.6962498 Eh     change       -0.2941705E-05 Eh
 * total energy  :  -173.6962535 Eh     change       -0.3684532E-05 Eh
 * total energy  :  -173.6962571 Eh     change       -0.3559342E-05 Eh
 * total energy  :  -173.6962597 Eh     change       -0.2659535E-05 Eh
 * total energy  :  -173.6962614 Eh     change       -0.1625820E-05 Eh
 * total energy  :  -173.6962625 Eh     change       -0.1158574E-05 Eh
 * total energy  :  -173.6962625 Eh     change       -0.1115552E-07 Eh
   *** GEOMETRY OPTIMIZATION CONVERGED AFTER 68 ITERATIONS ***

 final structure:
================
111
 xtb: 6.7.1 (edcfbbe)
N           -0.82197552280012        3.88277379285788       -0.00527807236328
C           -0.58134188504410        2.75211414245927       -0.00543358172426
C           -0.29154886699423        1.38986676594424       -0.00536880273629
C            1.05899073177443        0.94335773244428       -0.01154591597676
C            2.14605162125612        1.92639536443744        0.00980422977628
C            2.17731146337752        2.93551554533356        0.97240410533159
C            3.20585768626281        3.84969554369398        1.00081984351681
C            4.22984571787362        3.79102754074444        0.05266208674889
N            5.27075399111950        4.72197552045724        0.07634896350665
C            5.01076918172375        6.04637745947011        0.44179876238641
C            5.94031874343276        6.76871999786513        1.19161128267721
C            5.67760413469733        8.07644527553325        1.54909562087255
C            4.48905341106401        8.68172917823690        1.17300839593137
C            3.56123722851460        7.96723240993215        0.43184403599671
C            3.81569737313876        6.66096838114899        0.06391498240956
C            6.56859570037834        4.32729115471380       -0.26050945282628
C            7.41405192008399        5.19650586991675       -0.95209599671440
C            8.69619879416209        4.80291575943103       -1.28073094778109
C            9.15388981719150        3.54169242081125       -0.93390380815676
C            8.31677732402713        2.67353863835891       -0.25103807731805
C            7.03486358270588        3.05840199371440        0.08829313165372
C            4.19635878177864        2.78883147681312       -0.91921136520315
C            3.17253344187150        1.86881746437024       -0.93352632059903
C            1.34045372518575       -0.41363653964225       -0.01820020133965
C            2.68559700273526       -0.78830402154442        0.16157027209650
N            3.78592642510545       -1.05608425466469        0.36876465264596
C            0.30365209413837       -1.40746834323597       -0.00424147059654
C            0.60022891625474       -2.80371770268942       -0.00203477190734
C           -0.20849549364789       -3.73142730128829        0.69878747999472
C            0.07555688099176       -5.06860903652326        0.70306320489800
C            1.18604741267217       -5.56870831377731        0.00199689024678
N            1.47445845799364       -6.93166275315504        0.00373025990436
C            0.43435976153565       -7.86165696113670       -0.00169030363187
C           -0.74300923825749       -7.60062997222373       -0.70781592882750
C           -1.77253576896206       -8.51962785147413       -0.70208759162435
C           -1.64926148378721       -9.70909916116308       -0.00023148439168
C           -0.48355291362573       -9.97273597291426        0.70275319571244
C            0.55165181179408       -9.06002770993083        0.70772555761087
C            2.80202116035600       -7.36081654090066        0.01136099023287
C            3.77230545612410       -6.64347570474073        0.71627844871416
C            5.08573629703543       -7.06703065706207        0.71291811650256
C            5.45515602816404       -8.20658687157966        0.01465116468714
C            4.49658989857206       -8.92156855439519       -0.68714933813707
C            3.18052542211239       -8.50609143617621       -0.69447507361795
C            1.99898379785846       -4.66310402484804       -0.70071734299496
C            1.71643448370436       -3.32555177087069       -0.70027026298663
C           -1.04789467757693       -0.92170568027548        0.00849104094112
C           -2.12373403457537       -1.81184875956545       -0.17174828814614
N           -3.01917413894861       -2.50478637939924       -0.37976606005189
C           -1.34341064036452        0.43226833573428        0.00115375335476
C           -2.73657918723911        0.88735134325713       -0.01835599246891
C           -3.17782359466033        1.79761339785393       -0.97888452727902
C           -4.48949048646378        2.21407457222416       -1.00402237410658
C           -5.39900241722642        1.74236364187944       -0.05468446046817
N           -6.72877951366071        2.16905303263019       -0.07463693381330
C           -7.75242846125728        1.27919241435954        0.26309513483957
C           -7.66260873655337       -0.06857522529255       -0.08986665241404
C           -8.67539485149690       -0.94320940109236        0.25048793260039
C           -9.79112395524346       -0.49326424642637        0.93856624988487
C           -9.88564906944836        0.84402092667721        1.28954373088768
C           -8.87617816586908        1.72669951567881        0.95986596377299
C           -7.03157332349366        3.48542473970993       -0.43585259126331
C           -6.18865895656441        4.53234660649557       -0.05875814095593
C           -6.48948028171975        5.82997764067054       -0.42223213189022
C           -7.63078333000718        6.10677503891869       -1.15808750061053
C           -8.47146913214225        5.07100627940602       -1.53345622679469
C           -8.17762928463195        3.76870669485844       -1.18044444077094
C           -4.95862507635221        0.83898971565760        0.91487017055277
C           -3.64894971062081        0.41547780701636        0.92602728491285
H            1.40305970088850        2.98341809947158        1.72315292223717
H            3.23246880816157        4.60986026756845        1.76727462405631
H            6.86020153790132        6.29310158897107        1.49874881700377
H            6.40219118828899        8.62359708129140        2.13380103725411
H            4.28676808967957        9.70306071998818        1.45720174512608
H            2.63408277352439        8.43166418299411        0.13163322803072
H            3.09503819060946        6.10974127422782       -0.52148176002748
H            7.05364593547188        6.17416362663172       -1.23674569051670
H            9.33934930299444        5.48282812939295       -1.81961870718789
H           10.15585804399764        3.23734795260246       -1.19523652811313
H            8.66600571382740        1.69042986971170        0.02654749053775
H            6.38913508806873        2.38332208459581        0.62979207287952
H            4.97261653375371        2.74707011424803       -1.66880886879413
H            3.15065669174987        1.10931636675259       -1.70112413536667
H           -1.03730158539812       -3.37119338221260        1.28787286687171
H           -0.53479361330310       -5.74967741758058        1.27825043113727
H           -0.83478061785464       -6.68057259248797       -1.26525062285509
H           -2.67540634386221       -8.30852353259508       -1.25488137386468
H           -2.45650812560855      -10.42526568612780        0.00053900060779
H           -0.38394908106646      -10.89279344853031        1.25925088288587
H            1.45170247922213       -9.25787064028927        1.27117886084827
H            3.48322555764690       -5.76349840222427        1.27101695342501
H            5.82535876471442       -6.50694708354695        1.26481283433343
H            6.48321495186055       -8.53466100301063        0.01574854648948
H            4.77847162232917       -9.80476982461304       -1.24087518501710
H            2.43809895597036       -9.05298332939123       -1.25699106820349
H            2.83358631348555       -5.03969982803413       -1.27416369109295
H            2.32861987761575       -2.66169225857756       -1.29037075265779
H           -2.49161904454130        2.15762744957198       -1.73047576576843
H           -4.82475158565391        2.89879027150202       -1.76873257102544
H           -6.79973330297911       -0.42050668266445       -0.63531232079659
H           -8.59487832569695       -1.98250716281536       -0.03038840346856
H          -10.58131858694405       -1.18009290373818        1.20070625584174
H          -10.74804884925748        1.20142399253218        1.83254551855269
H           -8.94420524175109        2.76554872827226        1.24778540857892
H           -5.30372108464269        4.32083111486045        0.52265201443194
H           -5.83049405842835        6.63086122926925       -0.12261995478948
H           -7.86299404612780        7.12272523703889       -1.43867581126606
H           -9.35842344263145        5.27726430863966       -2.11402237931205
H           -8.82545570342962        2.96059765262525       -1.48705710633261
H           -5.64921204416226        0.48369842797346        1.66525205802226
H           -3.31830291813352       -0.27043259638989        1.69200798403917

 projected vibrational frequencies (cm⁻¹)
eigval :       -0.00    -0.00    -0.00    -0.00     0.00     0.00
eigval :        7.61     8.14     8.24    10.73    12.10    12.68
eigval :       20.94    28.56    31.90    39.57    39.90    40.37
eigval :       46.67    48.95    52.45    57.53    59.98    60.14
eigval :       62.57    63.21    76.29    77.03    82.06    83.55
eigval :       90.75   100.15   101.23   116.35   124.70   130.22
eigval :      136.68   137.50   161.54   167.98   171.57   173.80
eigval :      186.16   197.20   207.52   216.73   222.50   228.59
eigval :      233.83   234.61   234.78   280.20   286.47   290.07
eigval :      305.42   307.01   309.03   314.50   318.01   332.15
eigval :      346.15   349.38   363.17   368.95   376.64   376.70
eigval :      377.16   377.51   378.96   379.94   382.47   386.11
eigval :      390.07   391.35   397.34   406.56   406.79   422.48
eigval :      438.84   460.61   460.83   470.27   470.92   479.42
eigval :      483.25   483.31   489.94   493.19   499.67   507.03
eigval :      511.98   516.92   528.51   567.70   569.62   577.85
eigval :      582.45   582.99   583.14   584.58   588.69   589.54
eigval :      590.99   592.51   593.12   598.56   605.27   610.32
eigval :      620.98   626.92   652.81   656.78   659.43   660.18
eigval :      660.47   661.82   663.16   665.19   681.70   682.25
eigval :      690.09   692.34   717.99   730.74   755.68   757.44
eigval :      757.63   758.23   759.49   760.70   789.65   793.95
eigval :      806.69   819.68   819.78   839.50   859.43   863.29
eigval :      869.67   872.25   872.79   872.81   874.56   875.44
eigval :      893.44   893.97   895.40   895.42   896.48   896.75
eigval :      905.58   907.34   909.76   909.76   909.93   913.39
eigval :      914.70   914.75   916.09   918.37   923.60   923.63
eigval :      926.40   927.39   927.39   928.36   928.39   928.84
eigval :      929.42   929.49   930.10   930.17   930.60   930.77
eigval :      957.92   972.84   976.65   982.73   991.22   998.36
eigval :     1000.17  1003.32  1003.36  1013.00  1015.48  1046.38
eigval :     1048.18  1079.73  1080.71  1081.65  1081.69  1082.54
eigval :     1082.59  1121.86  1122.32  1122.34  1124.27  1124.68
eigval :     1124.70  1145.39  1145.43  1149.17  1171.86  1179.01
eigval :     1179.15  1179.70  1179.74  1179.84  1179.87  1183.80
eigval :     1184.45  1190.95  1191.54  1193.73  1193.81  1194.04
eigval :     1195.54  1207.85  1209.32  1217.76  1225.78  1227.02
eigval :     1266.78  1270.20  1270.58  1275.06  1276.55  1276.65
eigval :     1277.78  1277.99  1279.18  1289.44  1301.48  1305.77
eigval :     1308.28  1310.29  1312.29  1312.83  1316.93  1316.95
eigval :     1318.97  1322.60  1326.30  1326.57  1326.99  1327.97
eigval :     1329.37  1331.19  1337.53  1372.73  1410.01  1412.25
eigval :     1425.34  1431.19  1434.48  1434.67  1436.54  1439.95
eigval :     1441.59  1441.88  1451.58  1457.43  1459.35  1461.55
eigval :     1463.49  1464.59  1465.14  1465.27  1465.41  1482.51
eigval :     1487.38  1543.38  1544.00  1551.09  1561.45  1566.27
eigval :     1571.34  1571.39  1574.63  1575.08  1576.52  1579.40
eigval :     1582.64  1585.77  1585.81  1586.20  1593.01  1595.62
eigval :     2264.70  2300.38  2326.34  3078.04  3078.82  3078.85
eigval :     3079.47  3079.71  3079.73  3079.75  3080.80  3081.22
eigval :     3081.27  3084.47  3084.48  3084.63  3084.66  3085.67
eigval :     3085.91  3086.04  3086.11  3089.31  3089.34  3090.07
eigval :     3090.48  3090.52  3091.12  3092.92  3092.97  3095.19
eigval :     3095.21  3095.49  3095.53  3096.23  3096.48  3098.01
eigval :     3098.22  3100.87  3101.04  3101.53  3101.62  3101.87
eigval :     3102.65  3102.79  3103.26

   temp. (K)  partition function   enthalpy   heat capacity  entropy
                                   cal/mol     cal/K/mol   cal/K/mol   J/K/mol
 298.15  VIB  0.772E+30            34921.313    210.433    223.829
         ROT  0.183E+09              888.752      2.981     40.788
         INT  0.141E+39            35810.065    213.414    264.617
         TR   0.254E+29             1481.254      4.968     46.190
         TOT                       37291.3189   218.3821   310.8066  1300.4149

       T/K    H(0)-H(T)+PV         H(T)/Eh          T*S/Eh         G(T)/Eh
   ------------------------------------------------------------------------
    298.15    0.594275E-01    0.899828E+00    0.147674E+00    0.752153E+00
   ------------------------------------------------------------------------

         :::::::::::::::::::::::::::::::::::::::::::::::::::::
         ::                  THERMODYNAMIC                  ::
         :::::::::::::::::::::::::::::::::::::::::::::::::::::
         :: total free energy        -172.944109149922 Eh   ::
         ::.................................................::
         :: total energy             -173.696262508277 Eh   ::
         :: zero point energy           0.840400111641 Eh   ::
         :: G(RRHO) w/o ZPVE           -0.088246753286 Eh   ::
         :: G(RRHO) contrib.            0.752153358356 Eh   ::
         :::::::::::::::::::::::::::::::::::::::::::::::::::::

           -------------------------------------------------
          | TOTAL ENERGY             -173.696262508277 Eh   |
          | TOTAL ENTHALPY           -172.796434897281 Eh   |
          | TOTAL FREE ENERGY        -172.944109149922 Eh   |
          | GRADIENT NORM               0.000178965828 Eh/α |
           -------------------------------------------------

 * finished run on 2025/08/30 at 15:02:22.351
