   * xtb version 6.7.1 (edcfbbe) compiled by 'albert@albert-system' on 2024-07-22

   ID    Z sym.   atoms
    1    7 N      1, 9, 26, 32, 49, 55
    2    6 C      2-8, 10-25, 27-31, 33-48, 50-54, 56-69
    3    1 H      70-111

          program call               : xtb data2507/gas/3DPA3CN/3DPA3CN.xyz --gfn 2 --ohess vtight --parallel 40 --molden --ceasefiles --namespace data2507/gas/3DPA3CN/3DPA3CN_gas_S0_preOpt
          :  Hamiltonian                  GFN2-xTB          :
 * total energy  :  -173.7217595 Eh     change       -0.5901768E-08 Eh
 * total energy  :  -173.7430512 Eh     change       -0.2129172E-01 Eh
 * total energy  :  -173.7514375 Eh     change       -0.8386225E-02 Eh
 * total energy  :  -173.7549335 Eh     change       -0.3496023E-02 Eh
 * total energy  :  -173.7572130 Eh     change       -0.2279544E-02 Eh
 * total energy  :  -173.7580685 Eh     change       -0.8554272E-03 Eh
 * total energy  :  -173.7588899 Eh     change       -0.8214644E-03 Eh
 * total energy  :  -173.7592190 Eh     change       -0.3290849E-03 Eh
 * total energy  :  -173.7596436 Eh     change       -0.4245954E-03 Eh
 * total energy  :  -173.7598581 Eh     change       -0.2145116E-03 Eh
 * total energy  :  -173.7698753 Eh     change       -0.6180704E-06 Eh
 * total energy  :  -173.7698759 Eh     change       -0.6132401E-06 Eh
 * total energy  :  -173.7698765 Eh     change       -0.6113324E-06 Eh
 * total energy  :  -173.7698771 Eh     change       -0.6054678E-06 Eh
 * total energy  :  -173.7698777 Eh     change       -0.6038024E-06 Eh
 * total energy  :  -173.7698783 Eh     change       -0.5977614E-06 Eh
 * total energy  :  -173.7698789 Eh     change       -0.5961383E-06 Eh
 * total energy  :  -173.7698795 Eh     change       -0.5892920E-06 Eh
 * total energy  :  -173.7698795 Eh     change       -0.6392128E-08 Eh
   *** GEOMETRY OPTIMIZATION CONVERGED AFTER 500 ITERATIONS ***

 final structure:
================
111
 xtb: 6.7.1 (edcfbbe)
N           -1.28384907840221        3.77154656812311       -0.00090109109962
C           -0.91417236466031        2.68554176331902       -0.00063912715566
C           -0.45834701697673        1.34645468751937       -0.00031704109567
C            0.92088124830324        1.08897855784730       -0.00334110587478
C            1.89071048303090        2.18595789933161        0.02006694511537
C            1.79920932107411        3.19529894933560        0.97783929933154
C            2.72186181265474        4.21543585002194        1.01463679357962
C            3.75656359397392        4.27431529010328        0.07634979642768
N            4.68106204071909        5.30960908721910        0.10521994463813
C            4.30593671776391        6.58490523557668        0.55581929887013
C            5.18234774778379        7.33959593948329        1.33370286117793
C            4.81689033781424        8.59918668091155        1.76795978024310
C            3.57564791312910        9.12050240595723        1.44187279765455
C            2.70086659028526        8.37288485528942        0.67062008256661
C            3.06037170121672        7.11593005087128        0.22409151839932
C            6.00476869946534        5.09408231866942       -0.30828432577234
C            6.68239022898918        6.07678038998754       -1.02803140436036
C            7.98964738353128        5.87033651050499       -1.42438007077512
C            8.63608435381088        4.68413930255565       -1.11799860199728
C            7.96539227336129        3.70399223439391       -0.40489968599677
C            6.66096641265837        3.90431669137046        0.00373157132943
C            3.84045840829318        3.26785606035057       -0.89042182234934
C            2.93037296987461        2.23573662284241       -0.90786411632860
C            1.35735319256471       -0.24414755771822       -0.01053167567420
C            2.74161609632651       -0.51629771297491        0.09337358034012
N            3.86000020267287       -0.73522894072215        0.22471826737865
C            0.44625900849207       -1.31102922163149        0.00031027381391
C            0.91773053412956       -2.69607065360482        0.00062456995122
C            0.42548969100949       -3.61513929326506        0.92697502342728
C            0.87777899881008       -4.91445117336404        0.93813220648781
C            1.82069318009382       -5.34867720309083        0.00121928620010
N            2.26779960943500       -6.66211275900608        0.00151320968765
C            1.42721010630365       -7.70207421361132        0.42924798118505
C            0.07371693913073       -7.70426547985236        0.09570267165140
C           -0.74326320404477       -8.73446523342275        0.51998284536196
C           -0.22541430686557       -9.77763471466771        1.27009466026756
C            1.12060251427502       -9.78281211927540        1.59721182559230
C            1.94405781929632       -8.75282857526237        1.18521707086496
C            3.56837083742832       -6.97338342415420       -0.42591649972822
C            4.64204239362444       -6.14920098355671       -0.09252007280892
C            5.91795135073981       -6.46713848687889       -0.51649385167974
C            6.14422395612446       -7.60987935544874       -1.26614832813216
C            5.08097010183148       -8.43533490828744       -1.59311656699720
C            3.80006470130171       -8.12152465795142       -1.18142576376283
C            2.30297726870191       -4.42972550026967       -0.93599756297335
C            1.86860260902991       -3.12431095719958       -0.92542422943654
C           -0.92653080707919       -1.02157612481608        0.01083988740502
C           -1.85725606830582       -2.08179601248455       -0.09273865773417
N           -2.60978730716237       -2.93764826749129       -0.22381362045779
C           -1.39405054091131        0.30097808663779        0.00302185342726
C           -2.83173564364555        0.57843109824173       -0.02070172269490
C           -3.37491139068877        1.43356181675428       -0.97891914277528
C           -4.72833314343794        1.67890960615287       -1.01600404969939
C           -5.58419789533267        1.09469757219121       -0.07757497782452
N           -6.94832911488016        1.35093614674776       -0.10673747179112
C           -7.86569955251966        0.37276988491185        0.30709681089488
C           -7.65971450570772       -0.97040123869991       -0.00427570493364
C           -8.57108481196606       -1.92475893614561        0.40467651066699
C           -9.70056785532374       -1.55701812839548        1.11746050625151
C           -9.91210938414624       -0.22263173856968        1.42320091471194
C           -9.00223071802703        0.73830746018946        1.02652832408723
C           -7.42910869727870        2.59004308921572       -0.55796468150837
C           -6.76625348451462        3.77086021261367       -0.22667021352144
C           -7.24822216547460        4.98590555653588       -0.67381482619132
C           -8.39734174764853        5.04420061458609       -1.44526217671320
C           -9.06269587191491        3.87371551715147       -1.77092163520556
C           -8.58383388256951        2.65294480124498       -1.33604562302101
C           -5.03675459178562        0.24649470781747        0.88963932253136
C           -3.68597711065823       -0.01602480906955        0.90737437459392
H            1.01995471975057        3.15776572370909        1.72473341894595
H            2.65323026705699        4.97314413245377        1.78030586760628
H            6.14718169355536        6.93036504794569        1.59545374553162
H            5.50355065562748        9.17354642979157        2.37217506040961
H            3.29209030466309       10.10335607489518        1.78633103165800
H            1.73322499188220        8.77319287858203        0.40711020074174
H            2.37981639428109        6.53927994059050       -0.38495960864405
H            6.17631329545173        6.99888994377093       -1.27402145525655
H            8.50371570833324        6.63843310373677       -1.98316399918895
H            9.65633908131064        4.52500244137297       -1.43236570637473
H            8.46306215301262        2.77840197571510       -0.15665587324274
H            6.14432884990752        3.14227667982321        0.56854637702141
H            4.62284811922519        3.30640262806837       -1.63309583944625
H            3.00337669043653        1.47700920793435       -1.67343020590978
H           -0.28987801953507       -3.29654439080385        1.67103316647117
H            0.50872040318779       -5.60438598511060        1.68169023532346
H           -0.33090210111084       -6.89746435810599       -0.49758373057101
H           -1.79011061105973       -8.72510054856297        0.25536397974789
H           -0.86658472809907      -10.58200544961528        1.59712259083714
H            1.53200871710046      -10.59040950512211        2.18455371770762
H            2.99204208881279       -8.75327313535135        1.44720362509191
H            4.47029095744004       -5.26287790291349        0.50041017985306
H            6.74162521202006       -5.82091786379194       -0.25199329824198
H            7.14304004564356       -7.85611970834491       -1.59293753057051
H            5.24782771269432       -9.32642570994153       -2.18010446315731
H            2.97004687255858       -8.76137043467850       -1.44329598410789
H            3.01642923043409       -4.75150103228451       -1.67932767014059
H            2.24112125664084       -2.43572674881607       -1.66970778116923
H           -2.73449181950946        1.87892395555545       -1.72592162529010
H           -5.13613203811383        2.32079659500242       -1.78200812432804
H           -6.78537891115606       -1.25924937460610       -0.56884553853222
H           -8.40067372900349       -2.96187033230565        0.15693132262371
H          -10.41189705468972       -2.30541401252866        1.43207983429358
H          -10.78810440104853        0.07258006911582        1.98173545610362
H           -9.16385728613461        1.77778906459679        1.27201934665602
H           -5.87530703575310        3.72945353334284        0.38252935110763
H           -6.72581076029670        5.89356042702139       -0.41063578781265
H           -8.77226903551602        5.99578009418030       -1.79020247608277
H           -9.95708178120633        3.90958438863655       -2.37528482301911
H           -9.09857739693551        1.73993379242024       -1.59746106529009
H           -5.68027420336083       -0.19997611522077        1.63242485091446
H           -3.28101959561761       -0.66138826177371        1.67327500967620

          :  Hamiltonian                  GFN2-xTB          :
         :: gradient norm              0.000071284398 Eh/a0 ::
         :: HOMO-LUMO gap              1.707962618386 eV    ::
         :: SCC energy              -177.158478484701 Eh    ::
         :: -> dispersion             -0.162955065931 Eh    ::
         :: repulsion energy           3.388598950726 Eh    ::

    * Orbital Energies and Occupations

         #    Occupation            Energy/Eh            Energy/eV
      -------------------------------------------------------------
         1        2.0000           -0.6871731             -18.6989
       ...           ...                  ...                  ...
       150        2.0000           -0.4104228             -11.1682
       151        2.0000           -0.4103104             -11.1651
       152        2.0000           -0.4084896             -11.1156
       153        2.0000           -0.4082953             -11.1103
       154        2.0000           -0.4080651             -11.1040
       155        2.0000           -0.4078630             -11.0985
       156        2.0000           -0.4078148             -11.0972
       157        2.0000           -0.4065833             -11.0637
       158        2.0000           -0.4049851             -11.0202
       159        2.0000           -0.4048867             -11.0175
       160        2.0000           -0.3552156              -9.6659
       161        2.0000           -0.3548660              -9.6564
       162        2.0000           -0.3542548              -9.6398 (HOMO)
       163                         -0.2914884              -7.9318 (LUMO)
       164                         -0.2911748              -7.9233
       165                         -0.2496053              -6.7921
       166                         -0.2347135              -6.3869
       167                         -0.2343616              -6.3773
       168                         -0.2335396              -6.3549
       169                         -0.2330471              -6.3415
       170                         -0.2326955              -6.3320
       171                         -0.2323975              -6.3239
       172                         -0.2318059              -6.3078
       173                         -0.2304343              -6.2704
       ...                                ...                  ...
       318                          1.1621947              31.6249
      -------------------------------------------------------------
                  HL-Gap            0.0627664 Eh            1.7080 eV

     #   Z          covCN         q      C6AA      α(0)
     1   7 N        0.911    -0.244    26.369     7.427
     2   6 C        1.912     0.117    28.230     8.581
     3   6 C        2.977    -0.001    28.036     8.685
     4   6 C        2.989     0.027    27.397     8.586
     5   6 C        2.978    -0.004    28.115     8.698
     6   6 C        2.923    -0.027    28.674     8.781
     7   6 C        2.921    -0.046    29.154     8.854
     8   6 C        2.923     0.070    26.424     8.430
     9   7 N        2.752    -0.070    22.589     7.059
    10   6 C        2.925     0.064    26.567     8.453
    11   6 C        2.922    -0.046    29.142     8.853
    12   6 C        2.920    -0.029    28.719     8.788
    13   6 C        2.919    -0.036    28.906     8.817
    14   6 C        2.920    -0.028    28.700     8.785
    15   6 C        2.922    -0.046    29.133     8.851
    16   6 C        2.925     0.064    26.567     8.453
    17   6 C        2.922    -0.046    29.144     8.853
    18   6 C        2.920    -0.029    28.720     8.788
    19   6 C        2.919    -0.037    28.908     8.817
    20   6 C        2.920    -0.028    28.701     8.785
    21   6 C        2.922    -0.046    29.137     8.852
    22   6 C        2.921    -0.047    29.161     8.855
    23   6 C        2.923    -0.027    28.672     8.781
    24   6 C        2.978    -0.000    28.035     8.685
    25   6 C        1.913     0.116    28.236     8.582
    26   7 N        0.911    -0.245    26.382     7.429
    27   6 C        2.988     0.027    27.400     8.586
    28   6 C        2.978    -0.004    28.112     8.697
    29   6 C        2.923    -0.027    28.665     8.780
    30   6 C        2.921    -0.047    29.164     8.856
    31   6 C        2.923     0.071    26.419     8.429
    32   7 N        2.752    -0.069    22.580     7.057
    33   6 C        2.926     0.064    26.567     8.453
    34   6 C        2.922    -0.046    29.131     8.851
    35   6 C        2.920    -0.028    28.701     8.785
    36   6 C        2.919    -0.036    28.903     8.816
    37   6 C        2.920    -0.029    28.718     8.788
    38   6 C        2.922    -0.046    29.138     8.852
    39   6 C        2.926     0.064    26.567     8.453
    40   6 C        2.922    -0.046    29.131     8.851
    41   6 C        2.920    -0.028    28.701     8.785
    42   6 C        2.919    -0.036    28.903     8.816
    43   6 C        2.920    -0.029    28.718     8.788
    44   6 C        2.922    -0.046    29.138     8.852
    45   6 C        2.921    -0.047    29.164     8.856
    46   6 C        2.923    -0.027    28.665     8.780
    47   6 C        2.978    -0.000    28.035     8.685
    48   6 C        1.913     0.116    28.236     8.582
    49   7 N        0.911    -0.245    26.382     7.429
    50   6 C        2.989     0.027    27.397     8.586
    51   6 C        2.978    -0.004    28.115     8.698
    52   6 C        2.923    -0.027    28.674     8.781
    53   6 C        2.921    -0.046    29.154     8.854
    54   6 C        2.923     0.070    26.424     8.430
    55   7 N        2.752    -0.070    22.589     7.059
    56   6 C        2.925     0.064    26.567     8.453
    57   6 C        2.922    -0.046    29.137     8.852
    58   6 C        2.920    -0.028    28.701     8.785
    59   6 C        2.919    -0.037    28.908     8.817
    60   6 C        2.920    -0.029    28.720     8.788
    61   6 C        2.922    -0.046    29.144     8.853
    62   6 C        2.925     0.064    26.567     8.453
    63   6 C        2.922    -0.046    29.133     8.851
    64   6 C        2.920    -0.028    28.700     8.785
    65   6 C        2.919    -0.036    28.906     8.817
    66   6 C        2.920    -0.029    28.719     8.788
    67   6 C        2.922    -0.046    29.142     8.853
    68   6 C        2.921    -0.047    29.161     8.855
    69   6 C        2.923    -0.027    28.672     8.781
    70   1 H        0.926     0.035     2.513     2.479
    71   1 H        0.926     0.040     2.445     2.445
    72   1 H        0.926     0.033     2.546     2.495
    73   1 H        0.926     0.033     2.540     2.492
    74   1 H        0.926     0.033     2.547     2.496
    75   1 H        0.926     0.036     2.497     2.471
    76   1 H        0.926     0.036     2.498     2.471
    77   1 H        0.926     0.033     2.547     2.496
    78   1 H        0.926     0.033     2.541     2.493
    79   1 H        0.926     0.033     2.549     2.497
    80   1 H        0.926     0.036     2.497     2.471
    81   1 H        0.926     0.037     2.491     2.468
    82   1 H        0.926     0.040     2.449     2.447
    83   1 H        0.926     0.034     2.535     2.490
    84   1 H        0.926     0.034     2.529     2.487
    85   1 H        0.926     0.040     2.448     2.447
    86   1 H        0.926     0.037     2.489     2.467
    87   1 H        0.926     0.037     2.495     2.470
    88   1 H        0.926     0.033     2.545     2.495
    89   1 H        0.926     0.034     2.537     2.491
    90   1 H        0.926     0.033     2.545     2.495
    91   1 H        0.926     0.037     2.489     2.467
    92   1 H        0.926     0.037     2.495     2.470
    93   1 H        0.926     0.033     2.545     2.495
    94   1 H        0.926     0.034     2.537     2.491
    95   1 H        0.926     0.033     2.545     2.495
    96   1 H        0.926     0.040     2.448     2.447
    97   1 H        0.926     0.034     2.529     2.487
    98   1 H        0.926     0.035     2.513     2.479
    99   1 H        0.926     0.040     2.445     2.445
   100   1 H        0.926     0.037     2.491     2.468
   101   1 H        0.926     0.036     2.497     2.471
   102   1 H        0.926     0.033     2.549     2.497
   103   1 H        0.926     0.033     2.541     2.493
   104   1 H        0.926     0.033     2.547     2.496
   105   1 H        0.926     0.036     2.498     2.471
   106   1 H        0.926     0.036     2.497     2.471
   107   1 H        0.926     0.033     2.547     2.496
   108   1 H        0.926     0.033     2.540     2.492
   109   1 H        0.926     0.033     2.546     2.495
   110   1 H        0.926     0.040     2.449     2.447
   111   1 H        0.926     0.034     2.535     2.490

molecular dipole:
                 x           y           z       tot (Debye)
 q only:        0.023      -0.067       0.000
   full:        0.025      -0.074      -0.000       0.198

 projected vibrational frequencies (cm⁻¹)
eigval :       -0.00    -0.00    -0.00     0.00     0.00     0.00
eigval :        8.29     8.61     9.77    10.20    12.12    12.20
eigval :       22.95    30.87    31.02    40.34    41.45    41.79
eigval :       46.52    48.76    51.96    58.54    58.75    59.98
eigval :       62.62    62.70    75.25    75.74    76.24    82.13
eigval :       92.94   100.80   103.37   115.61   122.67   124.73
eigval :      136.30   140.16   144.60   166.43   169.43   169.81
eigval :      190.12   196.76   207.21   217.82   223.38   233.25
eigval :      236.26   236.46   236.70   278.83   284.34   290.35
eigval :      305.58   305.77   307.49   321.64   330.48   337.69
eigval :      348.07   349.32   363.32   370.19   375.49   378.18
eigval :      378.59   378.65   380.56   380.75   381.30   389.12
eigval :      392.86   392.98   394.12   404.46   410.72   421.37
eigval :      464.10   471.31   473.26   474.69   484.20   485.50
eigval :      487.09   487.65   490.33   491.24   502.53   503.76
eigval :      512.68   542.75   542.75   571.26   571.28   583.34
eigval :      584.41   584.46   585.79   589.97   589.98   592.71
eigval :      593.91   593.96   606.32   606.72   609.24   621.25
eigval :      641.64   645.68   660.00   661.48   661.60   663.68
eigval :      664.29   667.88   670.89   678.89   683.70   692.63
eigval :      693.99   718.81   721.02   732.63   758.46   758.64
eigval :      758.74   760.25   760.29   762.10   794.18   794.92
eigval :      819.20   819.94   821.70   864.95   865.87   866.57
eigval :      876.15   876.17   876.40   876.98   877.01   877.18
eigval :      895.46   895.78   895.82   895.91   896.09   896.21
eigval :      910.08   910.12   910.15   912.54   915.44   915.97
eigval :      916.24   920.12   920.36   924.17   924.80   924.94
eigval :      928.40   928.40   928.53   929.32   929.38   929.40
eigval :      931.20   931.20   931.54   931.93   931.94   932.24
eigval :      978.54   978.64   978.93   996.39   996.69  1004.33
eigval :     1005.24  1005.29  1005.30  1030.12  1030.26  1066.43
eigval :     1082.56  1082.58  1082.75  1083.71  1083.78  1083.81
eigval :     1121.94  1121.99  1122.03  1123.74  1123.86  1123.91
eigval :     1148.48  1148.70  1149.54  1180.38  1180.40  1180.45
eigval :     1180.49  1180.53  1180.54  1186.63  1186.95  1187.37
eigval :     1194.93  1195.08  1195.15  1197.41  1197.66  1199.72
eigval :     1211.49  1211.62  1218.65  1231.94  1232.60  1271.99
eigval :     1272.62  1273.03  1278.05  1278.19  1278.23  1281.04
eigval :     1281.70  1281.77  1288.52  1297.89  1310.30  1310.90
eigval :     1311.36  1316.53  1316.75  1316.77  1325.67  1325.82
eigval :     1325.90  1328.36  1328.38  1328.98  1329.61  1334.04
eigval :     1334.35  1374.93  1400.75  1401.16  1417.21  1419.21
eigval :     1419.37  1436.26  1436.33  1436.43  1442.10  1442.24
eigval :     1442.47  1469.75  1469.95  1470.83  1474.23  1474.49
eigval :     1474.57  1488.59  1489.22  1497.46  1503.48  1503.53
eigval :     1549.86  1550.81  1551.35  1578.39  1578.43  1578.46
eigval :     1582.17  1582.20  1582.31  1591.13  1591.19  1593.52
eigval :     1593.81  1593.99  1594.04  1600.62  1600.66  1600.71
eigval :     2360.64  2361.11  2364.74  3077.29  3077.31  3077.45
eigval :     3078.05  3078.08  3078.20  3079.66  3079.78  3080.29
eigval :     3080.56  3080.58  3080.71  3080.75  3080.78  3080.96
eigval :     3082.24  3083.80  3083.97  3087.18  3087.23  3087.26
eigval :     3088.13  3088.14  3088.15  3091.35  3091.41  3091.48
eigval :     3091.92  3091.99  3092.09  3097.34  3097.39  3097.71
eigval :     3098.41  3098.64  3098.74  3099.04  3099.08  3099.16
eigval :     3099.53  3099.57  3099.68

   temp. (K)  partition function   enthalpy   heat capacity  entropy
                                   cal/mol     cal/K/mol   cal/K/mol   J/K/mol
 298.15  VIB  0.508E+30            34735.663    208.922    222.863
         ROT  0.184E+09              888.752      2.981     40.802
         INT  0.935E+38            35624.415    211.903    263.665
         TR   0.254E+29             1481.254      4.968     46.190
         TOT                       37105.6691   216.8712   309.8548  1296.4325

       T/K    H(0)-H(T)+PV         H(T)/Eh          T*S/Eh         G(T)/Eh
   ------------------------------------------------------------------------
    298.15    0.591316E-01    0.903636E+00    0.147222E+00    0.756414E+00
   ------------------------------------------------------------------------

         :::::::::::::::::::::::::::::::::::::::::::::::::::::
         ::                  THERMODYNAMIC                  ::
         :::::::::::::::::::::::::::::::::::::::::::::::::::::
         :: total free energy        -173.013465390122 Eh   ::
         ::.................................................::
         :: total energy             -173.769879533976 Eh   ::
         :: zero point energy           0.844504506438 Eh   ::
         :: G(RRHO) w/o ZPVE           -0.088090362585 Eh   ::
         :: G(RRHO) contrib.            0.756414143854 Eh   ::
         :::::::::::::::::::::::::::::::::::::::::::::::::::::

           -------------------------------------------------
          | TOTAL ENERGY             -173.769879533976 Eh   |
          | TOTAL ENTHALPY           -172.866243379858 Eh   |
          | TOTAL FREE ENERGY        -173.013465390122 Eh   |
          | GRADIENT NORM               0.000071314960 Eh/α |
          | HOMO-LUMO GAP               1.707961907126 eV   |
           -------------------------------------------------

 * finished run on 2025/08/30 at 14:43:28.438
