   * xtb version 6.7.1 (edcfbbe) compiled by 'albert@albert-system' on 2024-07-22

   ID    Z sym.   atoms
    1    7 N      1, 9, 26, 32, 49, 55
    2    6 C      2-8, 10-25, 27-31, 33-48, 50-54, 56-69
    3    1 H      70-111

          program call               : xtb data2507/gas/3DPA3CN/3DPA3CN_gas_T1_crest.xyz --gfn 2 --spinpol --tblite --uhf 2 --ohess vtight --parallel 40 --molden --ceasefiles --namespace data2507/gas/3DPA3CN/3DPA3CN_gas_T1_finalOpt
 * total energy  :  -173.6962070 Eh     change       -0.6147246E-07 Eh
 * total energy  :  -173.6962310 Eh     change       -0.2400182E-04 Eh
 * total energy  :  -173.6962408 Eh     change       -0.9821432E-05 Eh
 * total energy  :  -173.6962432 Eh     change       -0.2325198E-05 Eh
 * total energy  :  -173.6962453 Eh     change       -0.2120669E-05 Eh
 * total energy  :  -173.6962479 Eh     change       -0.2646844E-05 Eh
 * total energy  :  -173.6962499 Eh     change       -0.1952490E-05 Eh
 * total energy  :  -173.6962502 Eh     change       -0.2692125E-06 Eh
 * total energy  :  -173.6962513 Eh     change       -0.1115393E-05 Eh
 * total energy  :  -173.6962525 Eh     change       -0.1218044E-05 Eh
 * total energy  :  -173.6962626 Eh     change       -0.7521705E-06 Eh
 * total energy  :  -173.6962631 Eh     change       -0.5584062E-06 Eh
 * total energy  :  -173.6962636 Eh     change       -0.4532049E-06 Eh
 * total energy  :  -173.6962637 Eh     change       -0.1539493E-06 Eh
 * total energy  :  -173.6962641 Eh     change       -0.3819644E-06 Eh
 * total energy  :  -173.6962643 Eh     change       -0.1629632E-06 Eh
 * total energy  :  -173.6962645 Eh     change       -0.2187275E-06 Eh
 * total energy  :  -173.6962647 Eh     change       -0.2196838E-06 Eh
 * total energy  :  -173.6962647 Eh     change       -0.5923852E-08 Eh
   *** GEOMETRY OPTIMIZATION CONVERGED AFTER 27 ITERATIONS ***

 final structure:
================
111
 xtb: 6.7.1 (edcfbbe)
N            0.64729777027915       -3.91983630673131        0.01860552098421
C            0.46139353587530       -2.77885471279387        0.01300232820160
C            0.23531020252722       -1.40465643740583        0.00651093597912
C            1.33068681218595       -0.49531814179522        0.00600202649737
C            2.70104155235769       -1.01295444716730       -0.01750015631464
C            3.09249660032948       -1.96014450586052       -0.96434814069582
C            4.38277095217260       -2.43851519067978       -0.99039867135388
C            5.32094215704097       -1.99190839313570       -0.05696451594689
N            6.62946448957311       -2.48040078839014       -0.07704148868825
C            6.86908594477226       -3.81795310627185       -0.40478031053965
C            8.00063109738901       -4.17428228421054       -1.14039840435850
C            8.23332690991454       -5.49770818862067       -1.45852242589715
C            7.34487644474444       -6.48281179394009       -1.05761938497378
C            6.21727411184103       -6.13345388662165       -0.33157592089774
C            5.97764187764400       -4.81414654935126       -0.00231229544367
C            7.69457444790438       -1.62836257318094        0.22896689975481
C            8.80186245350284       -2.10492587083480        0.93268126803342
C            9.85225225075535       -1.25908152797756        1.22946390021450
C            9.81535147445187        0.06990658742795        0.83843169711226
C            8.71573735373441        0.54902722607091        0.14414499271576
C            7.66229189954602       -0.28893305280731       -0.16338739951484
C            4.93130019329441       -1.04985533838570        0.89745952247859
C            3.64269083644825       -0.56649752476237        0.91090337336062
C            1.09546573153260        0.87066116914923        0.01028005283349
C            2.20749591903790        1.71319495814771       -0.18168376393874
N            3.12817580736281        2.36823111274884       -0.40139237496884
C           -0.23175610408907        1.41686404814094        0.00330023270244
C           -0.46556490341156        2.82524159175906        0.00313514617375
C           -1.55937855146500        3.39449923103946       -0.69321154695343
C           -1.78287777872116        4.74320684849356       -0.69506673925890
C           -0.92942299240282        5.61303908652908        0.00464700861883
N           -1.15844071825601        6.98726276972220        0.00541956196579
C           -2.46648704565293        7.47270832579570        0.01503351542576
C           -3.46457541361272        6.79865115891582        0.72385436865675
C           -4.75927397254123        7.27637437380254        0.72111357456947
C           -5.08217464863631        8.42794523030196        0.01950249995810
C           -4.09574565946310        9.10053499152138       -0.68557524490889
C           -2.79798616187753        8.63089348111369       -0.69329543831955
C           -0.07905099837826        7.87117002405560       -0.00426975457371
C            1.08465243098919        7.55709601562848       -0.71150592122574
C            2.15372996393157        8.42975040310744       -0.70907986457197
C            2.08405815172041        9.62491033857674       -0.00952042001593
C            0.93189369682198        9.94138071662447        0.69399297339820
C           -0.14265669374535        9.07532148850260        0.70217705426121
C            0.15985594523039        5.06574150154482        0.70360058041725
C            0.38508605265409        3.71730110125421        0.70030074066625
C           -1.31328746280898        0.47096885046505       -0.00494166275212
C           -2.63903710158968        0.90651882243128        0.17894498612361
N           -3.72537814858911        1.22445233526635        0.38982093637082
C           -1.09284291606747       -0.89737966028988        0.00172126365892
C           -2.22441846129704       -1.82930337135509        0.01898529978810
C           -2.30612580138467       -2.83985864943791        0.97693764723656
C           -3.37585472492732       -3.70603057693396        0.99695189377455
C           -4.39241017848874       -3.59543046211998        0.04559619277579
N           -5.47668534272604       -4.47583637061270        0.05994085940760
C           -6.75207107899784       -4.01384302808854       -0.27871363144331
C           -7.15794288509582       -2.72917035751519        0.08710432875670
C           -8.41735543446527       -2.27694348535362       -0.25339636979808
C           -9.29121345795437       -3.09262601015440       -0.95466363526834
C           -8.89319805871434       -4.36905039432595       -1.31902768515274
C           -7.63394686554344       -4.82987854948372       -0.98910348940445
C           -5.28444124083645       -5.81449983404542        0.41356074932335
C           -4.11558958773098       -6.48219674365729        0.04357946712599
C           -3.92998851915852       -7.80364285051523        0.39830652658159
C           -4.90149791044027       -8.48119670660508        1.11785215572280
C           -6.06403174635544       -7.82307292565131        1.48644636685443
C           -6.25769926481541       -6.49977496257604        1.14269008351155
C           -4.30930272702828       -2.59093682167007       -0.92087375935543
C           -3.24368532739996       -1.71972631697733       -0.92749943233250
H            2.38505917754076       -2.30075608001711       -1.70515869353822
H            4.67954832787600       -3.15289037729369       -1.74382301486698
H            8.68571544119247       -3.40591232470737       -1.46748498068685
H            9.11001330055114       -5.76038509642249       -2.03187330239461
H            7.52947628337088       -7.51556692730092       -1.31087786315514
H            5.52114324501806       -6.89438429894941       -0.01243247346832
H            5.10352326641481       -4.54661055568127        0.57232897525835
H            8.82509546379526       -3.13662086089878        1.25171365723044
H           10.70151052276342       -1.63837563702738        1.77824294513999
H           10.63759645825981        0.72790127940448        1.07462546588200
H            8.67983276795669        1.58202814694708       -0.16746893454312
H            6.81172880691504        0.08488920734893       -0.71357347943473
H            5.64421279625281       -0.71251125052798        1.63515947670750
H            3.35062597163434        0.14721842686879        1.66706068223931
H           -2.20169285040354        2.75735751034595       -1.28072269428441
H           -2.60156551280393        5.15529201740398       -1.26704236461082
H           -3.21154939077586        5.90890022808708        1.28062186547558
H           -5.52073487957275        6.74891729373256        1.27546921499477
H           -6.09583849682815        8.79812964007984        0.02058695979746
H           -4.34151985244498        9.99322098714205       -1.24130114259185
H           -2.03427704539873        9.14502620655841       -1.25821483550847
H            1.13511068496940        6.63265614213530       -1.26696278859299
H            3.04580443977807        8.17760377532023       -1.26221736087151
H            2.92226555586406       10.30459123723433       -0.01104801597008
H            0.87354436415206       10.86639476231900        1.24813591823794
H           -1.03250023164628        9.31417670444108        1.26595317339007
H            0.80096783201927        5.72010785499342        1.27632661385489
H            1.19910177138277        3.32173944983014        1.28741025959976
H           -1.53791943324202       -2.92689044633753        1.73034492742921
H           -3.44032533749087       -4.46807743905194        1.75928805054046
H           -6.48322393072978       -2.09487146784026        0.64240367157221
H           -8.72009462238231       -1.28240546589654        0.03769621066949
H          -10.27546598206602       -2.73577884829125       -1.21688430820225
H           -9.56499368978387       -5.00806545252192       -1.87279802092291
H           -7.31944469378537       -5.81930643309843       -1.28719990947600
H           -3.36125588003925       -5.96033082621279       -0.52607953584908
H           -3.02257823531919       -8.30912255016409        0.10409852206308
H           -4.75326667746164       -9.51473029187643        1.39105053549994
H           -6.82237849596168       -8.34118431848102        2.05457167628084
H           -7.15727581447237       -5.98365427933813        1.44450250860327
H           -5.08048549114047       -2.50922634614806       -1.67240761589347
H           -3.18376730435090       -0.95852947714567       -1.69138423532231

 projected vibrational frequencies (cm⁻¹)
eigval :       -0.00    -0.00    -0.00     0.00     0.00     0.00
eigval :        6.78     7.89     8.04     9.89    11.91    12.26
eigval :       20.82    28.27    31.65    39.20    39.44    40.10
eigval :       46.44    48.51    52.03    57.53    59.69    60.02
eigval :       62.38    63.05    76.02    77.15    82.11    83.61
eigval :       90.66    99.35   101.51   117.10   125.17   130.36
eigval :      136.70   137.96   161.83   168.58   171.57   173.77
eigval :      186.15   197.58   207.44   216.60   222.45   228.55
eigval :      233.81   234.40   234.73   280.32   286.64   290.10
eigval :      303.50   306.51   309.48   314.76   317.95   332.05
eigval :      346.15   349.56   363.51   368.94   376.53   377.00
eigval :      377.18   377.47   379.07   380.07   382.24   386.29
eigval :      389.79   391.44   397.00   406.20   406.83   422.44
eigval :      438.57   460.71   460.89   470.02   471.53   479.25
eigval :      482.98   483.20   489.65   492.95   499.64   506.97
eigval :      511.98   516.82   528.64   567.66   569.53   577.83
eigval :      582.37   582.94   583.10   584.47   588.59   589.46
eigval :      590.87   592.42   593.03   598.65   605.21   610.29
eigval :      621.03   626.70   652.62   656.78   659.34   660.11
eigval :      660.33   661.80   663.04   665.09   681.70   682.50
eigval :      690.18   691.71   718.15   730.78   755.44   757.18
eigval :      757.38   757.87   759.16   760.37   789.35   793.96
eigval :      806.49   819.60   819.73   839.28   859.25   862.56
eigval :      869.33   871.80   872.50   872.61   874.29   875.34
eigval :      893.18   893.82   895.07   895.15   896.31   896.55
eigval :      905.51   907.32   909.77   909.82   909.83   913.29
eigval :      914.50   914.73   915.99   918.21   923.42   923.64
eigval :      926.04   927.04   927.11   927.95   928.04   928.76
eigval :      929.26   929.30   929.71   929.83   930.06   930.21
eigval :      954.61   972.60   976.77   982.02   991.20   998.38
eigval :     1000.26  1003.33  1003.39  1011.54  1016.20  1044.29
eigval :     1047.90  1079.95  1080.85  1081.78  1081.88  1082.68
eigval :     1082.69  1121.80  1122.32  1122.35  1124.15  1124.67
eigval :     1124.70  1145.26  1145.40  1148.93  1171.39  1178.31
eigval :     1178.48  1179.07  1179.14  1179.21  1179.26  1181.34
eigval :     1184.06  1190.41  1191.73  1193.35  1193.44  1193.87
eigval :     1195.08  1207.07  1208.86  1217.36  1226.14  1227.51
eigval :     1266.63  1270.03  1270.44  1274.78  1276.34  1276.46
eigval :     1277.47  1277.62  1279.02  1289.18  1301.37  1305.51
eigval :     1308.13  1309.57  1312.04  1312.70  1316.94  1317.15
eigval :     1318.98  1322.48  1326.30  1326.68  1327.04  1327.97
eigval :     1329.33  1331.10  1337.62  1372.65  1409.65  1411.77
eigval :     1425.27  1430.58  1433.81  1434.14  1436.44  1439.21
eigval :     1441.08  1441.35  1448.99  1456.90  1458.86  1459.04
eigval :     1463.81  1464.12  1464.61  1464.80  1465.63  1482.39
eigval :     1486.71  1542.43  1544.14  1551.01  1561.31  1566.13
eigval :     1571.07  1571.25  1574.38  1574.91  1576.24  1578.99
eigval :     1582.66  1585.45  1585.61  1586.21  1593.86  1595.48
eigval :     2263.92  2300.09  2326.18  3077.72  3078.42  3078.75
eigval :     3079.01  3079.22  3079.30  3079.63  3080.32  3081.00
eigval :     3081.23  3084.29  3084.38  3084.52  3084.63  3085.24
eigval :     3085.47  3085.92  3085.98  3089.08  3089.28  3089.58
eigval :     3090.24  3090.45  3091.02  3092.61  3092.88  3094.81
eigval :     3095.02  3095.11  3095.40  3095.71  3096.01  3097.96
eigval :     3098.28  3100.70  3101.18  3101.29  3101.38  3101.52
eigval :     3102.23  3102.39  3103.46

   temp. (K)  partition function   enthalpy   heat capacity  entropy
                                   cal/mol     cal/K/mol   cal/K/mol   J/K/mol
 298.15  VIB  0.112E+31            34933.058    210.414    224.153
         ROT  0.366E+09              888.752      2.981     42.165
         INT  0.408E+39            35821.810    213.395    266.318
         TR   0.254E+29             1481.254      4.968     46.190
         TOT                       37303.0638   218.3632   312.5074  1307.5308

       T/K    H(0)-H(T)+PV         H(T)/Eh          T*S/Eh         G(T)/Eh
   ------------------------------------------------------------------------
    298.15    0.594462E-01    0.899695E+00    0.148482E+00    0.751213E+00
   ------------------------------------------------------------------------

         :::::::::::::::::::::::::::::::::::::::::::::::::::::
         ::                  THERMODYNAMIC                  ::
         :::::::::::::::::::::::::::::::::::::::::::::::::::::
         :: total free energy        -172.945051860430 Eh   ::
         ::.................................................::
         :: total energy             -173.696264731356 Eh   ::
         :: zero point energy           0.840248984551 Eh   ::
         :: G(RRHO) w/o ZPVE           -0.089036113625 Eh   ::
         :: G(RRHO) contrib.            0.751212870926 Eh   ::
         :::::::::::::::::::::::::::::::::::::::::::::::::::::

           -------------------------------------------------
          | TOTAL ENERGY             -173.696264731356 Eh   |
          | TOTAL ENTHALPY           -172.796569530738 Eh   |
          | TOTAL FREE ENERGY        -172.945051860430 Eh   |
          | GRADIENT NORM               0.000196707063 Eh/α |
           -------------------------------------------------

 * finished run on 2025/08/30 at 15:39:33.763
