   * xtb version 6.7.1 (edcfbbe) compiled by 'albert@albert-system' on 2024-07-22

   ID    Z sym.   atoms
    1    6 C      1-6, 8-13, 15-42
    2    8 O      7
    3    7 N      14
    4    1 H      43-63

          program call               : xtb data2507/gas/DBCP/DBCP_gas_T1_crest.xyz --gfn 2 --spinpol --tblite --uhf 2 --ohess vtight --parallel 40 --molden --ceasefiles --namespace data2507/gas/DBCP/DBCP_gas_T1_finalOpt
 * total energy  :  -103.3396909 Eh     change       -0.1419126E-07 Eh
 * total energy  :  -103.3396998 Eh     change       -0.8923264E-05 Eh
 * total energy  :  -103.3397030 Eh     change       -0.3218026E-05 Eh
 * total energy  :  -103.3397034 Eh     change       -0.4015015E-06 Eh
 * total energy  :  -103.3397037 Eh     change       -0.2784130E-06 Eh
 * total energy  :  -103.3397039 Eh     change       -0.2113705E-06 Eh
 * total energy  :  -103.3397043 Eh     change       -0.3616901E-06 Eh
 * total energy  :  -103.3397045 Eh     change       -0.2616472E-06 Eh
 * total energy  :  -103.3397047 Eh     change       -0.1983755E-06 Eh
 * total energy  :  -103.3397050 Eh     change       -0.2650470E-06 Eh
 * total energy  :  -103.3397053 Eh     change       -0.2666570E-06 Eh
 * total energy  :  -103.3397054 Eh     change       -0.1819145E-06 Eh
 * total energy  :  -103.3397056 Eh     change       -0.1137153E-06 Eh
 * total energy  :  -103.3397057 Eh     change       -0.1245448E-06 Eh
 * total energy  :  -103.3397058 Eh     change       -0.1139593E-06 Eh
 * total energy  :  -103.3397059 Eh     change       -0.7971914E-07 Eh
   *** GEOMETRY OPTIMIZATION CONVERGED AFTER 16 ITERATIONS ***

 final structure:
================
63
 xtb: 6.7.1 (edcfbbe)
C            3.74236345439531        1.48807221744224       -3.16131817086943
C            2.39240239561756        1.59756276868935       -2.86987508198111
C            1.83298882634706        0.85598760454603       -1.84772716212867
C            2.62086646064489       -0.00123414597471       -1.08064909738949
C            3.97546039316710       -0.14715265989354       -1.42157836446589
C            4.52894204063184        0.60077362424546       -2.44818803975638
O            4.79514530070774       -1.03482091973139       -0.78419743183192
C            4.24988432914766       -1.80851699435010        0.19928958146519
C            5.08008052821021       -2.73361005149438        0.81173178565671
C            4.60137390747841       -3.51960359217004        1.84579587815618
C            3.29727166892174       -3.35893551632415        2.28472394158613
C            2.46267238670638       -2.43753235870419        1.68124907938872
C            2.91239989471926       -1.66839134015203        0.60755962780435
N            2.09913138733203       -0.73471545417001       -0.02023203048183
C            0.76182291153577       -0.57040957039363        0.38259357748499
C           -0.08855000329766       -1.71803326810145        0.17952834863766
C           -1.46353928538096       -1.66370070664646        0.33421932105106
C           -2.52836017620829       -2.56148680599506       -0.12994408970817
C           -2.24574485329116       -3.89151291385708       -0.42349269188591
C           -3.21680125593404       -4.76018825678956       -0.89025147970309
C           -4.50967104955143       -4.30218160935179       -1.08184531238433
C           -4.82229595389370       -2.98643872798389       -0.80280187321800
C           -3.86899712028278       -2.08482105365751       -0.32241166612938
C           -4.22397210514199       -0.69832893984845       -0.05839980544749
C           -5.25408351914083        0.11374869161249       -0.55554972684379
C           -5.23539121515888        1.51070747011928       -0.46755704815715
C           -4.13380374219546        2.23209291510831        0.08746348113995
C           -3.70698253168740        3.58337793952416       -0.07364504045346
C           -2.40893454765961        3.98850150786088        0.20221969709707
C           -1.41509379137016        3.10618398098752        0.68739899722596
C            0.03047084829254        3.20781601019500        0.73202242046684
C            0.66356064550258        4.45498775327176        0.68120470804900
C            2.03072803265399        4.58492730655705        0.76472533342054
C            2.82160767008354        3.45565517342257        0.93104974827361
C            2.23432446286606        2.20852202258268        0.95951172359326
C            0.85644389843915        2.03393676133894        0.82664945243195
C            0.25999325126695        0.69473653044339        0.78206263585092
C           -1.09333944537718        0.68701810231485        1.05616333203235
C           -1.89529418427028        1.83960750976753        1.01305752800025
C           -3.20719778036509        1.42598238410252        0.72598389417643
C           -3.23431427299620        0.00850609469363        0.64898509785682
C           -1.94099079458408       -0.44763314852469        0.83504326761537
H            4.18039799465482        2.07542591946837       -3.95246806281070
H            1.76529600826908        2.26262301443413       -3.44216606707726
H            0.77766772324617        0.93269476399090       -1.64384125704009
H            5.57551808494625        0.46791445343643       -2.67044946596994
H            6.09810659913525       -2.81379073792964        0.46618539716264
H            5.25194232130777       -4.23923227418449        2.31661682757537
H            2.92644522337611       -3.94689393091609        3.10962287220507
H            1.45631313586852       -2.30057970915548        2.04284023555482
H            0.38711608728698       -2.58193709436144       -0.26376280087918
H           -1.23984380676154       -4.25574668639448       -0.27011551906862
H           -2.96487970867939       -5.78876546970133       -1.10263426069371
H           -5.27480043977878       -4.97274534962341       -1.44533451364106
H           -5.83619808151568       -2.64065591324936       -0.94104094025585
H           -6.06941230619067       -0.33393623339719       -1.10796655444725
H           -6.04549798021038        2.06106307851262       -0.92585488796479
H           -4.38656169727631        4.29841324769009       -0.51668621357747
H           -2.13957621719572        5.00593820832147       -0.04753471260871
H            0.04842637064506        5.33914760987739        0.60055123745878
H            2.48614916271023        5.56389122184817        0.72758021966643
H            3.89173187084370        3.55068889408746        1.04188924560828
H            2.86190452713746        1.34538694693351        1.12776864207761

 projected vibrational frequencies (cm⁻¹)
eigval :       -0.00    -0.00     0.00     0.00     0.00     0.00
eigval :       21.64    24.36    29.66    46.91    58.02    76.63
eigval :       96.98   103.45   113.75   120.94   141.65   155.41
eigval :      169.09   176.80   201.48   233.99   240.46   248.71
eigval :      266.86   272.70   287.54   293.52   306.84   318.69
eigval :      323.15   340.09   370.10   387.16   392.71   399.24
eigval :      422.91   430.74   437.42   437.78   455.94   460.44
eigval :      473.47   479.29   491.66   498.01   500.49   532.55
eigval :      535.86   538.78   547.90   551.69   561.42   565.99
eigval :      572.88   579.46   593.48   608.08   613.26   626.51
eigval :      640.38   658.23   663.17   667.85   672.04   674.97
eigval :      685.33   694.34   703.50   724.44   726.63   754.73
eigval :      762.69   770.95   775.05   777.33   779.23   788.53
eigval :      797.53   803.86   810.77   827.85   857.38   867.83
eigval :      868.76   869.84   870.73   874.14   886.35   901.94
eigval :      903.21   907.34   907.41   910.52   914.90   918.40
eigval :      918.56   919.05   920.90   922.84   940.14  1014.09
eigval :     1033.12  1075.60  1084.90  1086.28  1090.85  1097.41
eigval :     1099.30  1106.53  1115.84  1117.42  1141.50  1154.71
eigval :     1159.78  1171.44  1173.42  1179.45  1180.76  1183.43
eigval :     1193.80  1210.40  1210.56  1213.62  1230.46  1239.01
eigval :     1246.98  1253.48  1257.92  1268.03  1271.67  1276.27
eigval :     1280.12  1299.57  1302.25  1305.85  1307.17  1318.32
eigval :     1320.92  1338.07  1346.12  1362.64  1370.30  1379.76
eigval :     1410.78  1415.30  1416.54  1429.54  1430.26  1432.95
eigval :     1440.42  1443.33  1449.60  1469.90  1476.61  1491.74
eigval :     1526.09  1537.29  1539.21  1550.19  1555.58  1561.93
eigval :     1563.93  1575.43  1575.77  1586.83  1588.76  1601.48
eigval :     3056.13  3057.25  3065.77  3068.66  3070.49  3070.93
eigval :     3072.18  3075.01  3075.64  3084.46  3085.11  3090.64
eigval :     3091.32  3096.62  3098.52  3104.99  3106.45  3113.03
eigval :     3115.38  3116.74  3120.05

   temp. (K)  partition function   enthalpy   heat capacity  entropy
                                   cal/mol     cal/K/mol   cal/K/mol   J/K/mol
 298.15  VIB  0.398E+11            16569.015    115.700     97.187
         ROT  0.368E+08              888.752      2.981     37.599
         INT  0.146E+19            17457.767    118.681    134.786
         TR   0.119E+29             1481.254      4.968     44.678
         TOT                       18939.0214   123.6495   179.4642   750.8783

       T/K    H(0)-H(T)+PV         H(T)/Eh          T*S/Eh         G(T)/Eh
   ------------------------------------------------------------------------
    298.15    0.301813E-01    0.497087E+00    0.852692E-01    0.411818E+00
   ------------------------------------------------------------------------

         :::::::::::::::::::::::::::::::::::::::::::::::::::::
         ::                  THERMODYNAMIC                  ::
         :::::::::::::::::::::::::::::::::::::::::::::::::::::
         :: total free energy        -102.927887834458 Eh   ::
         ::.................................................::
         :: total energy             -103.339705935797 Eh   ::
         :: zero point energy           0.466906092228 Eh   ::
         :: G(RRHO) w/o ZPVE           -0.055087990889 Eh   ::
         :: G(RRHO) contrib.            0.411818101339 Eh   ::
         :::::::::::::::::::::::::::::::::::::::::::::::::::::

           -------------------------------------------------
          | TOTAL ENERGY             -103.339705935797 Eh   |
          | TOTAL ENTHALPY           -102.842618591902 Eh   |
          | TOTAL FREE ENERGY        -102.927887834458 Eh   |
          | GRADIENT NORM               0.000077726813 Eh/α |
           -------------------------------------------------

 * finished run on 2025/08/21 at 17:20:38.847
