   * xtb version 6.7.1 (edcfbbe) compiled by 'albert@albert-system' on 2024-07-22

   ID    Z sym.   atoms
    1    6 C      1-6, 8-13, 15-42
    2    8 O      7
    3    7 N      14
    4    1 H      43-63

          program call               : xtb data2507/gas/DBCP/DBCP.xyz --gfn 2 --ohess vtight --parallel 40 --molden --ceasefiles --namespace data2507/gas/DBCP/DBCP_gas_S0_preOpt
          :  Hamiltonian                  GFN2-xTB          :
 * total energy  :  -103.3699143 Eh     change       -0.2388362E-08 Eh
 * total energy  :  -103.3945627 Eh     change       -0.2464838E-01 Eh
 * total energy  :  -103.3993539 Eh     change       -0.4791186E-02 Eh
 * total energy  :  -103.4001078 Eh     change       -0.7538732E-03 Eh
 * total energy  :  -103.4004914 Eh     change       -0.3836273E-03 Eh
 * total energy  :  -103.4005953 Eh     change       -0.1039044E-03 Eh
 * total energy  :  -103.4006364 Eh     change       -0.4104930E-04 Eh
 * total energy  :  -103.4006525 Eh     change       -0.1616656E-04 Eh
 * total energy  :  -103.4006556 Eh     change       -0.3054064E-05 Eh
 * total energy  :  -103.4006567 Eh     change       -0.1159534E-05 Eh
 * total energy  :  -103.4122121 Eh     change       -0.6093606E-06 Eh
 * total energy  :  -103.4122129 Eh     change       -0.7414789E-06 Eh
 * total energy  :  -103.4122138 Eh     change       -0.9041600E-06 Eh
 * total energy  :  -103.4122149 Eh     change       -0.1100734E-05 Eh
 * total energy  :  -103.4122162 Eh     change       -0.1355369E-05 Eh
 * total energy  :  -103.4122179 Eh     change       -0.1649741E-05 Eh
 * total energy  :  -103.4122198 Eh     change       -0.1961073E-05 Eh
 * total energy  :  -103.4122219 Eh     change       -0.2078063E-05 Eh
 * total energy  :  -103.4122219 Eh     change       -0.6980571E-08 Eh
   *** GEOMETRY OPTIMIZATION CONVERGED AFTER 122 ITERATIONS ***

 final structure:
================
63
 xtb: 6.7.1 (edcfbbe)
C            3.59100276840944       -0.96584506706496       -3.57471176123196
C            2.26195924171055       -0.65913518343466       -3.36832953239782
C            1.75057578644515       -0.58995189998105       -2.08081758884778
C            2.56675059366802       -0.83000258544304       -0.98449808410561
C            3.91732036209483       -1.13492634017371       -1.20161137195141
C            4.41989110728829       -1.20258676031492       -2.48599728605608
O            4.79276385004018       -1.37630167155476       -0.16816656926250
C            4.30044507525064       -1.29078754452875        1.11326227773565
C            5.18507383017108       -1.50964090617471        2.15092712288762
C            4.75101183097811       -1.43431123548439        3.46815782933260
C            3.43076303248535       -1.13878419765256        3.73821081008983
C            2.53681261687586       -0.91791690717657        2.70080106945303
C            2.95742544324502       -0.99223880709029        1.38014267033749
N            2.08561960149515       -0.76613828119402        0.31941313831604
C            0.71119419019664       -0.50203005199436        0.56754320208452
C           -0.13816839167118       -1.60150936532976        0.55878755319097
C           -1.54599691634219       -1.48743764034913        0.66972559063399
C           -2.60979222288942       -2.42746416356158        0.33783098712307
C           -2.34564970686452       -3.79574883336642        0.24029369049822
C           -3.32476962041449       -4.70037499739074       -0.10541144697239
C           -4.61278579538394       -4.25552067909654       -0.37651759475810
C           -4.90510979736903       -2.91203108782838       -0.29908893630877
C           -3.93915961141982       -1.96722881522672        0.05739313154475
C           -4.26504919992560       -0.54676682353715        0.09794203962825
C           -5.32282662523384        0.18630138301418       -0.52086329585020
C           -5.27897612651005        1.55272817151318       -0.69263816383497
C           -4.16270329666099        2.33768814699625       -0.27288379052676
C           -3.70264013811352        3.61997712842930       -0.70014387997459
C           -2.39661142863652        4.02438914442253       -0.53198029940636
C           -1.40870995942299        3.20234460892109        0.09108481802693
C            0.04617820173153        3.27557504864314        0.07186417394990
C            0.68479856993337        4.46889773826164       -0.27477488496271
C            2.05673481228132        4.57817508550580       -0.30535699516887
C            2.83894731786324        3.47965824581350        0.02385094430144
C            2.24284821996408        2.28444777656812        0.36076440587756
C            0.85370529752120        2.12954118466482        0.38441072538364
C            0.23469983083016        0.84101849749539        0.68978506134273
C           -1.11954654374026        0.90838995720245        0.94308507014531
C           -1.90886016314154        2.05819204116516        0.66292790371246
C           -3.24099396975891        1.63789438672752        0.48751708720880
C           -3.29381885311258        0.24293719569473        0.66538523435648
C           -1.97485439838100       -0.20750960697157        0.94204794870937
H            3.99305238159513       -1.02237665215389       -4.57406064045476
H            1.60815189857085       -0.47032008484281       -4.20600503842858
H            0.71020789948402       -0.34835202963048       -1.92382428542089
H            5.46312883412788       -1.44225788253178       -2.61674848241156
H            6.21124121992633       -1.73788305052734        1.91072490115223
H            5.45044764091422       -1.60676000614460        4.27099158254001
H            3.08245483549932       -1.07596673275120        4.75774392047585
H            1.50448738906402       -0.68469464884186        2.91288324633403
H            0.31620442661826       -2.56295634763258        0.36305582562202
H           -1.34883338503329       -4.14861379023920        0.45993993471303
H           -3.09272472750521       -5.75353602713094       -0.16282723994997
H           -5.38391580117033       -4.96243178783396       -0.64492439459659
H           -5.91092907448554       -2.57468779188174       -0.50144270025434
H           -6.15650853502420       -0.35096089880720       -0.95067115060503
H           -6.07652878139423        2.03091844825430       -1.24487419732352
H           -4.37611184507874        4.26007724192290       -1.25367744794558
H           -2.10033298330105        4.96908418031744       -0.96560510351910
H            0.07801236382017        5.33247081228898       -0.50370614503066
H            2.52090371262187        5.51639657811850       -0.57101268781268
H            3.91577193892618        3.55991678762945        0.02242078263849
H            2.87232277633640        1.45696339330153        0.64226031600595

          :  Hamiltonian                  GFN2-xTB          :
         :: gradient norm              0.000066224594 Eh/a0 ::
         :: HOMO-LUMO gap              1.348089435856 eV    ::
         :: SCC energy              -105.343281058878 Eh    ::
         :: -> dispersion             -0.100309301158 Eh    ::
         :: repulsion energy           1.931059141030 Eh    ::

    * Orbital Energies and Occupations

         #    Occupation            Energy/Eh            Energy/eV
      -------------------------------------------------------------
         1        2.0000           -0.7209135             -19.6171
       ...           ...                  ...                  ...
        84        2.0000           -0.4164929             -11.3333
        85        2.0000           -0.4123237             -11.2199
        86        2.0000           -0.4118663             -11.2075
        87        2.0000           -0.4111693             -11.1885
        88        2.0000           -0.4101957             -11.1620
        89        2.0000           -0.4092515             -11.1363
        90        2.0000           -0.4061579             -11.0521
        91        2.0000           -0.3898936             -10.6095
        92        2.0000           -0.3883411             -10.5673
        93        2.0000           -0.3843197             -10.4579
        94        2.0000           -0.3841455             -10.4531
        95        2.0000           -0.3809250             -10.3655
        96        2.0000           -0.3359306              -9.1411 (HOMO)
        97                         -0.2863892              -7.7930 (LUMO)
        98                         -0.2725584              -7.4167
        99                         -0.2543601              -6.9215
       100                         -0.2341860              -6.3725
       101                         -0.2317502              -6.3062
       102                         -0.2283805              -6.2146
       103                         -0.2232729              -6.0756
       104                         -0.2133290              -5.8050
       105                         -0.2095791              -5.7029
       106                         -0.2084059              -5.6710
       107                         -0.1981497              -5.3919
       ...                                ...                  ...
       189                          0.7375510              20.0698
      -------------------------------------------------------------
                  HL-Gap            0.0495414 Eh            1.3481 eV

     #   Z          covCN         q      C6AA      α(0)
     1   6 C        2.919    -0.042    29.046     8.838
     2   6 C        2.919    -0.039    28.967     8.826
     3   6 C        2.923    -0.059    29.479     8.904
     4   6 C        2.924     0.045    26.999     8.521
     5   6 C        2.882     0.123    25.299     8.246
     6   6 C        2.920    -0.057    29.421     8.895
     7   8 O        1.708    -0.260    18.313     5.778
     8   6 C        2.881     0.122    25.310     8.248
     9   6 C        2.919    -0.057    29.424     8.895
    10   6 C        2.919    -0.042    29.044     8.838
    11   6 C        2.919    -0.039    28.966     8.826
    12   6 C        2.923    -0.060    29.497     8.907
    13   6 C        2.925     0.044    27.008     8.522
    14   7 N        2.755    -0.077    22.726     7.080
    15   6 C        2.929     0.059    26.687     8.472
    16   6 C        2.936    -0.045    29.110     8.848
    17   6 C        2.970     0.005    27.907     8.665
    18   6 C        2.985     0.008    27.823     8.652
    19   6 C        2.920    -0.032    28.796     8.800
    20   6 C        2.916    -0.030    28.737     8.791
    21   6 C        2.916    -0.030    28.742     8.791
    22   6 C        2.920    -0.032    28.803     8.801
    23   6 C        2.986     0.008    27.831     8.654
    24   6 C        2.970     0.007    27.855     8.657
    25   6 C        2.924    -0.034    28.841     8.807
    26   6 C        2.922    -0.033    28.832     8.805
    27   6 C        2.970     0.011    27.779     8.645
    28   6 C        2.922    -0.033    28.828     8.805
    29   6 C        2.924    -0.034    28.840     8.807
    30   6 C        2.971     0.008    27.840     8.655
    31   6 C        2.987     0.008    27.842     8.655
    32   6 C        2.921    -0.032    28.805     8.801
    33   6 C        2.916    -0.029    28.729     8.789
    34   6 C        2.917    -0.029    28.728     8.789
    35   6 C        2.920    -0.032    28.793     8.799
    36   6 C        2.983     0.011    27.757     8.642
    37   6 C        2.967    -0.005    28.138     8.701
    38   6 C        3.132    -0.008    28.010     8.664
    39   6 C        3.137    -0.006    27.929     8.650
    40   6 C        3.143    -0.009    27.988     8.656
    41   6 C        3.133    -0.006    27.942     8.653
    42   6 C        3.140    -0.010    28.015     8.662
    43   1 H        0.926     0.035     2.512     2.478
    44   1 H        0.926     0.032     2.553     2.499
    45   1 H        0.926     0.026     2.639     2.540
    46   1 H        0.926     0.048     2.342     2.393
    47   1 H        0.926     0.047     2.351     2.398
    48   1 H        0.926     0.035     2.515     2.480
    49   1 H        0.926     0.034     2.536     2.490
    50   1 H        0.926     0.032     2.559     2.502
    51   1 H        0.925     0.040     2.450     2.448
    52   1 H        0.926     0.036     2.507     2.476
    53   1 H        0.926     0.033     2.547     2.496
    54   1 H        0.926     0.032     2.552     2.498
    55   1 H        0.926     0.035     2.514     2.479
    56   1 H        0.926     0.034     2.532     2.488
    57   1 H        0.925     0.034     2.524     2.485
    58   1 H        0.925     0.035     2.523     2.484
    59   1 H        0.926     0.034     2.528     2.486
    60   1 H        0.926     0.035     2.514     2.479
    61   1 H        0.926     0.033     2.551     2.497
    62   1 H        0.926     0.033     2.544     2.494
    63   1 H        0.926     0.037     2.485     2.465

molecular dipole:
                 x           y           z       tot (Debye)
 q only:       -0.892       0.229      -0.134
   full:       -0.954       0.222      -0.317       2.616

 projected vibrational frequencies (cm⁻¹)
eigval :       -0.00    -0.00     0.00     0.00     0.00     0.00
eigval :       -7.15    19.30    22.03    39.93    43.20    73.84
eigval :       94.55   101.27   109.92   111.30   140.39   145.02
eigval :      168.15   173.62   194.97   238.83   240.83   250.01
eigval :      263.09   272.96   288.27   301.63   311.50   324.94
eigval :      331.98   344.89   374.08   393.73   400.70   412.58
eigval :      423.41   425.53   426.58   433.15   452.75   459.39
eigval :      482.32   484.37   494.52   504.92   510.80   521.06
eigval :      541.81   553.60   554.53   563.81   570.55   579.75
eigval :      584.65   591.71   610.62   620.49   628.42   642.20
eigval :      658.15   658.76   660.11   666.55   671.40   678.72
eigval :      696.76   698.33   714.30   742.86   745.95   761.65
eigval :      773.55   776.29   776.62   777.02   788.20   798.80
eigval :      813.45   828.17   831.07   852.19   852.56   859.11
eigval :      859.66   873.53   877.04   893.36   894.82   906.96
eigval :      911.93   912.81   913.28   914.74   915.81   916.18
eigval :      917.96   926.18   927.49   927.87   964.07  1019.03
eigval :     1051.09  1073.04  1087.07  1088.96  1095.16  1099.33
eigval :     1104.72  1106.63  1121.16  1158.26  1162.33  1164.24
eigval :     1175.98  1177.51  1181.93  1182.38  1186.08  1196.45
eigval :     1198.88  1209.89  1222.62  1242.13  1242.31  1252.80
eigval :     1259.07  1260.67  1265.92  1276.25  1280.80  1293.53
eigval :     1301.90  1308.30  1309.54  1312.48  1321.42  1346.29
eigval :     1354.11  1363.98  1369.59  1391.89  1406.45  1413.80
eigval :     1419.06  1425.48  1426.25  1438.88  1441.84  1446.12
eigval :     1450.77  1460.10  1469.21  1493.77  1506.97  1538.65
eigval :     1540.42  1567.07  1581.68  1587.30  1590.96  1591.70
eigval :     1594.51  1594.75  1604.90  1609.82  1612.50  1633.14
eigval :     3062.87  3065.04  3074.37  3075.93  3076.73  3077.76
eigval :     3079.02  3082.19  3085.32  3086.11  3086.68  3089.65
eigval :     3093.28  3094.24  3094.68  3095.46  3101.18  3102.26
eigval :     3111.14  3111.89  3131.44

   temp. (K)  partition function   enthalpy   heat capacity  entropy
                                   cal/mol     cal/K/mol   cal/K/mol   J/K/mol
 298.15  VIB  0.313E+12            16505.937    113.761     98.332
         ROT  0.370E+08              888.752      2.981     37.612
         INT  0.116E+20            17394.690    116.741    135.944
         TR   0.119E+29             1481.254      4.968     44.678
         TOT                       18875.9436   121.7096   180.6221   755.7229

       T/K    H(0)-H(T)+PV         H(T)/Eh          T*S/Eh         G(T)/Eh
   ------------------------------------------------------------------------
    298.15    0.300807E-01    0.500588E+00    0.858194E-01    0.414769E+00
   ------------------------------------------------------------------------

         :::::::::::::::::::::::::::::::::::::::::::::::::::::
         ::                  THERMODYNAMIC                  ::
         :::::::::::::::::::::::::::::::::::::::::::::::::::::
         :: total free energy        -102.997453006641 Eh   ::
         ::.................................................::
         :: total energy             -103.412221917849 Eh   ::
         :: zero point energy           0.470507569714 Eh   ::
         :: G(RRHO) w/o ZPVE           -0.055738658506 Eh   ::
         :: G(RRHO) contrib.            0.414768911208 Eh   ::
         :::::::::::::::::::::::::::::::::::::::::::::::::::::

           -------------------------------------------------
          | TOTAL ENERGY             -103.412221917849 Eh   |
          | TOTAL ENTHALPY           -102.911633617303 Eh   |
          | TOTAL FREE ENERGY        -102.997453006641 Eh   |
          | GRADIENT NORM               0.000066223708 Eh/α |
          | HOMO-LUMO GAP               1.348089367969 eV   |
           -------------------------------------------------

 * finished run on 2025/08/21 at 17:14:48.124
