   * xtb version 6.7.1 (edcfbbe) compiled by 'albert@albert-system' on 2024-07-22

   ID    Z sym.   atoms
    1    6 C      1-6, 8-13, 15-42
    2    8 O      7
    3    7 N      14
    4    1 H      43-63

          program call               : xtb data2507/gas/DBCP/DBCP_gas_S0_crest.xyz --gfn 2 --ohess vtight --parallel 40 --molden --ceasefiles --namespace data2507/gas/DBCP/DBCP_gas_S0_finalOpt
          :  Hamiltonian                  GFN2-xTB          :
 * total energy  :  -103.4126209 Eh     change       -0.3270102E-08 Eh
 * total energy  :  -103.4126219 Eh     change       -0.9289942E-06 Eh
 * total energy  :  -103.4126231 Eh     change       -0.1227730E-05 Eh
 * total energy  :  -103.4126244 Eh     change       -0.1320860E-05 Eh
 * total energy  :  -103.4126256 Eh     change       -0.1171979E-05 Eh
 * total energy  :  -103.4126266 Eh     change       -0.1026820E-05 Eh
 * total energy  :  -103.4126276 Eh     change       -0.9574885E-06 Eh
 * total energy  :  -103.4126283 Eh     change       -0.7839667E-06 Eh
 * total energy  :  -103.4126289 Eh     change       -0.5158899E-06 Eh
 * total energy  :  -103.4126292 Eh     change       -0.3184321E-06 Eh
 * total energy  :  -103.4126301 Eh     change       -0.2714700E-06 Eh
 * total energy  :  -103.4126305 Eh     change       -0.3145509E-06 Eh
 * total energy  :  -103.4126308 Eh     change       -0.3681111E-06 Eh
 * total energy  :  -103.4126312 Eh     change       -0.4029141E-06 Eh
 * total energy  :  -103.4126316 Eh     change       -0.3733683E-06 Eh
 * total energy  :  -103.4126319 Eh     change       -0.2997656E-06 Eh
 * total energy  :  -103.4126321 Eh     change       -0.2422222E-06 Eh
 * total energy  :  -103.4126324 Eh     change       -0.2036475E-06 Eh
 * total energy  :  -103.4126324 Eh     change       -0.1140776E-08 Eh
   *** GEOMETRY OPTIMIZATION CONVERGED AFTER 22 ITERATIONS ***

 final structure:
================
63
 xtb: 6.7.1 (edcfbbe)
C            3.62217522766491        1.01069438711488       -3.52208635762660
C            2.28231745749951        1.12717569404990       -3.21474506155872
C            1.77541806979684        0.55228663750613       -2.05921063800427
C            2.60788274793988       -0.13857669220146       -1.18932634500778
C            3.96274896901703       -0.27173727096938       -1.52068097123280
C            4.46135323950443        0.30071032212427       -2.67470849591675
O            4.84759505802106       -0.96954694791983       -0.73357743667242
C            4.34968517653525       -1.57531810216366        0.39570293968991
C            5.23541543536435       -2.30863685295226        1.16129795171377
C            4.80727598473017       -2.92639675357167        2.32846081823494
C            3.49252849695324       -2.79646851259047        2.72615064702061
C            2.59788392140764       -2.06390874016066        1.96035367129666
C            3.00740890897820       -1.45589988808748        0.78100142488974
N            2.13657768984722       -0.70518849791745       -0.00565135120073
C            0.77088058363087       -0.57427130405346        0.35366261436075
C           -0.03778857866502       -1.68865710889889        0.15357057806789
C           -1.44065828574127       -1.66577775039737        0.33790978091095
C           -2.47794835432027       -2.57397199086797       -0.13789192777423
C           -2.16614924875069       -3.89003158573808       -0.48651264729222
C           -3.12126804885055       -4.75848541294079       -0.96664877293003
C           -4.43220397108720       -4.32629768417005       -1.12385598719685
C           -4.77157021707652       -3.03166571383466       -0.79901890959192
C           -3.83117315918916       -2.12691952929176       -0.29951301014002
C           -4.20868775870316       -0.75263813765173        0.00906316804425
C           -5.30722638172935        0.03842320263486       -0.44500127856367
C           -5.31791403687753        1.41372962651198       -0.36052920829639
C           -4.22215006710527        2.15224383395409        0.18047070893822
C           -3.81973117144452        3.50883894880233       -0.00903232111595
C           -2.52649376494055        3.92899003540922        0.21290645437336
C           -1.49570584749176        3.04837355314176        0.66090737309791
C           -0.04507202988435        3.18743172697369        0.65231854835378
C            0.54367389103767        4.44993838235412        0.54800020613860
C            1.91018910889617        4.61813672672804        0.55934688350243
C            2.73735114173933        3.51170764324425        0.69649068988521
C            2.19097472009967        2.25057826989306        0.78608347404328
C            0.81048851054549        2.03830010384789        0.74137408066843
C            0.24712759153473        0.68951759021420        0.77076007181976
C           -1.10098934680143        0.64849575736363        1.05798355756010
C           -1.93949968578520        1.79748389191450        1.01516484365384
C           -3.25793716220566        1.36192604749436        0.78339251458225
C           -3.25404190390530       -0.04303009224111        0.69753915830392
C           -1.91240652431732       -0.48146581826172        0.86057681041001
H            4.02206818516928        1.45969612829645       -4.41760846854500
H            1.61574815929932        1.66580454522441       -3.87065846830151
H            0.72413159633294        0.64136627243200       -1.83283538450107
H            5.51042000032151        0.18093527941069       -2.89379127164302
H            6.25925609364103       -2.38120446640149        0.83071307706512
H            5.50665853921764       -3.49684270168912        2.91909594617999
H            3.14903659643626       -3.26109741214070        3.63770095694798
H            1.57350180129598       -1.95780265445431        2.28245660432486
H            0.44129177174693       -2.56800908065513       -0.25463673678668
H           -1.15090255337457       -4.23471337269914       -0.35567865656823
H           -2.85246387648267       -5.77404620354801       -1.21707135087056
H           -5.18454324973278       -5.00540391563584       -1.49700854295320
H           -5.79487722870145       -2.70586639019105       -0.91380117954623
H           -6.13004364744231       -0.44356526726063       -0.95407542056415
H           -6.14496937030426        1.95303253535401       -0.80195970041721
H           -4.52850168833016        4.21170706115083       -0.42540670562485
H           -2.27510492873284        4.94870776079182       -0.04273702879922
H           -0.09784086081504        5.31615945625644        0.48038564906427
H            2.33538937732226        5.60778936694407        0.48127455588796
H            3.80902000288889        3.63685253555603        0.73791586730179
H            2.84904952737280        1.40873308786349        0.92851681260998

          :  Hamiltonian                  GFN2-xTB          :
         :: gradient norm              0.000024347956 Eh/a0 ::
         :: HOMO-LUMO gap              1.396238115245 eV    ::
         :: SCC energy              -105.343450680874 Eh    ::
         :: -> dispersion             -0.101292332463 Eh    ::
         :: repulsion energy           1.930818326601 Eh    ::

    * Orbital Energies and Occupations

         #    Occupation            Energy/Eh            Energy/eV
      -------------------------------------------------------------
         1        2.0000           -0.7222043             -19.6522
       ...           ...                  ...                  ...
        84        2.0000           -0.4164673             -11.3327
        85        2.0000           -0.4118946             -11.2082
        86        2.0000           -0.4114870             -11.1971
        87        2.0000           -0.4110575             -11.1854
        88        2.0000           -0.4102471             -11.1634
        89        2.0000           -0.4092757             -11.1370
        90        2.0000           -0.4057387             -11.0407
        91        2.0000           -0.3891850             -10.5903
        92        2.0000           -0.3875573             -10.5460
        93        2.0000           -0.3861670             -10.5081
        94        2.0000           -0.3825030             -10.4084
        95        2.0000           -0.3801321             -10.3439
        96        2.0000           -0.3369258              -9.1682 (HOMO)
        97                         -0.2856150              -7.7720 (LUMO)
        98                         -0.2713348              -7.3834
        99                         -0.2535471              -6.8994
       100                         -0.2338555              -6.3635
       101                         -0.2326834              -6.3316
       102                         -0.2276494              -6.1947
       103                         -0.2241607              -6.0997
       104                         -0.2132265              -5.8022
       105                         -0.2088664              -5.6835
       106                         -0.2084805              -5.6730
       107                         -0.1975552              -5.3758
       ...                                ...                  ...
       189                          0.7379489              20.0806
      -------------------------------------------------------------
                  HL-Gap            0.0513108 Eh            1.3962 eV

     #   Z          covCN         q      C6AA      α(0)
     1   6 C        2.919    -0.041    29.028     8.835
     2   6 C        2.919    -0.039    28.969     8.826
     3   6 C        2.923    -0.058    29.440     8.898
     4   6 C        2.924     0.045    26.983     8.519
     5   6 C        2.883     0.124    25.286     8.244
     6   6 C        2.920    -0.057    29.420     8.895
     7   8 O        1.708    -0.259    18.291     5.774
     8   6 C        2.882     0.123    25.304     8.247
     9   6 C        2.920    -0.057    29.416     8.894
    10   6 C        2.919    -0.042    29.037     8.837
    11   6 C        2.919    -0.039    28.968     8.826
    12   6 C        2.923    -0.061    29.507     8.908
    13   6 C        2.923     0.043    27.034     8.526
    14   7 N        2.754    -0.074    22.672     7.072
    15   6 C        2.928     0.058    26.710     8.476
    16   6 C        2.935    -0.046    29.140     8.853
    17   6 C        2.970     0.005    27.914     8.666
    18   6 C        2.985     0.008    27.828     8.653
    19   6 C        2.920    -0.032    28.801     8.801
    20   6 C        2.916    -0.030    28.743     8.792
    21   6 C        2.916    -0.030    28.746     8.792
    22   6 C        2.920    -0.032    28.806     8.801
    23   6 C        2.986     0.008    27.832     8.654
    24   6 C        2.970     0.007    27.867     8.659
    25   6 C        2.924    -0.034    28.842     8.807
    26   6 C        2.922    -0.034    28.841     8.807
    27   6 C        2.970     0.010    27.782     8.646
    28   6 C        2.922    -0.033    28.832     8.805
    29   6 C        2.924    -0.034    28.843     8.807
    30   6 C        2.971     0.008    27.847     8.656
    31   6 C        2.988     0.007    27.845     8.656
    32   6 C        2.921    -0.032    28.806     8.801
    33   6 C        2.916    -0.029    28.732     8.790
    34   6 C        2.917    -0.029    28.731     8.790
    35   6 C        2.920    -0.031    28.772     8.796
    36   6 C        2.984     0.011    27.754     8.642
    37   6 C        2.968    -0.006    28.165     8.705
    38   6 C        3.132    -0.008    28.009     8.664
    39   6 C        3.137    -0.006    27.934     8.651
    40   6 C        3.143    -0.009    27.991     8.657
    41   6 C        3.133    -0.005    27.941     8.653
    42   6 C        3.139    -0.011    28.045     8.667
    43   1 H        0.926     0.036     2.502     2.474
    44   1 H        0.926     0.033     2.548     2.496
    45   1 H        0.926     0.028     2.620     2.531
    46   1 H        0.926     0.049     2.334     2.389
    47   1 H        0.926     0.048     2.346     2.395
    48   1 H        0.926     0.035     2.510     2.477
    49   1 H        0.926     0.034     2.531     2.488
    50   1 H        0.926     0.034     2.537     2.491
    51   1 H        0.925     0.039     2.458     2.452
    52   1 H        0.926     0.035     2.513     2.479
    53   1 H        0.926     0.032     2.552     2.498
    54   1 H        0.926     0.032     2.556     2.500
    55   1 H        0.926     0.035     2.517     2.481
    56   1 H        0.926     0.033     2.538     2.491
    57   1 H        0.925     0.034     2.530     2.487
    58   1 H        0.925     0.034     2.528     2.486
    59   1 H        0.926     0.034     2.533     2.489
    60   1 H        0.926     0.035     2.515     2.480
    61   1 H        0.926     0.032     2.551     2.498
    62   1 H        0.926     0.033     2.546     2.495
    63   1 H        0.926     0.036     2.508     2.477

molecular dipole:
                 x           y           z       tot (Debye)
 q only:       -0.794       0.170      -0.073
   full:       -0.857       0.191      -0.250       2.322

 projected vibrational frequencies (cm⁻¹)
eigval :       -0.00    -0.00    -0.00    -0.00     0.00     0.00
eigval :       14.10    19.03    25.42    41.39    46.90    76.41
eigval :       95.98   101.92   112.13   116.51   141.28   152.33
eigval :      167.94   174.19   198.32   238.11   241.23   250.86
eigval :      264.68   274.35   289.93   301.87   312.43   324.18
eigval :      332.47   343.57   376.98   392.98   400.09   413.04
eigval :      425.93   427.86   428.91   436.97   451.54   460.25
eigval :      481.68   486.27   494.08   507.87   510.64   522.32
eigval :      541.17   554.02   554.68   564.08   570.78   579.59
eigval :      584.56   592.47   610.26   620.55   628.38   642.49
eigval :      658.81   659.88   661.21   664.88   669.76   681.01
eigval :      695.89   698.21   714.24   742.25   745.64   761.51
eigval :      774.80   776.73   777.58   778.54   788.69   798.98
eigval :      813.28   828.28   831.13   853.32   855.59   862.32
eigval :      862.76   877.53   879.09   894.43   895.92   906.99
eigval :      912.26   913.26   913.83   915.49   916.05   917.15
eigval :      918.35   926.28   927.80   928.67   964.18  1019.62
eigval :     1051.41  1073.44  1088.60  1090.12  1095.64  1099.25
eigval :     1103.49  1107.88  1121.74  1157.91  1162.34  1164.17
eigval :     1175.97  1177.92  1182.12  1183.30  1185.70  1197.79
eigval :     1199.87  1210.88  1222.32  1241.17  1244.76  1252.42
eigval :     1258.44  1261.55  1266.98  1276.14  1279.79  1293.04
eigval :     1301.44  1308.09  1309.36  1312.15  1322.27  1343.36
eigval :     1352.32  1363.44  1369.13  1392.04  1406.37  1413.36
eigval :     1419.55  1424.77  1426.72  1438.85  1441.21  1446.12
eigval :     1450.76  1459.70  1469.10  1491.34  1505.61  1538.87
eigval :     1540.55  1567.39  1581.51  1587.04  1590.49  1591.28
eigval :     1593.68  1594.76  1604.50  1609.46  1611.73  1632.30
eigval :     3062.56  3064.68  3073.37  3075.55  3076.36  3077.36
eigval :     3078.73  3081.48  3085.81  3087.07  3087.23  3088.90
eigval :     3093.85  3094.95  3095.96  3096.57  3102.98  3103.66
eigval :     3111.35  3112.08  3116.74

   temp. (K)  partition function   enthalpy   heat capacity  entropy
                                   cal/mol     cal/K/mol   cal/K/mol   J/K/mol
 298.15  VIB  0.109E+12            16439.460    113.817     97.129
         ROT  0.368E+08              888.752      2.981     37.603
         INT  0.400E+19            17328.212    116.798    134.732
         TR   0.119E+29             1481.254      4.968     44.678
         TOT                       18809.4659   121.7664   179.4103   750.6526

       T/K    H(0)-H(T)+PV         H(T)/Eh          T*S/Eh         G(T)/Eh
   ------------------------------------------------------------------------
    298.15    0.299748E-01    0.500654E+00    0.852436E-01    0.415410E+00
   ------------------------------------------------------------------------

         :::::::::::::::::::::::::::::::::::::::::::::::::::::
         ::                  THERMODYNAMIC                  ::
         :::::::::::::::::::::::::::::::::::::::::::::::::::::
         :: total free energy        -102.997221997046 Eh   ::
         ::.................................................::
         :: total energy             -103.412632354270 Eh   ::
         :: zero point energy           0.470679176731 Eh   ::
         :: G(RRHO) w/o ZPVE           -0.055268819507 Eh   ::
         :: G(RRHO) contrib.            0.415410357224 Eh   ::
         :::::::::::::::::::::::::::::::::::::::::::::::::::::

           -------------------------------------------------
          | TOTAL ENERGY             -103.412632354270 Eh   |
          | TOTAL ENTHALPY           -102.911978385652 Eh   |
          | TOTAL FREE ENERGY        -102.997221997046 Eh   |
          | GRADIENT NORM               0.000024343058 Eh/α |
          | HOMO-LUMO GAP               1.396239058565 eV   |
           -------------------------------------------------

 * finished run on 2025/08/21 at 17:17:31.882
