   * xtb version 6.7.1 (edcfbbe) compiled by 'albert@albert-system' on 2024-07-22

   ID    Z sym.   atoms
    1    6 C      1-6, 8-13, 15-42
    2    8 O      7
    3    7 N      14
    4    1 H      43-63

          program call               : xtb data2507/gas/DBCP/DBCP_gas_S0_finalOpt.xtbopt.xyz --gfn 2 --spinpol --tblite --uhf 2 --ohess vtight --parallel 40 --molden --ceasefiles --namespace data2507/gas/DBCP/DBCP_gas_T1_preOpt
 * total energy  :  -103.3326314 Eh     change       -0.2687402E-07 Eh
 * total energy  :  -103.3371134 Eh     change       -0.4482016E-02 Eh
 * total energy  :  -103.3384715 Eh     change       -0.1358062E-02 Eh
 * total energy  :  -103.3386523 Eh     change       -0.1808333E-03 Eh
 * total energy  :  -103.3387810 Eh     change       -0.1287053E-03 Eh
 * total energy  :  -103.3388274 Eh     change       -0.4633536E-04 Eh
 * total energy  :  -103.3388694 Eh     change       -0.4207167E-04 Eh
 * total energy  :  -103.3389018 Eh     change       -0.3235140E-04 Eh
 * total energy  :  -103.3389315 Eh     change       -0.2969332E-04 Eh
 * total energy  :  -103.3389620 Eh     change       -0.3046578E-04 Eh
 * total energy  :  -103.3396957 Eh     change       -0.2378122E-05 Eh
 * total energy  :  -103.3396978 Eh     change       -0.2144037E-05 Eh
 * total energy  :  -103.3396997 Eh     change       -0.1817123E-05 Eh
 * total energy  :  -103.3397010 Eh     change       -0.1316196E-05 Eh
 * total energy  :  -103.3397021 Eh     change       -0.1157911E-05 Eh
 * total energy  :  -103.3397033 Eh     change       -0.1163325E-05 Eh
 * total energy  :  -103.3397042 Eh     change       -0.9128317E-06 Eh
 * total energy  :  -103.3397045 Eh     change       -0.2769730E-06 Eh
 * total energy  :  -103.3397046 Eh     change       -0.8881575E-07 Eh
   *** GEOMETRY OPTIMIZATION CONVERGED AFTER 39 ITERATIONS ***

 final structure:
================
63
 xtb: 6.7.1 (edcfbbe)
C            3.69008921591168        1.37372255873309       -3.26290665955632
C            2.33834305796099        1.46736112853418       -2.97424554219277
C            1.80023102807605        0.77931332684663       -1.90438190867204
C            2.61144192979729       -0.00626040416191       -1.08661269139778
C            3.96872136041418       -0.13907112436766       -1.42206741139251
C            4.50072730284716        0.55486932155482       -2.49679756551033
O            4.81215105185920       -0.96210123982651       -0.73115219812116
C            4.28835532345244       -1.68551545538880        0.30111060515929
C            5.14307597670376       -2.54780971161736        0.96893456740415
C            4.68601382007599       -3.27882993530131        2.05195397648781
C            3.37836723602131       -3.12519767784396        2.48280400648057
C            2.51935256814919       -2.26599198664603        1.82431114088080
C            2.94809776748412       -1.55452448936494        0.70336292221084
N            2.11066383228934       -0.68311635109173        0.02048345198694
C            0.77077552377173       -0.52414867779685        0.41716815914957
C           -0.05466478121982       -1.69989602718253        0.28727411419652
C           -1.43070543072170       -1.66478878938148        0.43898664272022
C           -2.47566927887559       -2.61149872466889        0.03036177613144
C           -2.16434016654548       -3.95038067985481       -0.18297325663165
C           -3.11583815750516       -4.86592848572122       -0.59751257334593
C           -4.41787080887050       -4.44794692558609       -0.81650687097058
C           -4.75894031919170       -3.12487175426422       -0.61656885498304
C           -3.82580934473260       -2.17593180855224       -0.19086027469553
C           -4.21038487825007       -0.78380382790703       -0.01179899851045
C           -5.25696473941953       -0.02605668193284       -0.55780250000183
C           -5.26792864663274        1.37376633252722       -0.55641766863792
C           -4.18217853900097        2.15116521616651       -0.04779785087217
C           -3.78384832180135        3.49842039675197       -0.29314256207562
C           -2.49468974024005        3.94700459168992       -0.04426194418957
C           -1.48283755439039        3.11762021193467        0.49409060140445
C           -0.03972405951814        3.25203277807278        0.52960389082440
C            0.56713254092660        4.50635344645809        0.39831153279793
C            1.93139401101403        4.66966629283291        0.46976884869077
C            2.74586760269739        3.56987905646221        0.70537407431140
C            2.18473848953824        2.31519748316289        0.81463347712667
C            0.81064799188323        2.10395368848760        0.69645423829828
C            0.24223116391082        0.75259208692500        0.73766159389457
C           -1.11059188785383        0.73352284539496        1.01352580918810
C           -1.93656729531086        1.86416838626930        0.89903403344473
C           -3.23927764004568        1.40597690898672        0.63911725797555
C           -3.23648906683749       -0.01385008717967        0.65028776558533
C           -1.93401707804916       -0.43031099742259        0.86376515334078
H            4.11126145860429        1.91978816247108       -4.09189474413355
H            1.69320101838425        2.07786474966698       -3.58593559202084
H            0.74369840820839        0.84208577381447       -1.70192373304249
H            5.54997058785621        0.43494789785279       -2.71374508693468
H            6.16257854550969       -2.62308378546669        0.62666714771712
H            5.35571373361915       -3.94971598446988        2.56595929023586
H            3.02379815093192       -3.66940922411722        3.34405352341844
H            1.50994500651085       -2.13283518402219        2.17875225784167
H            0.43929567422089       -2.57955165541349       -0.10167156235655
H           -1.15115777543892       -4.28325780825848       -0.00782870621719
H           -2.84158068666325       -5.89966142930023       -0.74832958628435
H           -5.16789889129558       -5.15517202313896       -1.13977316761548
H           -5.77978955250866       -2.80978807929221       -0.77546735865376
H           -6.06209026006689       -0.52419941612244       -1.08121907232622
H           -6.08904657499828        1.87747376354168       -1.04758229144565
H           -4.47803331188272        4.16997753145519       -0.77945934611243
H           -2.24654040146747        4.95223973381962       -0.35735395901340
H           -0.06638642088209        5.37066985733126        0.26324048180200
H            2.36624472962971        5.65350694360961        0.36915259945006
H            3.81394108233976        3.69387887218441        0.80702252525237
H            2.83043156660165        1.47779360731118        1.03604867761065

 projected vibrational frequencies (cm⁻¹)
eigval :       -0.00    -0.00     0.00     0.00     0.00     0.00
eigval :       21.56    24.38    29.53    47.00    57.94    76.75
eigval :       97.05   103.38   113.69   121.05   142.00   155.27
eigval :      169.09   176.70   201.50   234.05   240.45   248.68
eigval :      266.83   272.78   287.55   293.46   306.81   318.61
eigval :      323.13   340.12   370.10   387.14   393.70   399.51
eigval :      422.77   430.74   437.31   437.63   455.88   460.35
eigval :      473.15   479.35   491.79   498.16   500.42   532.49
eigval :      535.70   538.65   547.80   551.48   561.46   565.95
eigval :      572.88   579.53   593.52   607.95   613.22   626.71
eigval :      640.42   658.23   663.18   667.88   672.06   675.07
eigval :      685.41   694.74   703.49   724.45   726.63   755.01
eigval :      762.46   770.83   775.03   777.35   779.24   788.60
eigval :      797.51   803.74   810.80   827.96   857.36   867.67
eigval :      868.71   869.84   870.87   874.22   886.24   901.97
eigval :      903.18   907.26   907.40   910.42   914.89   918.38
eigval :      918.53   919.15   920.93   922.86   940.35  1013.64
eigval :     1033.02  1075.65  1084.90  1086.26  1090.72  1097.47
eigval :     1099.32  1106.48  1115.81  1117.46  1141.72  1154.78
eigval :     1159.68  1171.57  1173.48  1179.49  1180.60  1183.37
eigval :     1193.81  1210.30  1210.59  1213.03  1230.56  1238.89
eigval :     1246.72  1253.36  1258.06  1267.68  1271.63  1276.16
eigval :     1280.14  1299.59  1302.25  1305.94  1307.08  1318.56
eigval :     1320.93  1337.81  1345.98  1362.59  1370.08  1379.63
eigval :     1410.75  1415.38  1416.65  1429.58  1430.31  1432.84
eigval :     1440.50  1443.33  1449.44  1469.90  1477.33  1491.52
eigval :     1525.89  1537.35  1539.15  1550.13  1555.64  1561.94
eigval :     1563.81  1575.45  1575.68  1586.95  1588.78  1601.36
eigval :     3056.17  3057.34  3065.93  3068.77  3070.61  3070.89
eigval :     3072.08  3074.99  3075.78  3084.60  3085.34  3090.79
eigval :     3091.46  3096.77  3098.47  3105.09  3106.42  3112.88
eigval :     3115.40  3116.57  3119.46

   temp. (K)  partition function   enthalpy   heat capacity  entropy
                                   cal/mol     cal/K/mol   cal/K/mol   J/K/mol
 298.15  VIB  0.399E+11            16568.660    115.700     97.185
         ROT  0.367E+08              888.752      2.981     37.598
         INT  0.147E+19            17457.412    118.681    134.783
         TR   0.119E+29             1481.254      4.968     44.678
         TOT                       18938.6659   123.6488   179.4605   750.8626

       T/K    H(0)-H(T)+PV         H(T)/Eh          T*S/Eh         G(T)/Eh
   ------------------------------------------------------------------------
    298.15    0.301807E-01    0.497085E+00    0.852675E-01    0.411817E+00
   ------------------------------------------------------------------------

         :::::::::::::::::::::::::::::::::::::::::::::::::::::
         ::                  THERMODYNAMIC                  ::
         :::::::::::::::::::::::::::::::::::::::::::::::::::::
         :: total free energy        -102.927887157800 Eh   ::
         ::.................................................::
         :: total energy             -103.339704578874 Eh   ::
         :: zero point energy           0.466904191408 Eh   ::
         :: G(RRHO) w/o ZPVE           -0.055086770333 Eh   ::
         :: G(RRHO) contrib.            0.411817421074 Eh   ::
         :::::::::::::::::::::::::::::::::::::::::::::::::::::

           -------------------------------------------------
          | TOTAL ENERGY             -103.339704578874 Eh   |
          | TOTAL ENTHALPY           -102.842619702328 Eh   |
          | TOTAL FREE ENERGY        -102.927887157800 Eh   |
          | GRADIENT NORM               0.000049077706 Eh/α |
           -------------------------------------------------

 * finished run on 2025/08/21 at 17:17:38.158
