   * xtb version 6.7.1 (edcfbbe) compiled by 'albert@albert-system' on 2024-07-22

   ID    Z sym.   atoms
    1    6 C      1-6, 8-13, 15-27, 29-34, 36
    2    8 O      7
    3    7 N      14, 28, 35
    4    1 H      37-55

          program call               : xtb data2507/toluene/1PXZ-BP/1PXZ-BP_toluene_S0_finalOpt.xtbopt.xyz --gfn 2 --uhf 2 --gbsa toluene --ohess vtight --parallel 40 --molden --ceasefiles --namespace data2507/toluene/1PXZ-BP/1PXZ-BP_toluene_T1_preOpt
      * Solvation model:               GBSA
        Solvent                        toluene
        Solvent mass                       9.2140E+01 g/mol
          :  Hamiltonian                  GFN2-xTB          :
 * total energy  :   -91.0872952 Eh     change       -0.3298524E-08 Eh
 * total energy  :   -91.0901343 Eh     change       -0.2839082E-02 Eh
 * total energy  :   -91.0909592 Eh     change       -0.8249018E-03 Eh
 * total energy  :   -91.0910570 Eh     change       -0.9779004E-04 Eh
 * total energy  :   -91.0910985 Eh     change       -0.4155997E-04 Eh
 * total energy  :   -91.0911047 Eh     change       -0.6113299E-05 Eh
 * total energy  :   -91.0911113 Eh     change       -0.6628789E-05 Eh
 * total energy  :   -91.0911210 Eh     change       -0.9735036E-05 Eh
 * total energy  :   -91.0911313 Eh     change       -0.1031126E-04 Eh
 * total energy  :   -91.0911404 Eh     change       -0.9070218E-05 Eh
 * total energy  :   -91.0914650 Eh     change       -0.1630055E-05 Eh
 * total energy  :   -91.0914663 Eh     change       -0.1290377E-05 Eh
 * total energy  :   -91.0914669 Eh     change       -0.6159682E-06 Eh
 * total energy  :   -91.0914672 Eh     change       -0.3504207E-06 Eh
 * total energy  :   -91.0914676 Eh     change       -0.3543763E-06 Eh
 * total energy  :   -91.0914680 Eh     change       -0.3958164E-06 Eh
 * total energy  :   -91.0914683 Eh     change       -0.2879317E-06 Eh
 * total energy  :   -91.0914685 Eh     change       -0.2224212E-06 Eh
 * total energy  :   -91.0914685 Eh     change       -0.4085365E-08 Eh
   *** GEOMETRY OPTIMIZATION CONVERGED AFTER 44 ITERATIONS ***

 final structure:
================
55
 xtb: 6.7.1 (edcfbbe)
C           -5.12997346962934        2.88910681706818       -2.28873647432447
C           -3.74638669914900        2.90502078028115       -2.32813237192355
C           -3.01143837698841        2.06171549143870       -1.51287588075974
C           -3.65143469087651        1.18929622211663       -0.63650335968386
C           -5.05625069838533        1.16909620351308       -0.61566239516006
C           -5.78410897357728        2.01593903929070       -1.43387848109851
O           -5.76082287338176        0.31886843756553        0.19579478357636
C           -5.04853725169153       -0.52791285347832        1.00426895839712
C           -5.76997681390609       -1.38139881696983        1.82139981304765
C           -5.10957163953574       -2.25173854046643        2.67419325177757
C           -3.72587801216327       -2.25829037153827        2.71221468597774
C           -2.99732781388751       -1.40883013137179        1.89763033961322
C           -3.64343547347120       -0.53818446453814        1.02390694807272
N           -2.94615844794642        0.32864475428850        0.19328561145995
C           -1.52495521755193        0.34630379662645        0.20017779130479
C           -0.84726681772951        1.41823824650379        0.80005068892968
C            0.52075237767674        1.42249501898331        0.80284435619570
C            1.25456890597866        0.37328659665733        0.22049972247753
C            0.57514336685352       -0.71345147730468       -0.38683732074035
C           -0.82621993099885       -0.68980932211904       -0.37984240912512
C            1.33575462043317       -1.78266712579752       -0.98479888667387
C            0.73964050828418       -2.89739398824501       -1.59648570261199
C            1.49377647647345       -3.89714651457262       -2.16097247182893
C            2.88822256639143       -3.82732344548932       -2.14004876507111
C            3.50313475351007       -2.75480573052290       -1.54809174615447
C            2.75003262543036       -1.72298878426858       -0.96356390434690
C            3.43370936113148       -0.62507960701709       -0.35035556587366
N            4.75751145969498       -0.57175615101875       -0.33047018929204
C            5.41209496442056        0.44729662365822        0.23557910447442
C            6.80341216783283        0.51673370123197        0.26427509188525
C            7.44815942475335        1.58670241025250        0.86025434462222
C            6.71507959656320        2.61126266778689        1.44175166212421
C            5.33206103423883        2.57495807714636        1.43306267597862
C            4.64833608226957        1.51291357436026        0.84175734424916
N            3.31536464988969        1.44354506987067        0.81865057345966
C            2.68053203562141        0.42497994739473        0.24793293838748
H           -5.70336936644100        3.54662516000883       -2.92262185032608
H           -3.22912240526301        3.57455902420998       -2.99763457341981
H           -1.93384932727950        2.07252578684459       -1.55339820981715
H           -6.86068825526020        1.97303574793563       -1.38742395588575
H           -6.84684979022466       -1.34541729167065        1.77571466510351
H           -5.67804387001749       -2.91429043051159        3.30727467748356
H           -3.20324308084857       -2.92553430542360        3.37985309118802
H           -1.91965589919402       -1.41303405932658        1.93771118734194
H           -1.40980512855914        2.22090964643980        1.25205900536255
H            1.07582760513384        2.22927392622797        1.25657271844058
H           -1.38850352269859       -1.49020014188074       -0.83373486917539
H           -0.33469553450858       -2.98361046010358       -1.62894739653052
H            1.00609690769915       -4.74239887242582       -2.62410212016936
H            3.47642655234537       -4.61523581420292       -2.58653000574721
H            4.57911808259510       -2.67275306489311       -1.51357558329346
H            7.36172594555968       -0.28703300679962       -0.19149923403028
H            8.52723596573178        1.62023086806524        0.86985267599613
H            7.22318097761948        3.44368630718507        1.90523505827932
H            4.75099801394879        3.36675708123334        1.88119691288909

          :  Hamiltonian                  GFN2-xTB          :
         :: gradient norm              0.000044785873 Eh/a0 ::
         :: HOMO-LUMO gap              0.919927462460 eV    ::
         :: SCC energy               -92.711202423077 Eh    ::
         :: -> dispersion             -0.076482279310 Eh    ::
         :: -> Gsolv                  -0.039714081474 Eh    ::
         :: repulsion energy           1.619733916079 Eh    ::

    * Orbital Energies and Occupations

         #    Occupation            Energy/Eh            Energy/eV
      -------------------------------------------------------------
         1        2.0000           -0.7450039             -20.2726
       ...           ...                  ...                  ...
        73        2.0000           -0.4268889             -11.6162
        74        2.0000           -0.4250438             -11.5660
        75        2.0000           -0.4242325             -11.5440
        76        2.0000           -0.4225839             -11.4991
        77        2.0000           -0.4175811             -11.3630
        78        2.0000           -0.4156750             -11.3111
        79        2.0000           -0.4023089             -10.9474
        80        2.0000           -0.3974953             -10.8164
        81        2.0000           -0.3908085             -10.6344
        82        2.0000           -0.3841043             -10.4520
        83        1.7892           -0.3547740              -9.6539
        84        1.2108           -0.3522660              -9.5856
        85        1.0000           -0.3005256              -8.1777 (HOMO)
        86                         -0.2667187              -7.2578 (LUMO)
        87                         -0.2553220              -6.9477
        88                         -0.2510232              -6.8307
        89                         -0.2403213              -6.5395
        90                         -0.2272726              -6.1844
        91                         -0.2211598              -6.0181
        92                         -0.2123493              -5.7783
        93                         -0.2073552              -5.6424
        94                         -0.1977888              -5.3821
        95                         -0.1949754              -5.3055
        96                         -0.1481551              -4.0315
       ...                                ...                  ...
       163                          0.7096095              19.3095
      -------------------------------------------------------------
                  HL-Gap            0.0338069 Eh            0.9199 eV

     #   Z          covCN         q      C6AA      α(0)
     1   6 C        2.919    -0.034    28.847     8.808
     2   6 C        2.918    -0.033    28.821     8.804
     3   6 C        2.922    -0.054    29.341     8.883
     4   6 C        2.924     0.045    26.980     8.518
     5   6 C        2.883     0.127    25.212     8.232
     6   6 C        2.918    -0.054    29.341     8.883
     7   8 O        1.709    -0.246    18.067     5.739
     8   6 C        2.883     0.127    25.212     8.232
     9   6 C        2.918    -0.054    29.339     8.882
    10   6 C        2.919    -0.034    28.848     8.808
    11   6 C        2.918    -0.033    28.820     8.803
    12   6 C        2.922    -0.054    29.348     8.884
    13   6 C        2.924     0.045    26.985     8.519
    14   7 N        2.753    -0.044    22.093     6.981
    15   6 C        2.920     0.053    26.803     8.490
    16   6 C        2.916    -0.044    29.083     8.843
    17   6 C        2.924    -0.029    28.717     8.788
    18   6 C        2.986    -0.011    28.288     8.725
    19   6 C        2.976    -0.001    28.044     8.687
    20   6 C        2.922    -0.044    29.105     8.847
    21   6 C        2.976    -0.002    28.071     8.691
    22   6 C        2.920    -0.035    28.879     8.812
    23   6 C        2.917    -0.032    28.796     8.800
    24   6 C        2.916    -0.032    28.801     8.800
    25   6 C        2.923    -0.029    28.733     8.790
    26   6 C        2.987    -0.009    28.233     8.716
    27   6 C        2.941     0.082    26.168     8.390
    28   7 N        1.849    -0.247    27.302     7.744
    29   6 C        2.941     0.086    26.078     8.375
    30   6 C        2.918    -0.060    29.497     8.906
    31   6 C        2.915    -0.039    28.967     8.826
    32   6 C        2.915    -0.038    28.948     8.823
    33   6 C        2.918    -0.061    29.519     8.910
    34   6 C        2.940     0.087    26.062     8.373
    35   7 N        1.849    -0.249    27.352     7.751
    36   6 C        2.941     0.078    26.252     8.403
    37   1 H        0.926     0.052     2.292     2.368
    38   1 H        0.926     0.050     2.316     2.380
    39   1 H        0.926     0.048     2.349     2.397
    40   1 H        0.926     0.058     2.221     2.331
    41   1 H        0.926     0.058     2.221     2.331
    42   1 H        0.926     0.052     2.292     2.368
    43   1 H        0.926     0.050     2.316     2.380
    44   1 H        0.926     0.047     2.352     2.398
    45   1 H        0.926     0.046     2.373     2.409
    46   1 H        0.926     0.053     2.282     2.362
    47   1 H        0.926     0.048     2.345     2.395
    48   1 H        0.926     0.040     2.452     2.449
    49   1 H        0.926     0.037     2.483     2.464
    50   1 H        0.926     0.037     2.488     2.467
    51   1 H        0.926     0.043     2.408     2.426
    52   1 H        0.926     0.040     2.445     2.445
    53   1 H        0.926     0.035     2.522     2.483
    54   1 H        0.926     0.035     2.517     2.481
    55   1 H        0.926     0.041     2.438     2.442

molecular dipole:
                 x           y           z       tot (Debye)
 q only:       -2.582      -0.218      -0.122
   full:       -2.442      -0.186      -0.107       6.230

 projected vibrational frequencies (cm⁻¹)
eigval :       -0.00     0.00     0.00     0.00     0.00     0.00
eigval :       16.91    23.52    25.71    52.63    53.58    62.66
eigval :       87.81   102.90   105.03   113.43   138.02   150.62
eigval :      172.23   196.94   223.82   242.56   248.66   264.88
eigval :      276.11   281.50   314.75   325.76   356.95   378.56
eigval :      385.84   392.27   411.60   413.28   417.17   430.96
eigval :      435.79   443.29   455.45   470.12   502.77   511.96
eigval :      513.67   521.51   525.98   529.32   547.92   574.72
eigval :      575.87   581.28   605.34   612.18   613.90   627.94
eigval :      655.92   665.40   667.68   678.46   683.36   687.07
eigval :      701.48   722.12   757.92   760.68   770.85   776.79
eigval :      778.19   806.10   820.64   824.92   831.55   850.36
eigval :      854.02   859.86   865.67   866.08   873.47   874.62
eigval :      900.17   900.77   901.78   908.91   909.51   916.03
eigval :      918.02   918.47   919.47   922.24   965.33  1031.22
eigval :     1061.16  1072.91  1084.89  1085.40  1087.35  1111.04
eigval :     1119.63  1127.58  1141.41  1146.96  1166.15  1169.78
eigval :     1172.37  1176.44  1181.42  1201.27  1203.52  1222.74
eigval :     1226.36  1235.51  1238.96  1250.20  1254.06  1255.96
eigval :     1273.88  1290.26  1299.94  1306.25  1309.86  1321.79
eigval :     1322.60  1332.85  1345.22  1354.05  1360.55  1395.00
eigval :     1409.78  1415.03  1419.36  1425.19  1440.45  1451.33
eigval :     1460.14  1465.85  1473.33  1488.56  1513.04  1534.34
eigval :     1541.69  1548.13  1558.66  1566.02  1567.46  1576.16
eigval :     1587.01  1589.08  3073.57  3076.61  3080.07  3082.17
eigval :     3086.62  3087.81  3093.71  3094.01  3094.13  3094.85
eigval :     3098.40  3099.27  3101.37  3101.47  3107.85  3109.11
eigval :     3109.55  3113.16  3113.54

   temp. (K)  partition function   enthalpy   heat capacity  entropy
                                   cal/mol     cal/K/mol   cal/K/mol   J/K/mol
 298.15  VIB  0.188E+11            14907.128    100.677     89.446
         ROT  0.346E+08              888.752      2.981     37.477
         INT  0.651E+18            15795.880    103.658    126.923
         TR   0.959E+28             1481.254      4.968     44.257
         TOT                       17277.1343   108.6258   171.1797   716.2160

       T/K    H(0)-H(T)+PV         H(T)/Eh          T*S/Eh         G(T)/Eh
   ------------------------------------------------------------------------
    298.15    0.275329E-01    0.434901E+00    0.813330E-01    0.353568E+00
   ------------------------------------------------------------------------

         :::::::::::::::::::::::::::::::::::::::::::::::::::::
         ::                  THERMODYNAMIC                  ::
         :::::::::::::::::::::::::::::::::::::::::::::::::::::
         :: total free energy         -90.737900390908 Eh   ::
         ::.................................................::
         :: total energy              -91.091468507417 Eh   ::
         :: zero point energy           0.407368267856 Eh   ::
         :: G(RRHO) w/o ZPVE           -0.053800151347 Eh   ::
         :: G(RRHO) contrib.            0.353568116509 Eh   ::
         :::::::::::::::::::::::::::::::::::::::::::::::::::::

           -------------------------------------------------
          | TOTAL ENERGY              -91.091468507417 Eh   |
          | TOTAL ENTHALPY            -90.656567373505 Eh   |
          | TOTAL FREE ENERGY         -90.737900390908 Eh   |
          | GRADIENT NORM               0.000048023283 Eh/α |
          | HOMO-LUMO GAP               0.919932420220 eV   |
           -------------------------------------------------

 * finished run on 2025/07/17 at 21:35:29.812
