   * xtb version 6.7.1 (edcfbbe) compiled by 'albert@albert-system' on 2024-07-22

   ID    Z sym.   atoms
    1    6 C      1-6, 8-13, 15-27, 29-34, 36
    2    8 O      7
    3    7 N      14, 28, 35
    4    1 H      37-55

          program call               : xtb data2507/toluene/1PXZ-BP/1PXZ-BP_toluene_T1_crest.xyz --gfn 2 --uhf 2 --gbsa toluene --ohess vtight --parallel 40 --molden --ceasefiles --namespace data2507/toluene/1PXZ-BP/1PXZ-BP_toluene_T1_finalOpt
      * Solvation model:               GBSA
        Solvent                        toluene
        Solvent mass                       9.2140E+01 g/mol
          :  Hamiltonian                  GFN2-xTB          :
 * total energy  :   -91.0912290 Eh     change       -0.2613787E-07 Eh
 * total energy  :   -91.0912882 Eh     change       -0.5922965E-04 Eh
 * total energy  :   -91.0913137 Eh     change       -0.2554440E-04 Eh
 * total energy  :   -91.0913175 Eh     change       -0.3746448E-05 Eh
 * total energy  :   -91.0913189 Eh     change       -0.1441779E-05 Eh
 * total energy  :   -91.0913204 Eh     change       -0.1436352E-05 Eh
 * total energy  :   -91.0913226 Eh     change       -0.2211289E-05 Eh
 * total energy  :   -91.0913256 Eh     change       -0.3014174E-05 Eh
 * total energy  :   -91.0913289 Eh     change       -0.3336849E-05 Eh
 * total energy  :   -91.0913324 Eh     change       -0.3471887E-05 Eh
 * total energy  :   -91.0913927 Eh     change       -0.3251971E-06 Eh
 * total energy  :   -91.0913934 Eh     change       -0.6891567E-06 Eh
 * total energy  :   -91.0913937 Eh     change       -0.3303110E-06 Eh
 * total energy  :   -91.0913938 Eh     change       -0.1435024E-06 Eh
 * total energy  :   -91.0913940 Eh     change       -0.1462101E-06 Eh
 * total energy  :   -91.0913942 Eh     change       -0.2026527E-06 Eh
 * total energy  :   -91.0913944 Eh     change       -0.1928098E-06 Eh
 * total energy  :   -91.0913945 Eh     change       -0.1246846E-06 Eh
 * total energy  :   -91.0913946 Eh     change       -0.8721571E-07 Eh
   *** GEOMETRY OPTIMIZATION CONVERGED AFTER 30 ITERATIONS ***

 final structure:
================
55
 xtb: 6.7.1 (edcfbbe)
C           -5.14494124097471       -2.13640667126561       -2.73185203779705
C           -3.76164743333510       -2.15121013431223       -2.78095203867927
C           -3.02085370582110       -1.33620346241492       -1.94255633384931
C           -3.65420473857072       -0.49298211768729       -1.03337296411425
C           -5.05902450859860       -0.47351785404535       -1.00234020272122
C           -5.79270146412756       -1.29226239492721       -1.84373108208908
O           -5.75892711951873        0.34888440125958       -0.15857871760253
C           -5.04196357384509        1.16437453633430        0.67734603526817
C           -5.75712890372702        1.98737866043289        1.53035028567234
C           -5.08987503111448        2.82478044896531        2.41050836195060
C           -3.70595318091691        2.82824898469448        2.44049886850752
C           -2.98362707689580        2.00852063358118        1.59064021691890
C           -3.63692966861316        1.17309494073575        0.68843857980293
N           -2.94441551466244        0.33807110550064       -0.17743320741498
C           -1.52315666552802        0.34827312956220       -0.19541293506360
C           -0.84480781692022        1.43561625973592       -0.76608351019086
C            0.52316863297505        1.43589016561943       -0.77506509000999
C            1.25633295669534        0.36823020520131       -0.22640200939713
C            0.57614528083919       -0.73573542853100        0.34817204859024
C           -0.82520411983631       -0.70806540442616        0.34777726475371
C            1.33615484057849       -1.82405364952528        0.91155670451917
C            0.73961356200719       -2.96060550119670        1.48126253192270
C            1.49325934244079       -3.97576529493498        2.01820944310405
C            2.88753044840103       -3.90017349405340        2.01080841246957
C            3.50294306810443       -2.80769215092413        1.45714355520628
C            2.75038182436594       -1.76059242521509        0.89979030630314
C            3.43474551257793       -0.64348134488594        0.32315949347513
N            4.75845541063830       -0.58515521502718        0.31506419068417
C            5.41366180964857        0.45195395497532       -0.21644300899595
C            6.80485329256893        0.52851263264976       -0.22885033929490
C            7.45047577616892        1.61620388187964       -0.79078123926341
C            6.71832283475877        2.65151896261169       -1.35410191495158
C            5.33546832258125        2.60906663583889       -1.35982282360571
C            4.65080539060854        1.52993500747089       -0.80144407431178
N            3.31790450746880        1.45587038921062       -0.78991744219174
C            2.68234621282927        0.42094056410257       -0.25017180971993
H           -5.72292745861386       -2.77200967081638       -3.38367304947580
H           -3.24898426912736       -2.79769816880845       -3.47617392536177
H           -1.94354435116979       -1.34605154898632       -1.99106339325564
H           -6.86892502035202       -1.25029441559336       -1.78867536502774
H           -6.83432946644221        1.95453358725008        1.49049903882639
H           -5.65350144396328        3.46403537470095        3.07129365385963
H           -3.17854146924047        3.46922777295693        3.12976359226385
H           -1.90570126890988        2.00911808426763        1.62351500504353
H           -1.40704978164209        2.25346491583879       -1.19038364069315
H            1.07873244809930        2.25474589588918       -1.20595980729725
H           -1.38794193644060       -1.51985622594434        0.78033786641457
H           -0.33458013297262       -3.05225134704306        1.50148145741839
H            1.00543573461718       -4.83799984660489        2.44872610014317
H            3.47529799535976       -4.69972260222909        2.43667692910512
H            4.57887112276214       -2.72148124253140        1.43215328394647
H            7.36239006052158       -0.28409901136912        0.21192047679130
H            8.52941150869588        1.65499388415413       -0.78823164013521
H            7.22697756804210        3.49756053014946       -1.79157550029766
H            4.75522015092534        3.40952832642138       -1.79336769084906

          :  Hamiltonian                  GFN2-xTB          :
         :: gradient norm              0.000094017412 Eh/a0 ::
         :: HOMO-LUMO gap              0.920059754077 eV    ::
         :: SCC energy               -92.711134425091 Eh    ::
         :: -> dispersion             -0.076479184186 Eh    ::
         :: -> Gsolv                  -0.039654318006 Eh    ::
         :: repulsion energy           1.619739836685 Eh    ::

    * Orbital Energies and Occupations

         #    Occupation            Energy/Eh            Energy/eV
      -------------------------------------------------------------
         1        2.0000           -0.7449983             -20.2724
       ...           ...                  ...                  ...
        73        2.0000           -0.4268906             -11.6163
        74        2.0000           -0.4250435             -11.5660
        75        2.0000           -0.4242372             -11.5441
        76        2.0000           -0.4225838             -11.4991
        77        2.0000           -0.4175852             -11.3631
        78        2.0000           -0.4156790             -11.3112
        79        2.0000           -0.4023175             -10.9476
        80        2.0000           -0.3975070             -10.8167
        81        2.0000           -0.3908091             -10.6345
        82        2.0000           -0.3841046             -10.4520
        83        1.7895           -0.3547771              -9.6540
        84        1.2105           -0.3522651              -9.5856
        85        1.0000           -0.3005329              -8.1779 (HOMO)
        86                         -0.2667212              -7.2579 (LUMO)
        87                         -0.2553296              -6.9479
        88                         -0.2510247              -6.8307
        89                         -0.2403239              -6.5395
        90                         -0.2272321              -6.1833
        91                         -0.2211969              -6.0191
        92                         -0.2123473              -5.7783
        93                         -0.2073679              -5.6428
        94                         -0.1978136              -5.3828
        95                         -0.1949869              -5.3059
        96                         -0.1481682              -4.0319
       ...                                ...                  ...
       163                          0.7095777              19.3086
      -------------------------------------------------------------
                  HL-Gap            0.0338117 Eh            0.9201 eV

     #   Z          covCN         q      C6AA      α(0)
     1   6 C        2.919    -0.034    28.848     8.808
     2   6 C        2.918    -0.033    28.820     8.803
     3   6 C        2.922    -0.054    29.348     8.884
     4   6 C        2.924     0.045    26.984     8.519
     5   6 C        2.883     0.127    25.212     8.232
     6   6 C        2.918    -0.054    29.339     8.882
     7   8 O        1.709    -0.246    18.067     5.739
     8   6 C        2.883     0.127    25.212     8.232
     9   6 C        2.918    -0.054    29.341     8.883
    10   6 C        2.919    -0.034    28.847     8.808
    11   6 C        2.918    -0.033    28.821     8.804
    12   6 C        2.922    -0.054    29.341     8.883
    13   6 C        2.925     0.046    26.979     8.518
    14   7 N        2.753    -0.044    22.094     6.981
    15   6 C        2.920     0.053    26.803     8.490
    16   6 C        2.916    -0.044    29.083     8.843
    17   6 C        2.924    -0.029    28.716     8.788
    18   6 C        2.986    -0.011    28.288     8.725
    19   6 C        2.976    -0.001    28.044     8.687
    20   6 C        2.922    -0.044    29.104     8.847
    21   6 C        2.976    -0.002    28.071     8.691
    22   6 C        2.920    -0.035    28.878     8.812
    23   6 C        2.917    -0.032    28.796     8.800
    24   6 C        2.916    -0.032    28.801     8.800
    25   6 C        2.923    -0.029    28.733     8.790
    26   6 C        2.987    -0.009    28.233     8.716
    27   6 C        2.941     0.082    26.168     8.390
    28   7 N        1.849    -0.247    27.303     7.744
    29   6 C        2.941     0.086    26.078     8.375
    30   6 C        2.918    -0.060    29.497     8.906
    31   6 C        2.915    -0.039    28.967     8.826
    32   6 C        2.915    -0.038    28.948     8.823
    33   6 C        2.918    -0.061    29.519     8.910
    34   6 C        2.940     0.087    26.062     8.373
    35   7 N        1.849    -0.249    27.352     7.751
    36   6 C        2.941     0.078    26.252     8.403
    37   1 H        0.926     0.052     2.292     2.368
    38   1 H        0.926     0.050     2.315     2.380
    39   1 H        0.926     0.047     2.352     2.398
    40   1 H        0.926     0.058     2.221     2.331
    41   1 H        0.926     0.058     2.221     2.331
    42   1 H        0.926     0.052     2.292     2.368
    43   1 H        0.926     0.050     2.316     2.380
    44   1 H        0.926     0.048     2.351     2.398
    45   1 H        0.926     0.046     2.374     2.409
    46   1 H        0.926     0.053     2.282     2.362
    47   1 H        0.926     0.048     2.345     2.395
    48   1 H        0.926     0.040     2.452     2.449
    49   1 H        0.926     0.037     2.483     2.464
    50   1 H        0.926     0.037     2.488     2.467
    51   1 H        0.926     0.043     2.407     2.426
    52   1 H        0.926     0.040     2.445     2.445
    53   1 H        0.926     0.035     2.522     2.483
    54   1 H        0.926     0.035     2.517     2.481
    55   1 H        0.926     0.041     2.438     2.442

molecular dipole:
                 x           y           z       tot (Debye)
 q only:       -2.582      -0.219       0.119
   full:       -2.441      -0.186       0.105       6.229

 projected vibrational frequencies (cm⁻¹)
eigval :       -0.00    -0.00    -0.00    -0.00     0.00     0.00
eigval :       15.90    21.29    25.68    52.25    52.43    60.36
eigval :       84.55   102.54   104.87   112.81   138.13   148.54
eigval :      172.14   196.21   223.48   242.22   248.84   264.85
eigval :      274.67   281.36   314.58   324.34   356.90   377.18
eigval :      385.66   392.25   410.21   413.23   416.65   431.12
eigval :      435.18   443.24   454.74   469.97   502.89   511.00
eigval :      512.90   520.30   525.72   529.29   547.85   574.43
eigval :      575.70   581.12   605.02   612.22   612.91   627.35
eigval :      655.93   665.59   667.65   677.34   682.51   686.94
eigval :      701.18   721.25   756.39   760.59   770.33   776.84
eigval :      778.36   806.06   819.05   822.49   831.53   850.32
eigval :      853.97   860.73   865.70   866.09   871.57   873.33
eigval :      898.49   900.61   901.83   908.43   909.08   915.08
eigval :      916.02   917.94   919.33   921.99   965.22  1030.88
eigval :     1060.97  1072.91  1084.74  1085.23  1087.15  1111.00
eigval :     1119.54  1127.31  1141.04  1146.88  1165.96  1169.27
eigval :     1172.43  1176.40  1181.39  1201.23  1203.32  1222.52
eigval :     1226.23  1235.49  1238.90  1250.20  1254.19  1255.85
eigval :     1273.91  1290.40  1299.92  1306.30  1309.91  1321.92
eigval :     1322.47  1332.73  1345.26  1353.92  1360.47  1394.89
eigval :     1409.76  1414.95  1419.39  1425.04  1440.61  1451.33
eigval :     1460.07  1465.77  1473.25  1488.53  1512.91  1534.31
eigval :     1541.67  1548.10  1558.70  1566.07  1567.47  1576.20
eigval :     1586.95  1589.12  3074.02  3076.90  3080.28  3082.48
eigval :     3086.82  3087.83  3093.60  3093.68  3094.16  3095.08
eigval :     3098.60  3099.24  3101.28  3101.35  3108.02  3109.15
eigval :     3109.60  3113.12  3113.49

   temp. (K)  partition function   enthalpy   heat capacity  entropy
                                   cal/mol     cal/K/mol   cal/K/mol   J/K/mol
 298.15  VIB  0.248E+11            14936.324    100.652     89.790
         ROT  0.346E+08              888.752      2.981     37.477
         INT  0.857E+18            15825.076    103.633    127.267
         TR   0.959E+28             1481.254      4.968     44.257
         TOT                       17306.3300   108.6011   171.5235   717.6544

       T/K    H(0)-H(T)+PV         H(T)/Eh          T*S/Eh         G(T)/Eh
   ------------------------------------------------------------------------
    298.15    0.275794E-01    0.434836E+00    0.814964E-01    0.353339E+00
   ------------------------------------------------------------------------

         :::::::::::::::::::::::::::::::::::::::::::::::::::::
         ::                  THERMODYNAMIC                  ::
         :::::::::::::::::::::::::::::::::::::::::::::::::::::
         :: total free energy         -90.738055265941 Eh   ::
         ::.................................................::
         :: total energy              -91.091394594726 Eh   ::
         :: zero point energy           0.407256293153 Eh   ::
         :: G(RRHO) w/o ZPVE           -0.053916964369 Eh   ::
         :: G(RRHO) contrib.            0.353339328784 Eh   ::
         :::::::::::::::::::::::::::::::::::::::::::::::::::::

           -------------------------------------------------
          | TOTAL ENERGY              -91.091394594726 Eh   |
          | TOTAL ENTHALPY            -90.656558909246 Eh   |
          | TOTAL FREE ENERGY         -90.738055265941 Eh   |
          | GRADIENT NORM               0.000092675734 Eh/α |
          | HOMO-LUMO GAP               0.920064421682 eV   |
           -------------------------------------------------

 * finished run on 2025/07/17 at 21:38:37.541
