   * xtb version 6.7.1 (edcfbbe) compiled by 'albert@albert-system' on 2024-07-22

   ID    Z sym.   atoms
    1    6 C      1-6, 8-13, 15-27, 29-34, 36
    2    8 O      7
    3    7 N      14, 28, 35
    4    1 H      37-55

          program call               : xtb data2507/toluene/1PXZ-BP/1PXZ-BP.xyz --gfn 2 --gbsa toluene --ohess vtight --parallel 40 --molden --ceasefiles --namespace data2507/toluene/1PXZ-BP/1PXZ-BP_toluene_S0_preOpt
      * Solvation model:               GBSA
        Solvent                        toluene
        Solvent mass                       9.2140E+01 g/mol
          :  Hamiltonian                  GFN2-xTB          :
 * total energy  :   -91.1207420 Eh     change       -0.3694126E-08 Eh
 * total energy  :   -91.1341728 Eh     change       -0.1343082E-01 Eh
 * total energy  :   -91.1377489 Eh     change       -0.3576082E-02 Eh
 * total energy  :   -91.1383777 Eh     change       -0.6287385E-03 Eh
 * total energy  :   -91.1387516 Eh     change       -0.3739187E-03 Eh
 * total energy  :   -91.1388170 Eh     change       -0.6543179E-04 Eh
 * total energy  :   -91.1388366 Eh     change       -0.1961851E-04 Eh
 * total energy  :   -91.1388420 Eh     change       -0.5410924E-05 Eh
 * total energy  :   -91.1388371 Eh     change        0.4909732E-05 Eh
 * total energy  :   -91.1388426 Eh     change       -0.5458098E-05 Eh
 * total energy  :   -91.1388448 Eh     change       -0.2662540E-06 Eh
 * total energy  :   -91.1388450 Eh     change       -0.1821106E-06 Eh
 * total energy  :   -91.1388452 Eh     change       -0.1725581E-06 Eh
 * total energy  :   -91.1388454 Eh     change       -0.1795632E-06 Eh
 * total energy  :   -91.1388456 Eh     change       -0.1985626E-06 Eh
 * total energy  :   -91.1388458 Eh     change       -0.2025690E-06 Eh
 * total energy  :   -91.1388460 Eh     change       -0.2091222E-06 Eh
 * total energy  :   -91.1388462 Eh     change       -0.2195478E-06 Eh
 * total energy  :   -91.1388462 Eh     change       -0.1089532E-08 Eh
   *** GEOMETRY OPTIMIZATION CONVERGED AFTER 22 ITERATIONS ***

 final structure:
================
55
 xtb: 6.7.1 (edcfbbe)
C           -5.11490106324554       -0.51509960899423        3.57347894404619
C           -3.73541606941603       -0.50579104848317        3.60683686857844
C           -3.00613501615440       -0.48203178549002        2.42667509106486
C           -3.65083777878626       -0.46763908180976        1.19682448626188
C           -5.05229510998860       -0.47613277574809        1.17213142256041
C           -5.77315487517002       -0.50004600622972        2.35025131894081
O           -5.76818178038473       -0.46064826715134       -0.00542939183328
C           -5.05129751870151       -0.44276276962611       -1.18234815220923
C           -5.77117100579304       -0.43336133543265       -2.36127726594934
C           -5.11190641686482       -0.41488823936127       -3.58391346860137
C           -3.73238467438662       -0.40622253317766       -3.61585713447207
C           -3.00409863999111       -0.41584284271078       -2.43488204031692
C           -3.64981349416515       -0.43400836343687       -1.20561624526888
N           -2.94743949393851       -0.44070850241765       -0.00394996440997
C           -1.52570291163053       -0.45752931206685       -0.00348127848016
C           -0.84412452359014       -1.67467264298213       -0.01368537435040
C            0.53042944817612       -1.67036607080052       -0.01365968372772
C            1.24594532516723       -0.46896277032315       -0.00299507936674
C            0.56766824473134        0.76633141235917        0.00816777693774
C           -0.83108710978089        0.73686430377133        0.00723005974774
C            1.32059606628495        2.01354466264331        0.02042423812472
C            0.69866708034223        3.26781890218825        0.03187236279211
C            1.43310834650531        4.43411364180123        0.04391479971356
C            2.82296897967108        4.39184194008284        0.04479167959176
C            3.46189669361953        3.17338485467991        0.03347963605979
C            2.72969613231584        1.98235347605106        0.02133596507080
C            3.43172089088193        0.71702677391154        0.00904371429274
N            4.75216706873166        0.71591162584286        0.00940742928443
C            5.38407729045537       -0.46727517866119       -0.00393502714725
C            6.79520792566351       -0.51343807218260       -0.00441075017213
C            7.43444081175311       -1.72011649901208       -0.01873828308123
C            6.70464958348045       -2.92517693226535       -0.03318152959121
C            5.33904912572001       -2.91756173883672       -0.03289735414415
C            4.64482151253102       -1.68821824856724       -0.01810675045518
N            3.30331832780929       -1.67552987258653       -0.01731826988474
C            2.69264081547454       -0.50512473033446       -0.00390433587938
H           -5.68759959309059       -0.53380233553276        4.48744744322059
H           -3.21162742847840       -0.51694335808437        4.55053857116546
H           -1.92738062557790       -0.47535187371192        2.45746728413104
H           -6.85045458546606       -0.50656907077275        2.29236512186405
H           -6.84852251855307       -0.44104386992969       -2.30447940562388
H           -5.68384309222590       -0.40769466136465       -4.49852033690622
H           -3.20778351077012       -0.39230248984764       -4.55907074599354
H           -1.92532277755788       -0.41021141451917       -2.46463520091507
H           -1.39919542849595       -2.60044384336721       -0.02162348026183
H            1.09170660842075       -2.59139329822979       -0.02195973979449
H           -1.40332384088767        1.65030756723523        0.01499251247692
H           -0.37665897078501        3.34046247195415        0.03163230165275
H            0.92280516979617        5.38595401516338        0.05264397230678
H            3.39470093308792        5.30751895120327        0.05422112122760
H            4.53839845242468        3.10292668729340        0.03365577517995
H            7.33543697042256        0.42082640892782        0.00657986968591
H            8.51364006159148       -1.76064556366332       -0.01928943792983
H            7.24075999772340       -3.86260082708547       -0.04450459765279
H            4.76113999109489       -3.82903086031184       -0.04373544156011

          :  Hamiltonian                  GFN2-xTB          :
         :: gradient norm              0.000026422153 Eh/a0 ::
         :: HOMO-LUMO gap              0.919568530417 eV    ::
         :: SCC energy               -92.756735643960 Eh    ::
         :: -> dispersion             -0.076374364944 Eh    ::
         :: -> Gsolv                  -0.038640129465 Eh    ::
         :: repulsion energy           1.617889441265 Eh    ::

    * Orbital Energies and Occupations

         #    Occupation            Energy/Eh            Energy/eV
      -------------------------------------------------------------
         1        2.0000           -0.7280621             -19.8116
       ...           ...                  ...                  ...
        72        2.0000           -0.4325574             -11.7705
        73        2.0000           -0.4276618             -11.6373
        74        2.0000           -0.4251098             -11.5678
        75        2.0000           -0.4236869             -11.5291
        76        2.0000           -0.4184975             -11.3879
        77        2.0000           -0.4151743             -11.2975
        78        2.0000           -0.4127086             -11.2304
        79        2.0000           -0.4079533             -11.1010
        80        2.0000           -0.3995475             -10.8722
        81        2.0000           -0.3972728             -10.8103
        82        2.0000           -0.3906641             -10.6305
        83        2.0000           -0.3579848              -9.7413
        84        2.0000           -0.3424661              -9.3190 (HOMO)
        85                         -0.3086726              -8.3994 (LUMO)
        86                         -0.2739891              -7.4556
        87                         -0.2627953              -7.1510
        88                         -0.2376571              -6.4670
        89                         -0.2318827              -6.3098
        90                         -0.2294240              -6.2429
        91                         -0.2235400              -6.0828
        92                         -0.2148832              -5.8473
        93                         -0.2106237              -5.7314
        94                         -0.2053983              -5.5892
        95                         -0.1956569              -5.3241
       ...                                ...                  ...
       163                          0.7069773              19.2378
      -------------------------------------------------------------
                  HL-Gap            0.0337935 Eh            0.9196 eV

     #   Z          covCN         q      C6AA      α(0)
     1   6 C        2.919    -0.043    29.061     8.840
     2   6 C        2.919    -0.039    28.978     8.827
     3   6 C        2.923    -0.062    29.537     8.912
     4   6 C        2.923     0.044    27.015     8.523
     5   6 C        2.880     0.121    25.337     8.252
     6   6 C        2.919    -0.059    29.459     8.900
     7   8 O        1.708    -0.276    18.579     5.820
     8   6 C        2.880     0.121    25.337     8.252
     9   6 C        2.919    -0.059    29.459     8.900
    10   6 C        2.919    -0.043    29.061     8.840
    11   6 C        2.919    -0.039    28.978     8.827
    12   6 C        2.923    -0.062    29.537     8.912
    13   6 C        2.923     0.044    27.015     8.523
    14   7 N        2.753    -0.080    22.798     7.091
    15   6 C        2.920     0.070    26.438     8.432
    16   6 C        2.918    -0.038    28.934     8.821
    17   6 C        2.924    -0.027    28.665     8.780
    18   6 C        2.987    -0.006    28.166     8.706
    19   6 C        2.976     0.009    27.824     8.652
    20   6 C        2.925    -0.044    29.082     8.844
    21   6 C        2.976     0.006    27.885     8.662
    22   6 C        2.922    -0.033    28.810     8.802
    23   6 C        2.918    -0.025    28.627     8.774
    24   6 C        2.917    -0.026    28.658     8.779
    25   6 C        2.923    -0.027    28.673     8.781
    26   6 C        2.987    -0.005    28.140     8.702
    27   6 C        2.959     0.085    26.101     8.380
    28   7 N        1.848    -0.258    27.575     7.783
    29   6 C        2.965     0.083    26.144     8.387
    30   6 C        2.916    -0.043    29.065     8.841
    31   6 C        2.916    -0.026    28.653     8.778
    32   6 C        2.916    -0.026    28.657     8.778
    33   6 C        2.916    -0.043    29.064     8.841
    34   6 C        2.965     0.083    26.155     8.389
    35   7 N        1.848    -0.258    27.573     7.782
    36   6 C        2.960     0.085    26.108     8.381
    37   1 H        0.926     0.040     2.445     2.445
    38   1 H        0.926     0.039     2.458     2.452
    39   1 H        0.926     0.034     2.531     2.488
    40   1 H        0.926     0.046     2.370     2.407
    41   1 H        0.926     0.046     2.370     2.407
    42   1 H        0.926     0.040     2.445     2.445
    43   1 H        0.926     0.039     2.458     2.452
    44   1 H        0.926     0.034     2.531     2.488
    45   1 H        0.926     0.051     2.312     2.378
    46   1 H        0.926     0.066     2.134     2.284
    47   1 H        0.926     0.053     2.283     2.363
    48   1 H        0.926     0.046     2.367     2.406
    49   1 H        0.926     0.046     2.371     2.408
    50   1 H        0.926     0.046     2.372     2.408
    51   1 H        0.926     0.058     2.225     2.333
    52   1 H        0.926     0.054     2.268     2.355
    53   1 H        0.926     0.051     2.302     2.373
    54   1 H        0.926     0.051     2.302     2.373
    55   1 H        0.926     0.054     2.269     2.356

molecular dipole:
                 x           y           z       tot (Debye)
 q only:        0.984       0.341       0.003
   full:        1.046       0.292       0.003       2.759

 projected vibrational frequencies (cm⁻¹)
eigval :       -0.00    -0.00     0.00     0.00     0.00     0.00
eigval :      -15.49     6.91    13.78    38.71    40.59    53.72
eigval :       77.53    86.47   105.83   106.53   135.61   144.89
eigval :      171.91   204.32   217.96   235.68   248.66   263.35
eigval :      276.08   282.85   312.49   333.20   355.80   377.23
eigval :      381.51   391.90   403.36   414.91   415.12   423.42
eigval :      436.17   436.32   445.65   464.20   507.58   511.93
eigval :      516.62   518.15   524.26   539.96   551.62   577.72
eigval :      579.77   585.66   607.58   615.51   622.61   655.93
eigval :      656.97   662.83   666.67   690.62   694.45   709.42
eigval :      734.18   762.22   764.96   768.85   776.99   777.92
eigval :      781.44   808.85   825.79   833.85   850.46   860.48
eigval :      861.63   862.88   863.32   876.52   877.57   893.80
eigval :      895.32   912.97   913.69   914.84   917.57   919.98
eigval :      924.00   925.68   928.75   929.98   979.56  1041.10
eigval :     1053.15  1062.24  1086.89  1087.83  1090.70  1104.58
eigval :     1118.13  1140.00  1142.19  1147.03  1168.82  1169.18
eigval :     1173.87  1177.16  1178.94  1193.03  1201.35  1217.88
eigval :     1229.71  1237.05  1240.69  1257.61  1258.57  1278.29
eigval :     1279.98  1305.63  1310.38  1314.69  1317.28  1337.29
eigval :     1339.79  1341.91  1354.94  1369.04  1399.37  1409.17
eigval :     1422.86  1427.50  1438.54  1443.02  1459.26  1477.82
eigval :     1484.41  1490.11  1503.02  1505.42  1533.82  1549.42
eigval :     1563.73  1564.91  1579.57  1580.30  1588.00  1593.63
eigval :     1603.49  1604.80  3078.56  3080.66  3085.45  3085.53
eigval :     3086.17  3089.31  3091.97  3093.06  3093.14  3095.24
eigval :     3099.58  3099.73  3099.99  3105.31  3106.27  3107.07
eigval :     3107.28  3109.71  3115.46

   temp. (K)  partition function   enthalpy   heat capacity  entropy
                                   cal/mol     cal/K/mol   cal/K/mol   J/K/mol
 298.15  VIB  0.316E+12            14981.980     99.080     91.762
         ROT  0.345E+08              888.752      2.981     37.473
         INT  0.109E+20            15870.733    102.061    129.235
         TR   0.959E+28             1481.254      4.968     44.257
         TOT                       17351.9864   107.0292   173.4914   725.8881

       T/K    H(0)-H(T)+PV         H(T)/Eh          T*S/Eh         G(T)/Eh
   ------------------------------------------------------------------------
    298.15    0.276522E-01    0.436895E+00    0.824314E-01    0.354463E+00
   ------------------------------------------------------------------------

         :::::::::::::::::::::::::::::::::::::::::::::::::::::
         ::                  THERMODYNAMIC                  ::
         :::::::::::::::::::::::::::::::::::::::::::::::::::::
         :: total free energy         -90.784383022667 Eh   ::
         ::.................................................::
         :: total energy              -91.138846199813 Eh   ::
         :: zero point energy           0.409242396920 Eh   ::
         :: G(RRHO) w/o ZPVE           -0.054779219775 Eh   ::
         :: G(RRHO) contrib.            0.354463177146 Eh   ::
         :::::::::::::::::::::::::::::::::::::::::::::::::::::

           -------------------------------------------------
          | TOTAL ENERGY              -91.138846199813 Eh   |
          | TOTAL ENTHALPY            -90.701951652390 Eh   |
          | TOTAL FREE ENERGY         -90.784383022667 Eh   |
          | GRADIENT NORM               0.000026427650 Eh/α |
          | HOMO-LUMO GAP               0.919568749135 eV   |
           -------------------------------------------------

 * finished run on 2025/07/17 at 21:33:26.126
