   * xtb version 6.7.1 (edcfbbe) compiled by 'albert@albert-system' on 2024-07-22

   ID    Z sym.   atoms
    1    6 C      1-6, 8-13, 15-27, 29-34, 36
    2    8 O      7
    3    7 N      14, 28, 35
    4    1 H      37-55

          program call               : xtb data2507/toluene/1PXZ-BP/1PXZ-BP_toluene_S0_crest.xyz --gfn 2 --gbsa toluene --ohess vtight --parallel 40 --molden --ceasefiles --namespace data2507/toluene/1PXZ-BP/1PXZ-BP_toluene_S0_finalOpt
      * Solvation model:               GBSA
        Solvent                        toluene
        Solvent mass                       9.2140E+01 g/mol
          :  Hamiltonian                  GFN2-xTB          :
 * total energy  :   -91.1395681 Eh     change       -0.2429204E-08 Eh
 * total energy  :   -91.1395961 Eh     change       -0.2797575E-04 Eh
 * total energy  :   -91.1396028 Eh     change       -0.6720228E-05 Eh
 * total energy  :   -91.1396042 Eh     change       -0.1359011E-05 Eh
 * total energy  :   -91.1396050 Eh     change       -0.8076377E-06 Eh
 * total energy  :   -91.1396050 Eh     change       -0.2457588E-07 Eh
 * total energy  :   -91.1396056 Eh     change       -0.5678260E-06 Eh
 * total energy  :   -91.1395606 Eh     change        0.4499614E-04 Eh
 * total energy  :   -91.1396003 Eh     change       -0.3972154E-04 Eh
 * total energy  :   -91.1396069 Eh     change       -0.6531531E-05 Eh
 * total energy  :   -91.1396071 Eh     change       -0.2740086E-06 Eh
 * total energy  :   -91.1396076 Eh     change       -0.5060702E-06 Eh
 * total energy  :   -91.1396082 Eh     change       -0.5503597E-06 Eh
 * total energy  :   -91.1396086 Eh     change       -0.4493617E-06 Eh
 * total energy  :   -91.1396089 Eh     change       -0.3081673E-06 Eh
 * total energy  :   -91.1396092 Eh     change       -0.2268615E-06 Eh
 * total energy  :   -91.1396093 Eh     change       -0.1345202E-06 Eh
 * total energy  :   -91.1396094 Eh     change       -0.6658924E-07 Eh
   *** GEOMETRY OPTIMIZATION CONVERGED AFTER 18 ITERATIONS ***

 final structure:
================
55
 xtb: 6.7.1 (edcfbbe)
C           -5.14352912491468        3.15909296875606       -2.03829059339256
C           -3.76446550364173        3.17144604469304       -2.09679430948357
C           -3.02304662109706        2.24682850068444       -1.37657988420706
C           -3.64927464908872        1.30020091760924       -0.57453724003746
C           -5.05022930636976        1.27408867935481       -0.55133565400086
C           -5.78551537377778        2.19920193801547       -1.26899975715578
O           -5.75898083217616        0.33313634918772        0.15929229414214
C           -5.03746268140470       -0.60144491234948        0.86543156987543
C           -5.76154074820083       -1.54268389465548        1.57363038608613
C           -5.10871190972270       -2.49828099526832        2.33902216717710
C           -3.72988274291965       -2.49063982473717        2.40231901493032
C           -2.99954388285649       -1.55058286949197        1.69076317187268
C           -3.63605644175916       -0.60652828564629        0.89357801509956
N           -2.93193166939465        0.35419266940386        0.16246909266814
C           -1.52014108970176        0.37949133511490        0.17740179017991
C           -0.84450017334747        1.48559103867915        0.70043345381509
C            0.52859432158393        1.49484359822360        0.70256982771832
C            1.25905547273538        0.41198620542656        0.20102884437900
C            0.59039502487378       -0.71611602733792       -0.31655509652272
C           -0.80689147337185       -0.69618587486133       -0.32447053582361
C            1.35502287304875       -1.84777470796966       -0.82469310765216
C            0.74543641092678       -3.00500971912370       -1.32411422969765
C            1.49105112219315       -4.06244722339672       -1.79937419151732
C            2.88023988608599       -4.00424082825350       -1.79344302354993
C            3.50712839556116       -2.88194345187499       -1.30305866855059
C            2.76362037115508       -1.80271785067248       -0.81591391951044
C            3.45418150503824       -0.64136009674453       -0.29717115863718
N            4.77407477885993       -0.62440203888959       -0.30428232057887
C            5.39554379208117        0.45979344561006        0.18518323048736
C            6.80577882959342        0.51926276950212        0.19560742360062
C            7.43488771587881        1.62428038589408        0.69437160790739
C            6.69458113868689        2.71032372025760        1.20090857131686
C            5.32906882725377        2.68612770082077        1.20602255488670
C            4.64535957253145        1.56018549589849        0.69798562648383
N            3.30388318692219        1.53344935013538        0.69919476277262
C            2.70320623078401        0.46094198191094        0.21529502045550
H           -5.72555511652511        3.87888543897656       -2.59198548003486
H           -3.25003521619816        3.89854451063699       -2.70630637725678
H           -1.94662049871819        2.25852760133049       -1.44326277773724
H           -6.86179603170377        2.14739416289015       -1.21647511766564
H           -6.83826032574923       -1.50563279807460        1.51765840887532
H           -5.68216371636958       -3.23005506932570        2.88588711930754
H           -3.20669963465117       -3.21399800333041        3.00884632261233
H           -1.92341012881771       -1.54724555673517        1.76320500657729
H           -1.40596681532255        2.31688597131335        1.09922025952226
H            1.07909147047575        2.33332403198886        1.09912098292798
H           -1.36612984848400       -1.52393527316612       -0.72951993031229
H           -0.32909154282766       -3.08832071636134       -1.34157225072714
H            0.99015681753121       -4.94121342056322       -2.17808326982060
H            3.46112738906832       -4.83330007404048       -2.16844532911579
H            4.58288173814121       -2.80392906336980       -1.27916917081162
H            7.35430297466138       -0.32321871735157       -0.19708535307718
H            8.51360746908130        1.67439637798252        0.70436188554551
H            7.22205764651198        3.56918314076843        1.58885623545625
H            4.74343658184744        3.50732705922581        1.59013001919775

          :  Hamiltonian                  GFN2-xTB          :
         :: gradient norm              0.000093069396 Eh/a0 ::
         :: HOMO-LUMO gap              1.041454744806 eV    ::
         :: SCC energy               -92.756688221899 Eh    ::
         :: -> dispersion             -0.076699587574 Eh    ::
         :: -> Gsolv                  -0.038257860955 Eh    ::
         :: repulsion energy           1.617078854635 Eh    ::

    * Orbital Energies and Occupations

         #    Occupation            Energy/Eh            Energy/eV
      -------------------------------------------------------------
         1        2.0000           -0.7306820             -19.8829
       ...           ...                  ...                  ...
        72        2.0000           -0.4313032             -11.7364
        73        2.0000           -0.4272897             -11.6271
        74        2.0000           -0.4237126             -11.5298
        75        2.0000           -0.4230799             -11.5126
        76        2.0000           -0.4169967             -11.3471
        77        2.0000           -0.4169150             -11.3448
        78        2.0000           -0.4141067             -11.2684
        79        2.0000           -0.4060904             -11.0503
        80        2.0000           -0.3986017             -10.8465
        81        2.0000           -0.3955855             -10.7644
        82        2.0000           -0.3911934             -10.6449
        83        2.0000           -0.3561397              -9.6911
        84        2.0000           -0.3449131              -9.3856 (HOMO)
        85                         -0.3066404              -8.3441 (LUMO)
        86                         -0.2719162              -7.3992
        87                         -0.2606105              -7.0916
        88                         -0.2396802              -6.5220
        89                         -0.2313511              -6.2954
        90                         -0.2307290              -6.2785
        91                         -0.2224184              -6.0523
        92                         -0.2167626              -5.8984
        93                         -0.2084411              -5.6720
        94                         -0.2037305              -5.5438
        95                         -0.1958726              -5.3300
       ...                                ...                  ...
       163                          0.7086067              19.2822
      -------------------------------------------------------------
                  HL-Gap            0.0382727 Eh            1.0415 eV

     #   Z          covCN         q      C6AA      α(0)
     1   6 C        2.919    -0.041    29.016     8.833
     2   6 C        2.919    -0.039    28.967     8.826
     3   6 C        2.924    -0.060    29.500     8.907
     4   6 C        2.921     0.042    27.048     8.529
     5   6 C        2.882     0.122    25.312     8.248
     6   6 C        2.919    -0.058    29.440     8.898
     7   8 O        1.708    -0.272    18.508     5.809
     8   6 C        2.882     0.122    25.310     8.248
     9   6 C        2.919    -0.058    29.439     8.897
    10   6 C        2.919    -0.041    29.018     8.834
    11   6 C        2.919    -0.039    28.969     8.826
    12   6 C        2.924    -0.061    29.512     8.909
    13   6 C        2.921     0.042    27.052     8.529
    14   7 N        2.751    -0.072    22.635     7.066
    15   6 C        2.919     0.067    26.489     8.440
    16   6 C        2.918    -0.040    29.005     8.832
    17   6 C        2.923    -0.028    28.691     8.784
    18   6 C        2.987    -0.009    28.240     8.717
    19   6 C        2.975     0.007    27.857     8.658
    20   6 C        2.925    -0.047    29.169     8.857
    21   6 C        2.976     0.005    27.897     8.664
    22   6 C        2.922    -0.033    28.825     8.804
    23   6 C        2.918    -0.026    28.640     8.776
    24   6 C        2.916    -0.027    28.674     8.781
    25   6 C        2.924    -0.027    28.683     8.783
    26   6 C        2.987    -0.006    28.154     8.704
    27   6 C        2.959     0.085    26.097     8.379
    28   7 N        1.848    -0.261    27.642     7.792
    29   6 C        2.965     0.083    26.157     8.389
    30   6 C        2.916    -0.043    29.079     8.843
    31   6 C        2.916    -0.027    28.678     8.782
    32   6 C        2.916    -0.027    28.674     8.781
    33   6 C        2.916    -0.044    29.085     8.844
    34   6 C        2.965     0.083    26.153     8.388
    35   7 N        1.848    -0.262    27.671     7.796
    36   6 C        2.959     0.085    26.106     8.381
    37   1 H        0.926     0.042     2.420     2.433
    38   1 H        0.926     0.041     2.432     2.439
    39   1 H        0.926     0.039     2.459     2.452
    40   1 H        0.926     0.048     2.347     2.396
    41   1 H        0.926     0.048     2.347     2.396
    42   1 H        0.926     0.042     2.420     2.433
    43   1 H        0.926     0.041     2.432     2.439
    44   1 H        0.926     0.039     2.460     2.453
    45   1 H        0.926     0.050     2.325     2.384
    46   1 H        0.926     0.063     2.165     2.301
    47   1 H        0.926     0.052     2.298     2.370
    48   1 H        0.926     0.046     2.374     2.409
    49   1 H        0.926     0.045     2.382     2.414
    50   1 H        0.926     0.045     2.387     2.416
    51   1 H        0.926     0.057     2.239     2.340
    52   1 H        0.926     0.053     2.285     2.364
    53   1 H        0.926     0.050     2.319     2.381
    54   1 H        0.926     0.050     2.319     2.381
    55   1 H        0.926     0.053     2.285     2.364

molecular dipole:
                 x           y           z       tot (Debye)
 q only:        0.484      -0.291      -0.131
   full:        0.556      -0.252      -0.111       1.575

 projected vibrational frequencies (cm⁻¹)
eigval :       -0.00    -0.00     0.00     0.00     0.00     0.00
eigval :        8.48    12.68    19.36    33.12    38.84    57.76
eigval :       79.07    95.31   105.89   117.11   137.87   147.37
eigval :      174.56   209.29   221.20   244.69   246.17   264.70
eigval :      278.72   282.57   313.91   335.58   356.61   378.40
eigval :      381.24   391.01   406.27   413.67   416.24   427.84
eigval :      436.72   440.09   445.95   463.08   507.79   514.73
eigval :      518.28   521.46   527.31   539.81   551.56   576.58
eigval :      580.56   585.34   606.78   615.75   620.78   656.69
eigval :      659.28   663.15   667.90   688.31   693.83   708.95
eigval :      733.91   761.92   762.59   767.93   776.39   776.48
eigval :      779.04   809.36   830.48   833.74   852.83   860.36
eigval :      862.54   865.22   868.75   873.73   880.02   895.40
eigval :      896.77   911.80   912.52   913.42   915.52   916.98
eigval :      924.18   924.65   925.58   926.74   979.41  1041.00
eigval :     1054.16  1062.47  1089.13  1089.30  1092.33  1105.65
eigval :     1119.04  1138.88  1142.33  1146.24  1167.44  1168.59
eigval :     1172.68  1177.82  1182.28  1197.49  1202.85  1218.29
eigval :     1229.77  1237.15  1242.13  1257.98  1259.28  1277.52
eigval :     1280.43  1303.78  1308.92  1314.49  1318.84  1331.47
eigval :     1337.81  1342.24  1350.93  1369.02  1398.94  1409.77
eigval :     1421.68  1427.57  1437.10  1442.75  1459.73  1477.67
eigval :     1479.70  1489.42  1499.60  1501.43  1532.24  1547.06
eigval :     1563.03  1565.61  1576.14  1578.76  1587.19  1592.84
eigval :     1601.59  1604.21  3079.53  3080.36  3086.04  3086.91
eigval :     3087.05  3089.56  3091.20  3095.20  3095.21  3095.26
eigval :     3099.60  3103.32  3103.95  3104.20  3106.85  3108.19
eigval :     3108.96  3109.10  3114.41

   temp. (K)  partition function   enthalpy   heat capacity  entropy
                                   cal/mol     cal/K/mol   cal/K/mol   J/K/mol
 298.15  VIB  0.196E+12            14917.303     98.980     90.757
         ROT  0.345E+08              888.752      2.981     37.472
         INT  0.677E+19            15806.056    101.961    128.230
         TR   0.959E+28             1481.254      4.968     44.257
         TOT                       17287.3096   106.9290   172.4861   721.6818

       T/K    H(0)-H(T)+PV         H(T)/Eh          T*S/Eh         G(T)/Eh
   ------------------------------------------------------------------------
    298.15    0.275491E-01    0.436920E+00    0.819537E-01    0.354967E+00
   ------------------------------------------------------------------------

         :::::::::::::::::::::::::::::::::::::::::::::::::::::
         ::                  THERMODYNAMIC                  ::
         :::::::::::::::::::::::::::::::::::::::::::::::::::::
         :: total free energy         -90.784642855406 Eh   ::
         ::.................................................::
         :: total energy              -91.139609365624 Eh   ::
         :: zero point energy           0.409371139667 Eh   ::
         :: G(RRHO) w/o ZPVE           -0.054404629449 Eh   ::
         :: G(RRHO) contrib.            0.354966510218 Eh   ::
         :::::::::::::::::::::::::::::::::::::::::::::::::::::

           -------------------------------------------------
          | TOTAL ENERGY              -91.139609365624 Eh   |
          | TOTAL ENTHALPY            -90.702689144471 Eh   |
          | TOTAL FREE ENERGY         -90.784642855406 Eh   |
          | GRADIENT NORM               0.000093081641 Eh/α |
          | HOMO-LUMO GAP               1.041453417635 eV   |
           -------------------------------------------------

 * finished run on 2025/07/17 at 21:35:25.636
