   * xtb version 6.7.1 (edcfbbe) compiled by 'albert@albert-system' on 2024-07-22

   ID    Z sym.   atoms
    1    8 O      1, 3
    2   16 S      2, 20
    3    6 C      4-12, 14-19, 21-29
    4    7 N      13
    5    1 H      30-44

          program call               : xtb data2507/toluene/PTZ-DBTO2/PTZ-DBTO2.xyz --gfn 2 --gbsa toluene --ohess vtight --parallel 40 --molden --ceasefiles --namespace data2507/toluene/PTZ-DBTO2/PTZ-DBTO2_toluene_S0_preOpt
      * Solvation model:               GBSA
        Solvent                        toluene
        Solvent mass                       9.2140E+01 g/mol
          :  Hamiltonian                  GFN2-xTB          :
 * total energy  :   -76.5977258 Eh     change       -0.2883667E-09 Eh
 * total energy  :   -76.6086388 Eh     change       -0.1091297E-01 Eh
 * total energy  :   -76.6129429 Eh     change       -0.4304100E-02 Eh
 * total energy  :   -76.6140389 Eh     change       -0.1095974E-02 Eh
 * total energy  :   -76.6146946 Eh     change       -0.6557023E-03 Eh
 * total energy  :   -76.6148390 Eh     change       -0.1444130E-03 Eh
 * total energy  :   -76.6148713 Eh     change       -0.3234607E-04 Eh
 * total energy  :   -76.6148821 Eh     change       -0.1080343E-04 Eh
 * total energy  :   -76.6148859 Eh     change       -0.3741522E-05 Eh
 * total energy  :   -76.6148893 Eh     change       -0.3406772E-05 Eh
 * total energy  :   -76.6149407 Eh     change       -0.6620055E-06 Eh
 * total energy  :   -76.6149413 Eh     change       -0.5211842E-06 Eh
 * total energy  :   -76.6149417 Eh     change       -0.4435907E-06 Eh
 * total energy  :   -76.6149421 Eh     change       -0.3807410E-06 Eh
 * total energy  :   -76.6149424 Eh     change       -0.3394218E-06 Eh
 * total energy  :   -76.6149428 Eh     change       -0.3401683E-06 Eh
 * total energy  :   -76.6149431 Eh     change       -0.3372965E-06 Eh
 * total energy  :   -76.6149435 Eh     change       -0.3627520E-06 Eh
 * total energy  :   -76.6149435 Eh     change       -0.3462119E-08 Eh
   *** GEOMETRY OPTIMIZATION CONVERGED AFTER 44 ITERATIONS ***

 final structure:
================
44
 xtb: 6.7.1 (edcfbbe)
O            4.29715343429758       -1.22479703587118       -2.61780616607080
S            3.89869109611153        0.00180061366133       -1.96443821356696
O            4.29644306084432        1.22975958228522       -2.61568020328220
C            4.35045999490571        0.00034486784241       -0.22938672908194
C            5.60989470683239        0.00012233847980        0.32094687376841
C            5.72163244220881       -0.00126773586538        1.70698940907240
C            4.58339297162088       -0.00239159321378        2.49902565000466
C            3.31763921896840       -0.00212234142975        1.93290053400789
C            3.19360249442093       -0.00072474336352        0.54798915418107
C            1.95194057978632       -0.00016813837121       -0.22694194484754
C            0.65544748881452       -0.00058654748793        0.27397048687868
C           -0.41413104419049        0.00029920353901       -0.61463952895931
N           -1.74233601996527        0.00013032459940       -0.09621844577591
C           -2.37113513577208        1.23620650559323        0.05272501296728
C           -1.70105787043333        2.40408737525588       -0.31780394620881
C           -2.28850648286955        3.65016109758697       -0.18492558423368
C           -3.57135580617456        3.76795219924800        0.31573940138168
C           -4.25091755656598        2.62264385530450        0.69209318757493
C           -3.66008127059908        1.37487041076024        0.57411720713433
S           -4.61527625622592       -0.00017395427122        1.15806368196946
C           -3.65941826577059       -1.37512376995130        0.57497766649005
C           -4.24964799165827       -2.62311205353238        0.69370432756122
C           -3.56962891598150       -3.76828759603176        0.31777426609143
C           -2.28701190910455       -3.65013718658676       -0.18340466720844
C           -1.70017926356369       -2.40385661715873       -0.31705267215924
C           -2.37061958549443       -1.23613297382804        0.05331682817658
C           -0.20362602099236        0.00149209521728       -1.99179478379198
C            1.08946224493990        0.00190101199571       -2.49642257352756
C            2.13922073511485        0.00109898517132       -1.60780654224388
H            6.47960923055571        0.00098140895273       -0.31715648031076
H            6.69884058583764       -0.00146894717339        2.16410847984674
H            4.68340670593467       -0.00348131037732        3.57375083112124
H            2.44227006431218       -0.00299752714391        2.56230300358663
H            0.46366287977024       -0.00151881434748        1.33518065834112
H           -0.70021501358525        2.33853925673082       -0.71424671327849
H           -1.73279385998602        4.52768569346376       -0.47859730154551
H           -4.04044620793147        4.73369725357026        0.41907568897083
H           -5.25088092959335        2.68187646075924        1.09532023367232
H           -5.24951001362587       -2.68260565565511        1.09714356725772
H           -4.03823290721814       -4.73420224876483        0.42173596670249
H           -1.73102840778867       -4.52754037666232       -0.47692565935101
H           -0.69955906155550       -2.33799745590809       -0.71401436197997
H           -1.05183092708743        0.00217120612678       -2.65922097962830
H            1.27665778845641        0.00287287685139       -3.55847061970678

          :  Hamiltonian                  GFN2-xTB          :
         :: gradient norm              0.000038488819 Eh/a0 ::
         :: HOMO-LUMO gap              1.381169526630 eV    ::
         :: SCC energy               -77.854225466433 Eh    ::
         :: -> dispersion             -0.064508058512 Eh    ::
         :: -> Gsolv                  -0.040256605666 Eh    ::
         :: repulsion energy           1.239281995542 Eh    ::

    * Orbital Energies and Occupations

         #    Occupation            Energy/Eh            Energy/eV
      -------------------------------------------------------------
         1        2.0000           -0.7843928             -21.3444
       ...           ...                  ...                  ...
        58        2.0000           -0.4470088             -12.1637
        59        2.0000           -0.4433492             -12.0641
        60        2.0000           -0.4381441             -11.9225
        61        2.0000           -0.4374470             -11.9035
        62        2.0000           -0.4364602             -11.8767
        63        2.0000           -0.4284003             -11.6574
        64        2.0000           -0.4264415             -11.6041
        65        2.0000           -0.4189706             -11.4008
        66        2.0000           -0.4181521             -11.3785
        67        2.0000           -0.4161194             -11.3232
        68        2.0000           -0.4149276             -11.2908
        69        2.0000           -0.3850172             -10.4769
        70        2.0000           -0.3441019              -9.3635 (HOMO)
        71                         -0.2933449              -7.9823 (LUMO)
        72                         -0.2694671              -7.3326
        73                         -0.2573469              -7.0028
        74                         -0.2455938              -6.6829
        75                         -0.2345219              -6.3817
        76                         -0.2288427              -6.2271
        77                         -0.2259336              -6.1480
        78                         -0.2040787              -5.5533
        79                         -0.2012764              -5.4770
        80                         -0.1548453              -4.2136
        81                         -0.1487746              -4.0484
       ...                                ...                  ...
       141                          1.1773177              32.0364
      -------------------------------------------------------------
                  HL-Gap            0.0507570 Eh            1.3812 eV

     #   Z          covCN         q      C6AA      α(0)
     1   8 O        0.860    -0.570    25.400     6.757
     2  16 S        3.942     0.963   107.729    17.469
     3   8 O        0.860    -0.570    25.400     6.757
     4   6 C        2.990    -0.075    29.870     8.965
     5   6 C        2.926    -0.016    28.403     8.740
     6   6 C        2.924    -0.019    28.480     8.752
     7   6 C        2.919    -0.020    28.502     8.755
     8   6 C        2.919    -0.021    28.542     8.761
     9   6 C        3.115     0.006    27.727     8.625
    10   6 C        3.114     0.010    27.643     8.612
    11   6 C        2.922    -0.035    28.874     8.812
    12   6 C        2.931     0.077    26.279     8.407
    13   7 N        2.750    -0.071    22.611     7.062
    14   6 C        2.940     0.058    26.705     8.475
    15   6 C        2.928    -0.060    29.490     8.906
    16   6 C        2.919    -0.034    28.838     8.806
    17   6 C        2.918    -0.039    28.976     8.827
    18   6 C        2.988    -0.040    28.996     8.833
    19   6 C        2.970     0.034    27.231     8.560
    20  16 S        2.133    -0.166   148.089    20.482
    21   6 C        2.970     0.034    27.231     8.560
    22   6 C        2.988    -0.040    28.996     8.833
    23   6 C        2.918    -0.039    28.976     8.827
    24   6 C        2.919    -0.034    28.838     8.806
    25   6 C        2.928    -0.060    29.490     8.906
    26   6 C        2.940     0.058    26.705     8.475
    27   6 C        2.925    -0.032    28.797     8.800
    28   6 C        2.925    -0.015    28.387     8.737
    29   6 C        2.990    -0.079    29.957     8.978
    30   1 H        0.926     0.055     2.255     2.348
    31   1 H        0.926     0.070     2.088     2.260
    32   1 H        0.926     0.072     2.064     2.247
    33   1 H        0.926     0.073     2.055     2.242
    34   1 H        0.926     0.078     2.002     2.213
    35   1 H        0.926     0.034     2.524     2.485
    36   1 H        0.926     0.040     2.449     2.447
    37   1 H        0.926     0.040     2.443     2.444
    38   1 H        0.926     0.043     2.412     2.428
    39   1 H        0.926     0.043     2.412     2.428
    40   1 H        0.926     0.040     2.443     2.444
    41   1 H        0.926     0.040     2.449     2.447
    42   1 H        0.926     0.034     2.524     2.485
    43   1 H        0.926     0.071     2.069     2.249
    44   1 H        0.926     0.063     2.166     2.302

molecular dipole:
                 x           y           z       tot (Debye)
 q only:       -0.494      -0.003       2.440
   full:       -0.208      -0.003       2.064       5.272

 projected vibrational frequencies (cm⁻¹)
eigval :       -0.00    -0.00    -0.00     0.00     0.00     0.00
eigval :      -10.31    10.22    24.76    30.82    65.83    87.38
eigval :       95.66   106.09   118.85   140.83   165.07   173.28
eigval :      223.66   226.45   233.55   239.57   271.77   285.93
eigval :      323.72   357.71   360.25   381.92   385.73   396.53
eigval :      403.51   410.19   425.72   426.22   445.62   468.19
eigval :      491.88   495.75   504.66   505.76   515.02   535.86
eigval :      568.59   595.37   617.53   634.81   647.06   647.38
eigval :      672.23   674.45   687.27   700.26   704.54   722.07
eigval :      771.40   772.99   777.57   783.84   824.32   862.16
eigval :      862.47   872.93   879.12   903.75   904.17   908.11
eigval :      913.06   915.46   916.91   917.26   927.64   935.75
eigval :     1000.94  1019.83  1040.57  1049.48  1071.16  1094.16
eigval :     1098.64  1103.88  1104.83  1145.57  1148.01  1151.30
eigval :     1156.36  1170.53  1179.09  1179.34  1189.50  1194.36
eigval :     1214.10  1223.66  1246.45  1253.21  1259.57  1295.41
eigval :     1305.67  1310.46  1315.85  1330.75  1341.96  1395.18
eigval :     1405.99  1411.55  1418.89  1443.30  1452.77  1461.52
eigval :     1476.85  1555.26  1560.95  1566.06  1568.66  1573.51
eigval :     1577.51  1591.10  1594.47  3085.05  3085.22  3087.54
eigval :     3087.93  3091.89  3097.22  3097.46  3100.93  3100.98
eigval :     3103.68  3106.81  3106.98  3108.31  3108.96  3110.76

   temp. (K)  partition function   enthalpy   heat capacity  entropy
                                   cal/mol     cal/K/mol   cal/K/mol   J/K/mol
 298.15  VIB  0.809E+10            12916.948     83.429     79.193
         ROT  0.201E+08              888.752      2.981     36.403
         INT  0.163E+18            13805.701     86.410    115.596
         TR   0.814E+28             1481.254      4.968     43.929
         TOT                       15286.9546    91.3777   159.5252   667.4533

       T/K    H(0)-H(T)+PV         H(T)/Eh          T*S/Eh         G(T)/Eh
   ------------------------------------------------------------------------
    298.15    0.243613E-01    0.340099E+00    0.757956E-01    0.264303E+00
   ------------------------------------------------------------------------

         :::::::::::::::::::::::::::::::::::::::::::::::::::::
         ::                  THERMODYNAMIC                  ::
         :::::::::::::::::::::::::::::::::::::::::::::::::::::
         :: total free energy         -76.350640306661 Eh   ::
         ::.................................................::
         :: total energy              -76.614943469916 Eh   ::
         :: zero point energy           0.315737401249 Eh   ::
         :: G(RRHO) w/o ZPVE           -0.051434237995 Eh   ::
         :: G(RRHO) contrib.            0.264303163254 Eh   ::
         :::::::::::::::::::::::::::::::::::::::::::::::::::::

           -------------------------------------------------
          | TOTAL ENERGY              -76.614943469916 Eh   |
          | TOTAL ENTHALPY            -76.274844755778 Eh   |
          | TOTAL FREE ENERGY         -76.350640306661 Eh   |
          | GRADIENT NORM               0.000038485872 Eh/α |
          | HOMO-LUMO GAP               1.381169561531 eV   |
           -------------------------------------------------

 * finished run on 2025/07/17 at 21:41:32.496
