   * xtb version 6.7.1 (edcfbbe) compiled by 'albert@albert-system' on 2024-07-22

   ID    Z sym.   atoms
    1    8 O      1, 3
    2   16 S      2, 20
    3    6 C      4-12, 14-19, 21-29
    4    7 N      13
    5    1 H      30-44

          program call               : xtb data2507/toluene/PTZ-DBTO2/PTZ-DBTO2_toluene_T1_crest.xyz --gfn 2 --uhf 2 --gbsa toluene --ohess vtight --parallel 40 --molden --ceasefiles --namespace data2507/toluene/PTZ-DBTO2/PTZ-DBTO2_toluene_T1_finalOpt
      * Solvation model:               GBSA
        Solvent                        toluene
        Solvent mass                       9.2140E+01 g/mol
          :  Hamiltonian                  GFN2-xTB          :
 * total energy  :   -76.5346499 Eh     change       -0.1442092E-07 Eh
 * total energy  :   -76.5348947 Eh     change       -0.2448720E-03 Eh
 * total energy  :   -76.5350481 Eh     change       -0.1533964E-03 Eh
 * total energy  :   -76.5350611 Eh     change       -0.1292383E-04 Eh
 * total energy  :   -76.5350717 Eh     change       -0.1065605E-04 Eh
 * total energy  :   -76.5350751 Eh     change       -0.3346691E-05 Eh
 * total energy  :   -76.5350770 Eh     change       -0.1920308E-05 Eh
 * total energy  :   -76.5350784 Eh     change       -0.1443512E-05 Eh
 * total energy  :   -76.5350801 Eh     change       -0.1721858E-05 Eh
 * total energy  :   -76.5350819 Eh     change       -0.1743535E-05 Eh
 * total energy  :   -76.5350827 Eh     change       -0.8360067E-06 Eh
 * total energy  :   -76.5350829 Eh     change       -0.1774127E-06 Eh
 * total energy  :   -76.5350830 Eh     change       -0.7066841E-07 Eh
   *** GEOMETRY OPTIMIZATION CONVERGED AFTER 13 ITERATIONS ***

 final structure:
================
44
 xtb: 6.7.1 (edcfbbe)
O            4.48304417198534       -1.35179720413509       -1.75574353901464
S            3.98561365827746       -0.08496560540531       -1.23963529393533
O            4.48668276216844        1.09086680341147       -1.93602276453255
C            4.19336233510384        0.04452541129731        0.52253359877054
C            5.36391061603553        0.09643478506913        1.23677139009221
C            5.29831309323245        0.19836822096234        2.62084279676084
C            4.05396695687107        0.24629033369716        3.25427685381918
C            2.88067503280363        0.19417976105069        2.53610423598035
C            2.92314725033801        0.09082088053605        1.13592656486736
C            1.82682388532486        0.02348305369762        0.22013270383709
C            0.45386874014816        0.04394673810454        0.51059094624448
C           -0.45608270608681       -0.03222270229399       -0.52086107358388
N           -1.85919814581129       -0.01308162737175       -0.22327338265909
C           -2.46886706647436        1.21324528244156       -0.15537419513380
C           -1.72968667830903        2.38545518903148       -0.40401315572409
C           -2.30675793527270        3.62767984791185       -0.33392011911421
C           -3.66679946954609        3.76762773401516       -0.00299589146742
C           -4.41731355259156        2.64685916675627        0.24399899355122
C           -3.84827226320500        1.37171741626385        0.16986846408575
S           -4.89602676149695        0.02989627371744        0.50122749665828
C           -3.85999228004772       -1.34363089762011        0.28138440331523
C           -4.44071462360663       -2.60341374284746        0.45803410176124
C           -3.69592682704296       -3.74675961798945        0.32206671866390
C           -2.32871718842755       -3.64558676309900        0.00746600406505
C           -1.74109406762538       -2.41840877414229       -0.16562304207003
C           -2.47652204517663       -1.22412539369753       -0.04262761997786
C           -0.05969074047889       -0.13034160973132       -1.86736458846155
C            1.29807761963880       -0.15093592010071       -2.16501254569547
C            2.20801013910857       -0.07599017364700       -1.14384175431370
H            6.31068413655408        0.05739398858922        0.71795222972248
H            6.20535531883338        0.24022743908222        3.20309193285069
H            4.01716192110791        0.32576600652075        4.33108770672563
H            1.93026325582621        0.23246931178046        3.04564319302255
H            0.11117540560975        0.11862191049532        1.53079214818702
H           -0.68606540073436        2.29640062967054       -0.65861458565468
H           -1.71032420230321        4.50329937887790       -0.53436257775052
H           -4.11230090531274        4.74746838425288        0.05342223582649
H           -5.46346672856697        2.72373022327272        0.49796533684167
H           -5.49073380508987       -2.65019705116514        0.70317281959342
H           -4.15047782937596       -4.71485254951060        0.45595248513759
H           -1.73483449347245       -4.53925345756627       -0.09855525475860
H           -0.69188711242887       -2.35956506115150       -0.40527011672272
H           -0.80190753903790       -0.18843122471912       -2.64604722282112
H            1.64066569025439       -0.22481969351238       -3.18594256678914

          :  Hamiltonian                  GFN2-xTB          :
         :: gradient norm              0.000054300683 Eh/a0 ::
         :: HOMO-LUMO gap              0.050598236789 eV    ::
         :: SCC energy               -77.758028416810 Eh    ::
         :: -> dispersion             -0.064757211562 Eh    ::
         :: -> Gsolv                  -0.050166362078 Eh    ::
         :: repulsion energy           1.222945443389 Eh    ::

    * Orbital Energies and Occupations

         #    Occupation            Energy/Eh            Energy/eV
      -------------------------------------------------------------
         1        2.0000           -0.7606200             -20.6975
       ...           ...                  ...                  ...
        59        2.0000           -0.4362802             -11.8718
        60        2.0000           -0.4345661             -11.8251
        61        2.0000           -0.4329036             -11.7799
        62        2.0000           -0.4308289             -11.7235
        63        2.0000           -0.4294433             -11.6857
        64        2.0000           -0.4259669             -11.5912
        65        2.0000           -0.4216978             -11.4750
        66        2.0000           -0.4110712             -11.1858
        67        2.0000           -0.4093464             -11.1389
        68        2.0000           -0.3929314             -10.6922
        69        2.0000           -0.3873908             -10.5414
        70        1.0000           -0.3656529              -9.9499
        71        0.7268           -0.2740200              -7.4565 (HOMO)
        72        0.2732           -0.2721607              -7.4059 (LUMO)
        73                         -0.2498510              -6.7988
        74                         -0.2470690              -6.7231
        75                         -0.2464160              -6.7053
        76                         -0.2313130              -6.2943
        77                         -0.2228236              -6.0633
        78                         -0.2208021              -6.0083
        79                         -0.2004722              -5.4551
        80                         -0.1595974              -4.3429
        81                         -0.1356665              -3.6917
        82                         -0.1339074              -3.6438
       ...                                ...                  ...
       141                          1.1609175              31.5902
      -------------------------------------------------------------
                  HL-Gap            0.0018593 Eh            0.0506 eV

     #   Z          covCN         q      C6AA      α(0)
     1   8 O        0.860    -0.595    25.990     6.835
     2  16 S        3.951     0.910   109.260    17.593
     3   8 O        0.860    -0.595    25.988     6.835
     4   6 C        2.991    -0.090    30.260     9.024
     5   6 C        2.925    -0.023    28.586     8.768
     6   6 C        2.922    -0.044    29.102     8.847
     7   6 C        2.916    -0.033    28.816     8.803
     8   6 C        2.916    -0.037    28.926     8.819
     9   6 C        3.113    -0.016    28.250     8.707
    10   6 C        3.115    -0.019    28.307     8.715
    11   6 C        2.916    -0.045    29.109     8.847
    12   6 C        2.936     0.045    26.989     8.520
    13   7 N        2.751     0.018    20.945     6.797
    14   6 C        2.946     0.051    26.859     8.500
    15   6 C        2.919    -0.042    29.055     8.839
    16   6 C        2.915    -0.027    28.679     8.782
    17   6 C        2.915    -0.027    28.676     8.781
    18   6 C        2.990    -0.034    28.840     8.809
    19   6 C        2.964     0.018    27.609     8.619
    20  16 S        2.163     0.062   138.560    19.812
    21   6 C        2.964     0.018    27.608     8.619
    22   6 C        2.990    -0.034    28.840     8.809
    23   6 C        2.915    -0.027    28.674     8.781
    24   6 C        2.915    -0.027    28.680     8.782
    25   6 C        2.919    -0.043    29.057     8.840
    26   6 C        2.946     0.051    26.856     8.500
    27   6 C        2.920    -0.062    29.546     8.914
    28   6 C        2.925    -0.020    28.512     8.757
    29   6 C        2.986    -0.094    30.363     9.039
    30   1 H        0.926     0.026     2.641     2.542
    31   1 H        0.926     0.039     2.460     2.452
    32   1 H        0.926     0.045     2.389     2.417
    33   1 H        0.926     0.047     2.362     2.403
    34   1 H        0.926     0.056     2.251     2.346
    35   1 H        0.926     0.055     2.260     2.351
    36   1 H        0.926     0.055     2.264     2.353
    37   1 H        0.926     0.059     2.213     2.326
    38   1 H        0.926     0.063     2.162     2.299
    39   1 H        0.926     0.063     2.162     2.299
    40   1 H        0.926     0.059     2.213     2.326
    41   1 H        0.926     0.054     2.264     2.353
    42   1 H        0.926     0.055     2.258     2.350
    43   1 H        0.926     0.049     2.328     2.386
    44   1 H        0.926     0.038     2.471     2.458

molecular dipole:
                 x           y           z       tot (Debye)
 q only:       -7.035       0.165       2.311
   full:       -6.529       0.146       2.046      17.394

 projected vibrational frequencies (cm⁻¹)
eigval :       -0.00    -0.00     0.00     0.00     0.00     0.00
eigval :       17.79    22.74    27.82    47.95    68.95    87.44
eigval :       96.07   108.87   113.45   141.56   160.27   162.11
eigval :      213.74   222.80   237.61   240.80   275.28   291.45
eigval :      339.59   357.93   359.46   370.81   374.28   387.75
eigval :      394.96   400.91   416.25   420.51   432.08   441.88
eigval :      466.76   491.01   492.41   507.23   527.74   537.39
eigval :      558.64   589.17   597.03   628.83   630.82   634.36
eigval :      644.92   669.34   674.37   687.84   714.92   720.89
eigval :      752.46   755.29   756.41   766.67   781.83   834.32
eigval :      851.95   855.62   858.29   889.18   896.02   898.60
eigval :      899.16   901.26   903.25   903.47   907.67   925.41
eigval :      990.47  1005.96  1035.15  1039.76  1060.77  1061.93
eigval :     1069.75  1071.40  1077.40  1141.00  1145.20  1145.40
eigval :     1153.21  1155.20  1163.81  1167.52  1173.84  1185.59
eigval :     1206.78  1216.93  1226.70  1230.84  1271.64  1290.50
eigval :     1315.99  1330.40  1333.14  1344.36  1348.71  1357.89
eigval :     1372.96  1383.55  1397.18  1413.12  1414.58  1430.98
eigval :     1439.38  1459.06  1461.24  1488.71  1491.85  1512.30
eigval :     1516.93  1561.37  1577.32  3074.97  3075.65  3087.74
eigval :     3089.42  3093.33  3094.05  3096.58  3098.93  3101.84
eigval :     3101.97  3111.09  3111.29  3111.51  3119.22  3119.87

   temp. (K)  partition function   enthalpy   heat capacity  entropy
                                   cal/mol     cal/K/mol   cal/K/mol   J/K/mol
 298.15  VIB  0.158E+10            13052.936     85.284     78.881
         ROT  0.200E+08              888.752      2.981     36.390
         INT  0.317E+17            13941.688     88.265    115.271
         TR   0.814E+28             1481.254      4.968     43.929
         TOT                       15422.9419    93.2328   159.2005   666.0948

       T/K    H(0)-H(T)+PV         H(T)/Eh          T*S/Eh         G(T)/Eh
   ------------------------------------------------------------------------
    298.15    0.245780E-01    0.336844E+00    0.756413E-01    0.261203E+00
   ------------------------------------------------------------------------

         :::::::::::::::::::::::::::::::::::::::::::::::::::::
         ::                  THERMODYNAMIC                  ::
         :::::::::::::::::::::::::::::::::::::::::::::::::::::
         :: total free energy         -76.273880460732 Eh   ::
         ::.................................................::
         :: total energy              -76.535082975550 Eh   ::
         :: zero point energy           0.312265775331 Eh   ::
         :: G(RRHO) w/o ZPVE           -0.051063260514 Eh   ::
         :: G(RRHO) contrib.            0.261202514817 Eh   ::
         :::::::::::::::::::::::::::::::::::::::::::::::::::::

           -------------------------------------------------
          | TOTAL ENERGY              -76.535082975550 Eh   |
          | TOTAL ENTHALPY            -76.198239177842 Eh   |
          | TOTAL FREE ENERGY         -76.273880460732 Eh   |
          | GRADIENT NORM               0.000054195315 Eh/α |
          | HOMO-LUMO GAP               0.050593326999 eV   |
           -------------------------------------------------

 * finished run on 2025/07/17 at 21:44:04.838
