   * xtb version 6.7.1 (edcfbbe) compiled by 'albert@albert-system' on 2024-07-22

   ID    Z sym.   atoms
    1    8 O      1, 3
    2   16 S      2, 20
    3    6 C      4-12, 14-19, 21-29
    4    7 N      13
    5    1 H      30-44

          program call               : xtb data2507/toluene/PTZ-DBTO2/PTZ-DBTO2_toluene_S0_crest.xyz --gfn 2 --gbsa toluene --ohess vtight --parallel 40 --molden --ceasefiles --namespace data2507/toluene/PTZ-DBTO2/PTZ-DBTO2_toluene_S0_finalOpt
      * Solvation model:               GBSA
        Solvent                        toluene
        Solvent mass                       9.2140E+01 g/mol
          :  Hamiltonian                  GFN2-xTB          :
 * total energy  :   -76.6178072 Eh     change       -0.6518519E-10 Eh
 * total energy  :   -76.6178933 Eh     change       -0.8606296E-04 Eh
 * total energy  :   -76.6179410 Eh     change       -0.4776180E-04 Eh
 * total energy  :   -76.6179488 Eh     change       -0.7735710E-05 Eh
 * total energy  :   -76.6179540 Eh     change       -0.5215652E-05 Eh
 * total energy  :   -76.6179540 Eh     change       -0.6975398E-07 Eh
 * total energy  :   -76.6179565 Eh     change       -0.2441176E-05 Eh
 * total energy  :   -76.6179579 Eh     change       -0.1389232E-05 Eh
 * total energy  :   -76.6179591 Eh     change       -0.1220151E-05 Eh
 * total energy  :   -76.6179601 Eh     change       -0.1043954E-05 Eh
 * total energy  :   -76.6179606 Eh     change       -0.4408345E-06 Eh
 * total energy  :   -76.6179608 Eh     change       -0.1773563E-06 Eh
 * total energy  :   -76.6179609 Eh     change       -0.1706734E-06 Eh
 * total energy  :   -76.6179612 Eh     change       -0.2563918E-06 Eh
 * total energy  :   -76.6179614 Eh     change       -0.2561351E-06 Eh
 * total energy  :   -76.6179616 Eh     change       -0.2022047E-06 Eh
 * total energy  :   -76.6179618 Eh     change       -0.1199632E-06 Eh
 * total energy  :   -76.6179618 Eh     change       -0.7785374E-07 Eh
   *** GEOMETRY OPTIMIZATION CONVERGED AFTER 18 ITERATIONS ***

 final structure:
================
44
 xtb: 6.7.1 (edcfbbe)
O            4.48581594523262       -2.18473455649359        1.01447728266264
S            3.92436509584946       -1.53767718878001       -0.15457787121942
O            4.29483096564495       -2.11702595687805       -1.42997538967884
C            4.23471381253467        0.22934472938084       -0.12883855351777
C            5.44203966139542        0.88254271919304       -0.20036403667574
C            5.44216305987725        2.27211660870969       -0.16032991316037
C            4.24637587246778        2.96589105167567       -0.05158555057571
C            3.03461560786741        2.29620398268188        0.02137645010488
C            3.02179494393159        0.90634596015805       -0.01789086873836
C            1.85278343744195        0.02733978350943        0.05268896562272
C            0.53393470758866        0.42670087953373        0.17122222279097
C           -0.49106447833114       -0.53033920539968        0.24498906214084
N           -1.80381799608330       -0.13795851728100        0.37080997122480
C           -2.19811022206073        1.21974245921188        0.40784910283951
C           -1.72131378767565        2.08936513585902        1.38356204037921
C           -2.11474625655902        3.41568205495852        1.38576732048506
C           -3.00735122476626        3.88171999400550        0.43254023920193
C           -3.53221207708313        3.01329069828114       -0.50703628069018
C           -3.13381867444332        1.68502619609477       -0.51355586325335
S           -3.83686083169830        0.54763069470270       -1.68234762517623
C           -3.90927412983417       -0.85188596561709       -0.59180860630079
C           -4.98442720079508       -1.72520607959566       -0.65354038468487
C           -5.05427225635318       -2.78968252548043        0.22641711642937
C           -4.07095635782327       -2.95852410404763        1.18897151553935
C           -3.00049466329506       -2.08458639288508        1.25440696285848
C           -2.88895411179697       -1.04416251385847        0.33767587552002
C           -0.15131308677974       -1.88818737681409        0.12539815512344
C            1.16723348701844       -2.28621893730805        0.00344080339506
C            2.15860847580418       -1.33161448605266       -0.01176033030363
H            6.35773522281565        0.31795974503708       -0.28460815970925
H            6.37670159977327        2.80863895669151       -0.21515101003982
H            4.25863519028986        4.04503610794932       -0.02234410098617
H            2.11369804729593        2.85084675482125        0.10674296648700
H            0.29381498002973        1.47618439173159        0.18511093836239
H           -1.03808921115684        1.71660149023396        2.13182089454669
H           -1.72681300388148        4.08498448070118        2.13820432991626
H           -3.30956607557460        4.91752122897679        0.43110387417827
H           -4.24755008116364        3.35260922167448       -1.24016291655394
H           -5.75381824629119       -1.56369278309803       -1.39273787952461
H           -5.88516185970714       -3.47586376345616        0.17175550090941
H           -4.13844367642507       -3.77115780399756        1.89590602203933
H           -2.24108166706391       -2.20481466755596        2.01206684546328
H           -0.92509920060010       -2.63764791565321        0.10554323160286
H            1.42114308838349       -3.33124527432048       -0.08293622003482

          :  Hamiltonian                  GFN2-xTB          :
         :: gradient norm              0.000098562615 Eh/a0 ::
         :: HOMO-LUMO gap              2.247508852556 eV    ::
         :: SCC energy               -77.857329858619 Eh    ::
         :: -> dispersion             -0.064884946128 Eh    ::
         :: -> Gsolv                  -0.042392705158 Eh    ::
         :: repulsion energy           1.239368024621 Eh    ::

    * Orbital Energies and Occupations

         #    Occupation            Energy/Eh            Energy/eV
      -------------------------------------------------------------
         1        2.0000           -0.7741603             -21.0660
       ...           ...                  ...                  ...
        58        2.0000           -0.4420550             -12.0289
        59        2.0000           -0.4416596             -12.0182
        60        2.0000           -0.4402248             -11.9791
        61        2.0000           -0.4386583             -11.9365
        62        2.0000           -0.4301951             -11.7062
        63        2.0000           -0.4297817             -11.6950
        64        2.0000           -0.4263583             -11.6018
        65        2.0000           -0.4221493             -11.4873
        66        2.0000           -0.4175565             -11.3623
        67        2.0000           -0.4083865             -11.1128
        68        2.0000           -0.4065145             -11.0618
        69        2.0000           -0.3854102             -10.4875
        70        2.0000           -0.3620316              -9.8514 (HOMO)
        71                         -0.2794373              -7.6039 (LUMO)
        72                         -0.2559922              -6.9659
        73                         -0.2499915              -6.8026
        74                         -0.2475340              -6.7357
        75                         -0.2436104              -6.6290
        76                         -0.2399021              -6.5281
        77                         -0.2313461              -6.2952
        78                         -0.2093270              -5.6961
        79                         -0.2065744              -5.6212
        80                         -0.1424419              -3.8760
        81                         -0.1386799              -3.7737
       ...                                ...                  ...
       141                          1.1730789              31.9211
      -------------------------------------------------------------
                  HL-Gap            0.0825944 Eh            2.2475 eV

     #   Z          covCN         q      C6AA      α(0)
     1   8 O        0.860    -0.579    25.613     6.785
     2  16 S        3.947     0.944   108.277    17.513
     3   8 O        0.860    -0.580    25.631     6.788
     4   6 C        2.991    -0.076    29.876     8.966
     5   6 C        2.926    -0.018    28.454     8.748
     6   6 C        2.923    -0.023    28.568     8.765
     7   6 C        2.919    -0.022    28.563     8.764
     8   6 C        2.919    -0.025    28.623     8.773
     9   6 C        3.116     0.005    27.757     8.630
    10   6 C        3.118     0.003    27.781     8.633
    11   6 C        2.924    -0.057    29.419     8.895
    12   6 C        2.911     0.075    26.319     8.412
    13   7 N        2.752    -0.059    22.388     7.027
    14   6 C        2.975     0.053    26.814     8.494
    15   6 C        2.922    -0.045    29.107     8.847
    16   6 C        2.919    -0.031    28.779     8.797
    17   6 C        2.920    -0.030    28.759     8.794
    18   6 C        2.956    -0.036    28.888     8.816
    19   6 C        2.972     0.037    27.157     8.548
    20  16 S        2.111    -0.149   147.334    20.429
    21   6 C        2.972     0.037    27.170     8.550
    22   6 C        2.957    -0.036    28.896     8.817
    23   6 C        2.920    -0.031    28.765     8.795
    24   6 C        2.919    -0.031    28.778     8.797
    25   6 C        2.922    -0.044    29.101     8.846
    26   6 C        2.973     0.053    26.805     8.493
    27   6 C        2.926    -0.055    29.366     8.887
    28   6 C        2.924    -0.019    28.477     8.751
    29   6 C        2.988    -0.094    30.349     9.037
    30   1 H        0.926     0.049     2.333     2.388
    31   1 H        0.926     0.064     2.151     2.293
    32   1 H        0.926     0.067     2.117     2.275
    33   1 H        0.926     0.067     2.115     2.274
    34   1 H        0.926     0.064     2.156     2.296
    35   1 H        0.926     0.054     2.275     2.359
    36   1 H        0.926     0.052     2.289     2.366
    37   1 H        0.926     0.052     2.297     2.370
    38   1 H        0.926     0.053     2.286     2.364
    39   1 H        0.926     0.052     2.291     2.367
    40   1 H        0.926     0.051     2.309     2.376
    41   1 H        0.926     0.051     2.313     2.378
    42   1 H        0.926     0.052     2.291     2.367
    43   1 H        0.926     0.058     2.221     2.330
    44   1 H        0.926     0.046     2.366     2.406

molecular dipole:
                 x           y           z       tot (Debye)
 q only:       -2.919       2.909       0.907
   full:       -2.668       2.616       1.024       9.848

 projected vibrational frequencies (cm⁻¹)
eigval :       -0.00    -0.00    -0.00     0.00     0.00     0.00
eigval :       15.91    31.80    49.90    60.58    73.99    78.81
eigval :       95.50   122.57   142.05   149.56   155.37   172.54
eigval :      202.15   227.80   244.52   266.18   288.25   310.87
eigval :      325.31   345.18   362.40   370.29   375.89   389.87
eigval :      412.07   423.48   425.26   432.44   443.19   482.68
eigval :      496.67   502.32   504.02   512.75   522.53   545.46
eigval :      584.32   586.80   601.91   626.84   658.38   662.85
eigval :      678.95   685.41   690.40   692.19   699.80   719.94
eigval :      776.06   777.85   780.25   791.48   810.64   853.77
eigval :      877.75   885.72   888.19   900.55   905.17   911.41
eigval :      916.88   919.66   926.01   932.70   934.18   939.66
eigval :      998.29  1018.91  1040.68  1049.03  1073.77  1084.79
eigval :     1086.12  1087.40  1111.56  1147.27  1148.88  1152.72
eigval :     1172.06  1174.29  1174.40  1176.18  1180.86  1196.51
eigval :     1225.57  1226.86  1238.56  1240.39  1262.10  1282.53
eigval :     1310.52  1315.65  1319.68  1335.02  1352.90  1403.46
eigval :     1414.52  1417.62  1422.07  1441.05  1449.35  1458.70
eigval :     1468.91  1560.04  1564.08  1565.26  1568.39  1570.26
eigval :     1572.07  1582.64  1595.04  3086.79  3087.17  3087.77
eigval :     3091.46  3091.69  3093.01  3096.00  3097.46  3098.04
eigval :     3100.86  3105.25  3105.39  3105.63  3117.62  3124.32

   temp. (K)  partition function   enthalpy   heat capacity  entropy
                                   cal/mol     cal/K/mol   cal/K/mol   J/K/mol
 298.15  VIB  0.363E+09            12687.960     84.266     76.546
         ROT  0.197E+08              888.752      2.981     36.360
         INT  0.715E+16            13576.712     87.247    112.906
         TR   0.814E+28             1481.254      4.968     43.929
         TOT                       15057.9664    92.2151   156.8352   656.1984

       T/K    H(0)-H(T)+PV         H(T)/Eh          T*S/Eh         G(T)/Eh
   ------------------------------------------------------------------------
    298.15    0.239964E-01    0.340437E+00    0.745175E-01    0.265919E+00
   ------------------------------------------------------------------------

         :::::::::::::::::::::::::::::::::::::::::::::::::::::
         ::                  THERMODYNAMIC                  ::
         :::::::::::::::::::::::::::::::::::::::::::::::::::::
         :: total free energy         -76.352042604936 Eh   ::
         ::.................................................::
         :: total energy              -76.617961830693 Eh   ::
         :: zero point energy           0.316440285016 Eh   ::
         :: G(RRHO) w/o ZPVE           -0.050521059260 Eh   ::
         :: G(RRHO) contrib.            0.265919225756 Eh   ::
         :::::::::::::::::::::::::::::::::::::::::::::::::::::

           -------------------------------------------------
          | TOTAL ENERGY              -76.617961830693 Eh   |
          | TOTAL ENTHALPY            -76.277525148807 Eh   |
          | TOTAL FREE ENERGY         -76.352042604936 Eh   |
          | GRADIENT NORM               0.000098557364 Eh/α |
          | HOMO-LUMO GAP               2.247507200813 eV   |
           -------------------------------------------------

 * finished run on 2025/07/17 at 21:42:41.842
