   * xtb version 6.7.1 (edcfbbe) compiled by 'albert@albert-system' on 2024-07-22

   ID    Z sym.   atoms
    1    8 O      1, 3
    2   16 S      2, 20
    3    6 C      4-12, 14-19, 21-29
    4    7 N      13
    5    1 H      30-44

          program call               : xtb data2507/toluene/PTZ-DBTO2/PTZ-DBTO2_toluene_S0_finalOpt.xtbopt.xyz --gfn 2 --uhf 2 --gbsa toluene --ohess vtight --parallel 40 --molden --ceasefiles --namespace data2507/toluene/PTZ-DBTO2/PTZ-DBTO2_toluene_T1_preOpt
      * Solvation model:               GBSA
        Solvent                        toluene
        Solvent mass                       9.2140E+01 g/mol
          :  Hamiltonian                  GFN2-xTB          :
 * total energy  :   -76.5157756 Eh     change       -0.1078178E-08 Eh
 * total energy  :   -76.5207333 Eh     change       -0.4957753E-02 Eh
 * total energy  :   -76.5224000 Eh     change       -0.1666669E-02 Eh
 * total energy  :   -76.5226059 Eh     change       -0.2058589E-03 Eh
 * total energy  :   -76.5227647 Eh     change       -0.1588710E-03 Eh
 * total energy  :   -76.5228358 Eh     change       -0.7104771E-04 Eh
 * total energy  :   -76.5229033 Eh     change       -0.6749953E-04 Eh
 * total energy  :   -76.5229499 Eh     change       -0.4667276E-04 Eh
 * total energy  :   -76.5229829 Eh     change       -0.3293954E-04 Eh
 * total energy  :   -76.5230116 Eh     change       -0.2867516E-04 Eh
 * total energy  :   -76.5231506 Eh     change       -0.1081581E-05 Eh
 * total energy  :   -76.5231516 Eh     change       -0.9897028E-06 Eh
 * total energy  :   -76.5231525 Eh     change       -0.9569697E-06 Eh
 * total energy  :   -76.5231535 Eh     change       -0.9927326E-06 Eh
 * total energy  :   -76.5231546 Eh     change       -0.1064419E-05 Eh
 * total energy  :   -76.5231557 Eh     change       -0.1131788E-05 Eh
 * total energy  :   -76.5231569 Eh     change       -0.1140427E-05 Eh
 * total energy  :   -76.5231579 Eh     change       -0.1028273E-05 Eh
 * total energy  :   -76.5231579 Eh     change       -0.7571487E-08 Eh
   *** GEOMETRY OPTIMIZATION CONVERGED AFTER 44 ITERATIONS ***

 final structure:
================
44
 xtb: 6.7.1 (edcfbbe)
O            4.40573292421957       -2.25944434219275        1.03125993620657
S            3.89099826877715       -1.55519914735049       -0.13650847035601
O            4.27173168130077       -2.15316234902105       -1.40963899153479
C            4.23361812812380        0.18373958363036       -0.07577928082649
C            5.45573462845454        0.80467728900283       -0.11192150058653
C            5.50836806908463        2.19193343978553       -0.05363798753437
C            4.31787340876627        2.92896558216630        0.03965823734098
C            3.09391342932577        2.31201604468506        0.07618427732794
C            3.01045310658592        0.90215522272694        0.01941016111512
C            1.85531297214583        0.08800390421737        0.05389723784019
C            0.51663878495075        0.48440587045866        0.14113431477511
C           -0.50369024085577       -0.45182607519025        0.16524934789592
N           -1.83273729768968       -0.07893745426546        0.26553216436138
C           -2.25095858138203        1.25715733815700        0.32897903651821
C           -1.70301668652295        2.15517158502330        1.25027757319112
C           -2.11823869528526        3.46974398228456        1.27768568678223
C           -3.09066204239750        3.92126079563307        0.39095399650604
C           -3.68743336658781        3.03427043584978       -0.48301441182900
C           -3.29008672339185        1.70356284641352       -0.50056628856256
S           -4.10497434777309        0.56658447327828       -1.57421068834875
C           -4.00415391821855       -0.83686994823262       -0.51215623235991
C           -5.02931156940223       -1.77152792711176       -0.50664271452776
C           -4.96351825651610       -2.86408878379113        0.33864195337313
C           -3.88085484406088       -3.00969626961858        1.20046953910103
C           -2.84990756668224       -2.09546870031778        1.18894141377639
C           -2.87555358371103       -1.00852792861299        0.30463652535255
C           -0.18872503549130       -1.85158512836644       -0.02395704063196
C            1.13020983099789       -2.25700106265466       -0.09406577022525
C            2.13690742601675       -1.32649567328796       -0.02567709372151
H            6.35523784632367        0.21036983129651       -0.18519678022255
H            6.45920666696492        2.70005511367446       -0.08199634728330
H            4.37503422911670        4.00701943168859        0.08322518320350
H            2.19042716678619        2.89781048370433        0.14780124817574
H            0.30082066142576        1.53876332997795        0.16593408370673
H           -0.97221665642930        1.79672694131963        1.95840948337838
H           -1.68789288980628        4.14691347621765        1.99879830161900
H           -3.40100692216649        4.95384141331334        0.40417789273778
H           -4.47341557103345        3.35442206869399       -1.14860179363975
H           -5.87499615760241       -1.62626607215972       -1.16001089019609
H           -5.76426603482916       -3.58607166984219        0.34533375877485
H           -3.84784949213148       -3.83808405033947        1.89073816295731
H           -2.01876835218883       -2.19087234913824        1.87064983012942
H           -0.97368650464060       -2.57052954216622       -0.17378098718377
H            1.37618193262846       -3.30074693939248       -0.22230244178829

          :  Hamiltonian                  GFN2-xTB          :
         :: gradient norm              0.000064163636 Eh/a0 ::
         :: HOMO-LUMO gap              0.319399293312 eV    ::
         :: SCC energy               -77.743151586558 Eh    ::
         :: -> dispersion             -0.064976986439 Eh    ::
         :: -> Gsolv                  -0.052060636158 Eh    ::
         :: repulsion energy           1.219993698671 Eh    ::

    * Orbital Energies and Occupations

         #    Occupation            Energy/Eh            Energy/eV
      -------------------------------------------------------------
         1        2.0000           -0.7581090             -20.6292
       ...           ...                  ...                  ...
        59        2.0000           -0.4353812             -11.8473
        60        2.0000           -0.4343133             -11.8183
        61        2.0000           -0.4316729             -11.7464
        62        2.0000           -0.4296471             -11.6913
        63        2.0000           -0.4265995             -11.6084
        64        2.0000           -0.4256834             -11.5834
        65        2.0000           -0.4246747             -11.5560
        66        2.0000           -0.4092460             -11.1362
        67        2.0000           -0.4020576             -10.9405
        68        2.0000           -0.3917567             -10.6602
        69        1.9982           -0.3852181             -10.4823
        70        1.0018           -0.3732310             -10.1561
        71        0.9979           -0.2757765              -7.5043 (HOMO)
        72        0.0021           -0.2640383              -7.1848 (LUMO)
        73        0.0000           -0.2577003              -7.0124
        74        0.0000           -0.2556723              -6.9572
        75                         -0.2532008              -6.8899
        76                         -0.2349834              -6.3942
        77                         -0.2250916              -6.1251
        78                         -0.2224655              -6.0536
        79                         -0.1967200              -5.3530
        80                         -0.1574077              -4.2833
        81                         -0.1367754              -3.7218
        82                         -0.1316125              -3.5814
       ...                                ...                  ...
       141                          1.1562885              31.4642
      -------------------------------------------------------------
                  HL-Gap            0.0117382 Eh            0.3194 eV

     #   Z          covCN         q      C6AA      α(0)
     1   8 O        0.860    -0.596    26.009     6.838
     2  16 S        3.933     0.903   109.494    17.612
     3   8 O        0.860    -0.597    26.038     6.841
     4   6 C        2.989    -0.093    30.324     9.033
     5   6 C        2.925    -0.023    28.585     8.768
     6   6 C        2.921    -0.046    29.155     8.855
     7   6 C        2.914    -0.033    28.833     8.805
     8   6 C        2.913    -0.039    28.968     8.826
     9   6 C        3.105    -0.018    28.309     8.718
    10   6 C        3.097    -0.022    28.441     8.740
    11   6 C        2.912    -0.059    29.456     8.900
    12   6 C        2.908     0.053    26.807     8.490
    13   7 N        2.751     0.008    21.127     6.827
    14   6 C        2.976     0.051    26.857     8.501
    15   6 C        2.920    -0.037    28.923     8.819
    16   6 C        2.918    -0.023    28.587     8.768
    17   6 C        2.919    -0.024    28.594     8.769
    18   6 C        2.962    -0.031    28.771     8.798
    19   6 C        2.970     0.032    27.279     8.567
    20  16 S        2.122    -0.020   141.864    20.047
    21   6 C        2.969     0.031    27.297     8.570
    22   6 C        2.961    -0.033    28.813     8.804
    23   6 C        2.919    -0.026    28.645     8.777
    24   6 C        2.917    -0.024    28.597     8.769
    25   6 C        2.920    -0.038    28.950     8.823
    26   6 C        2.978     0.050    26.882     8.505
    27   6 C        2.919    -0.060    29.484     8.904
    28   6 C        2.916    -0.019    28.475     8.750
    29   6 C        2.982    -0.088    30.194     9.014
    30   1 H        0.926     0.023     2.684     2.562
    31   1 H        0.926     0.037     2.492     2.469
    32   1 H        0.926     0.043     2.411     2.428
    33   1 H        0.926     0.045     2.381     2.413
    34   1 H        0.926     0.059     2.213     2.326
    35   1 H        0.926     0.067     2.123     2.278
    36   1 H        0.926     0.064     2.150     2.293
    37   1 H        0.926     0.065     2.147     2.291
    38   1 H        0.926     0.067     2.113     2.273
    39   1 H        0.926     0.066     2.132     2.284
    40   1 H        0.926     0.062     2.173     2.305
    41   1 H        0.926     0.061     2.182     2.310
    42   1 H        0.926     0.063     2.159     2.298
    43   1 H        0.926     0.059     2.215     2.327
    44   1 H        0.926     0.039     2.462     2.454

molecular dipole:
                 x           y           z       tot (Debye)
 q only:       -7.177       2.855       0.744
   full:       -6.750       2.540       0.830      18.453

 projected vibrational frequencies (cm⁻¹)
eigval :       -0.00     0.00     0.00     0.00     0.00     0.00
eigval :       14.49    29.83    46.16    59.97    68.64    84.84
eigval :      100.23   122.27   135.89   148.71   156.57   167.33
eigval :      207.73   229.13   240.08   267.62   287.97   308.69
eigval :      315.54   338.73   351.20   362.09   367.34   379.19
eigval :      406.06   410.25   421.06   427.23   440.10   470.66
eigval :      477.63   481.96   502.61   510.23   515.75   537.40
eigval :      554.28   573.99   593.57   607.95   621.92   650.93
eigval :      652.43   674.20   678.45   686.87   694.54   704.91
eigval :      713.88   740.68   771.26   773.49   780.76   826.72
eigval :      834.12   874.43   883.31   890.07   892.67   893.35
eigval :      902.36   907.52   913.30   923.08   925.22   933.25
eigval :      971.27   993.40  1034.06  1036.59  1045.05  1053.60
eigval :     1060.95  1079.80  1080.79  1132.42  1139.40  1144.00
eigval :     1152.04  1160.09  1165.57  1169.09  1170.27  1183.26
eigval :     1207.58  1219.41  1230.34  1233.86  1265.36  1289.62
eigval :     1301.11  1313.74  1322.47  1335.59  1340.22  1348.37
eigval :     1373.73  1391.05  1396.78  1399.68  1407.60  1411.01
eigval :     1443.39  1467.83  1470.79  1494.93  1498.04  1516.53
eigval :     1531.76  1553.01  1569.33  3072.31  3073.67  3081.95
eigval :     3088.01  3093.30  3094.71  3099.00  3099.97  3100.24
eigval :     3104.21  3105.11  3112.50  3113.31  3122.87  3134.25

   temp. (K)  partition function   enthalpy   heat capacity  entropy
                                   cal/mol     cal/K/mol   cal/K/mol   J/K/mol
 298.15  VIB  0.563E+09            12940.995     85.940     77.894
         ROT  0.199E+08              888.752      2.981     36.380
         INT  0.112E+17            13829.748     88.921    114.274
         TR   0.814E+28             1481.254      4.968     43.929
         TOT                       15311.0016    93.8894   158.2037   661.9244

       T/K    H(0)-H(T)+PV         H(T)/Eh          T*S/Eh         G(T)/Eh
   ------------------------------------------------------------------------
    298.15    0.243996E-01    0.336656E+00    0.751677E-01    0.261489E+00
   ------------------------------------------------------------------------

         :::::::::::::::::::::::::::::::::::::::::::::::::::::
         ::                  THERMODYNAMIC                  ::
         :::::::::::::::::::::::::::::::::::::::::::::::::::::
         :: total free energy         -76.261669206592 Eh   ::
         ::.................................................::
         :: total energy              -76.523157886947 Eh   ::
         :: zero point energy           0.312256742410 Eh   ::
         :: G(RRHO) w/o ZPVE           -0.050768062055 Eh   ::
         :: G(RRHO) contrib.            0.261488680355 Eh   ::
         :::::::::::::::::::::::::::::::::::::::::::::::::::::

           -------------------------------------------------
          | TOTAL ENERGY              -76.523157886947 Eh   |
          | TOTAL ENTHALPY            -76.186501510449 Eh   |
          | TOTAL FREE ENERGY         -76.261669206592 Eh   |
          | GRADIENT NORM               0.000064047440 Eh/α |
          | HOMO-LUMO GAP               0.319413153685 eV   |
           -------------------------------------------------

 * finished run on 2025/07/17 at 21:42:44.771
