   * xtb version 6.7.1 (edcfbbe) compiled by 'albert@albert-system' on 2024-07-22

   ID    Z sym.   atoms
    1    9 F      1, 3, 4
    2    6 C      2, 5-9, 11-15, 17-20, 22-35, 37-51
    3    7 N      10, 21, 36
    4    8 O      16
    5    1 H      52-83

          program call               : xtb data2507/toluene/PICFOCz/PICFOCz.xyz --gfn 2 --gbsa toluene --ohess vtight --parallel 40 --molden --ceasefiles --namespace data2507/toluene/PICFOCz/PICFOCz_toluene_S0_preOpt
      * Solvation model:               GBSA
        Solvent                        toluene
        Solvent mass                       9.2140E+01 g/mol
          :  Hamiltonian                  GFN2-xTB          :
 * total energy  :  -137.7133451 Eh     change       -0.2808747E-08 Eh
 * total energy  :  -137.7271032 Eh     change       -0.1375813E-01 Eh
 * total energy  :  -137.7302259 Eh     change       -0.3122658E-02 Eh
 * total energy  :  -137.7307836 Eh     change       -0.5577694E-03 Eh
 * total energy  :  -137.7311191 Eh     change       -0.3354054E-03 Eh
 * total energy  :  -137.7312721 Eh     change       -0.1530897E-03 Eh
 * total energy  :  -137.7314163 Eh     change       -0.1441955E-03 Eh
 * total energy  :  -137.7315403 Eh     change       -0.1239502E-03 Eh
 * total energy  :  -137.7316707 Eh     change       -0.1304585E-03 Eh
 * total energy  :  -137.7318037 Eh     change       -0.1329399E-03 Eh
 * total energy  :  -137.7337090 Eh     change       -0.6093306E-06 Eh
 * total energy  :  -137.7337096 Eh     change       -0.6887388E-06 Eh
 * total energy  :  -137.7337102 Eh     change       -0.5747922E-06 Eh
 * total energy  :  -137.7337107 Eh     change       -0.4484031E-06 Eh
 * total energy  :  -137.7337111 Eh     change       -0.4260784E-06 Eh
 * total energy  :  -137.7337115 Eh     change       -0.3678042E-06 Eh
 * total energy  :  -137.7337118 Eh     change       -0.3683822E-06 Eh
 * total energy  :  -137.7337123 Eh     change       -0.4607689E-06 Eh
 * total energy  :  -137.7337123 Eh     change       -0.5914274E-08 Eh
   *** GEOMETRY OPTIMIZATION CONVERGED AFTER 122 ITERATIONS ***

 final structure:
================
83
 xtb: 6.7.1 (edcfbbe)
F           -4.50466001447508       -3.67422883653084        3.29609387720077
C           -4.94603538262711       -4.26628535319021        2.17117338354400
F           -4.61696033927491       -5.56349072720039        2.27684272844667
F           -6.29523430825539       -4.22124617671478        2.23992802568292
C           -4.42114686220703       -3.61735530775310        0.92388417812852
C           -4.10543976197335       -4.38650825849329       -0.18949107432989
C           -3.65245556035884       -3.75870904778787       -1.33795456068291
C           -3.52364587277068       -2.38199497911388       -1.38159727059038
C           -3.84749078596645       -1.61633853513453       -0.26472165777325
N           -3.69273148305498       -0.22089294341470       -0.29997751773779
C           -2.49357600278657        0.43766179386965       -0.49691932679368
C           -1.21071455879643       -0.21726503534574       -0.69632223488082
C           -0.29490225145004        0.36960311687635       -1.57484539654591
C            0.93634128090708       -0.20160024102219       -1.79069375004794
C            1.30270719564659       -1.37485223629528       -1.12227925046005
O            2.53895403832464       -1.85228781081729       -1.40411359484540
C            3.04779370931984       -2.95282919300572       -0.66948798127120
C            4.50488156355261       -3.16532143152323       -1.08179496036188
C            5.34930021176327       -1.89637575881197       -0.96354263880212
C            5.52459435447771       -1.40918658513924        0.47986426221542
N            6.23265806685541       -0.15769520593596        0.52362043501229
C            7.59026085007328        0.00932650050578        0.65024674652054
C            8.58903009106336       -0.93708544802795        0.83962095257935
C            9.89249511939199       -0.49201673958358        0.94763000304041
C           10.20794745365259        0.86346634167113        0.87127450826605
C            9.22190314237703        1.81123594255016        0.68163411994904
C            7.90331847389217        1.38893424082264        0.56914875835512
C            6.65922542234754        2.07415804384424        0.36116604908828
C            6.31464274927033        3.40999392258108        0.19686815814114
C            4.98665946579416        3.73205545534949       -0.00171094822315
C            4.00617206205750        2.74183988246357       -0.03894581439863
C            4.32331294808646        1.40705986683079        0.12337093183113
C            5.65654839019160        1.07503885101018        0.32707527227385
C            0.40469124623302       -1.95045253823765       -0.22802336092228
C           -0.83554857449200       -1.37373677304350       -0.02005310627984
N           -2.63875240609413        1.73697572418731       -0.46926940235750
C           -3.96111201643928        1.96637301376235       -0.24407089449582
C           -4.61236469326670        3.22304840940524       -0.09532079521391
C           -3.89787752565134        4.42431993485164       -0.16612379045835
C           -4.53922216224740        5.62453369610771        0.01366587328521
C           -5.90928798652166        5.63631801384285        0.27032249042841
C           -6.62242456222871        4.46199792817904        0.33657306502584
C           -6.00465232761234        3.21498406777184        0.15050551652819
C           -6.73524394013052        1.95934678312661        0.18084924345140
C           -8.12703500352140        1.92415234923336        0.35235570944804
C           -8.83593153409775        0.74619024672870        0.33877969039600
C           -8.17740498614901       -0.46139469410025        0.12837784580639
C           -6.81429582506897       -0.47131445046482       -0.03697647890187
C           -6.06666533990681        0.71486593443769        0.00934979809195
C           -4.65145898924674        0.76136915035052       -0.14250087056118
C           -4.29468255476841       -2.23617297519897        0.89882851309017
H           -4.21048953544445       -5.45923089001545       -0.15136806371711
H           -3.40438428171390       -4.34772353606506       -2.20630979240259
H           -3.17355673753355       -1.89009866587805       -2.27615084057428
H           -0.57299060764605        1.28048621002256       -2.08130423421275
H            1.64478191204626        0.24371149394350       -2.47171853094079
H            2.97612525930545       -2.75018879275162        0.40635096490346
H            2.46550643545589       -3.85720595541200       -0.89156524340389
H            4.52391718094380       -3.49279643641509       -2.12225920680480
H            4.92303616710777       -3.96032200227929       -0.46258614105895
H            4.87615838603591       -1.10383593448017       -1.54529303603774
H            6.33574022150245       -2.08357422694643       -1.39233646899264
H            6.07740724814443       -2.14766335389948        1.06591655227102
H            4.55034754274744       -1.25721098293787        0.95081613369717
H            8.36521709704353       -1.99178371401231        0.89650057290751
H           10.68668049518681       -1.21034714831936        1.09329333818373
H           11.23979672835227        1.17148658023903        0.95977319846953
H            9.46718611456022        2.86148499141093        0.62089914749721
H            7.07330459722468        4.17854025459054        0.22249866667751
H            4.69859693066650        4.76514810926256       -0.13296794310855
H            2.97530431824514        3.02378286524766       -0.19917561850747
H            3.55043320006515        0.65467162193233        0.08309110099261
H            0.65890069579289       -2.84576979918387        0.31667405651209
H           -1.50024504363521       -1.82505778538940        0.70087675124251
H           -2.83699395181550        4.37052385295836       -0.35738096656532
H           -3.99042940619348        6.55338646769276       -0.03775549799061
H           -6.41755649902116        6.57823520599865        0.41896692774603
H           -7.67957806692305        4.52082495771021        0.54042635385168
H           -8.67213954296240        2.84327741789997        0.49250381518037
H           -9.90703633910381        0.75965462360370        0.47677741205601
H           -8.73288526081324       -1.38686714918950        0.09243151270680
H           -6.31455004053379       -1.40856892636550       -0.22086678663748
H           -4.54009644092254       -1.64518228140022        1.76893040727935

          :  Hamiltonian                  GFN2-xTB          :
         :: gradient norm              0.000051038168 Eh/a0 ::
         :: HOMO-LUMO gap              2.201389427682 eV    ::
         :: SCC energy              -139.924467342430 Eh    ::
         :: -> dispersion             -0.111053747936 Eh    ::
         :: -> Gsolv                  -0.053953257593 Eh    ::
         :: repulsion energy           2.190755047338 Eh    ::

    * Orbital Energies and Occupations

         #    Occupation            Energy/Eh            Energy/eV
      -------------------------------------------------------------
         1        2.0000           -0.8929226             -24.2977
       ...           ...                  ...                  ...
       113        2.0000           -0.4171559             -11.3514
       114        2.0000           -0.4168043             -11.3418
       115        2.0000           -0.4146571             -11.2834
       116        2.0000           -0.4130324             -11.2392
       117        2.0000           -0.4129248             -11.2363
       118        2.0000           -0.4052987             -11.0287
       119        2.0000           -0.4001343             -10.8882
       120        2.0000           -0.3924186             -10.6783
       121        2.0000           -0.3863758             -10.5138
       122        2.0000           -0.3848503             -10.4723
       123        2.0000           -0.3731485             -10.1539
       124        2.0000           -0.3676033             -10.0030
       125        2.0000           -0.3577101              -9.7338 (HOMO)
       126                         -0.2768106              -7.5324 (LUMO)
       127                         -0.2712068              -7.3799
       128                         -0.2584443              -7.0326
       129                         -0.2517912              -6.8516
       130                         -0.2429938              -6.6122
       131                         -0.2399108              -6.5283
       132                         -0.2338125              -6.3624
       133                         -0.2168807              -5.9016
       134                         -0.2126468              -5.7864
       135                         -0.1931971              -5.2572
       136                         -0.1891162              -5.1461
       ...                                ...                  ...
       236                          0.7502295              20.4148
      -------------------------------------------------------------
                  HL-Gap            0.0808996 Eh            2.2014 eV

     #   Z          covCN         q      C6AA      α(0)
     1   9 F        0.791    -0.216    11.403     3.989
     2   6 C        3.337     0.487    17.258     6.578
     3   9 F        0.791    -0.211    11.352     3.980
     4   9 F        0.791    -0.220    11.441     3.996
     5   6 C        2.976    -0.022    28.545     8.764
     6   6 C        2.919    -0.023    28.579     8.767
     7   6 C        2.920    -0.016    28.412     8.741
     8   6 C        2.921    -0.030    28.743     8.792
     9   6 C        2.912     0.078    26.260     8.403
    10   7 N        2.840    -0.050    22.212     7.000
    11   6 C        3.181     0.134    24.695     8.112
    12   6 C        2.972    -0.014    28.347     8.733
    13   6 C        2.927    -0.027    28.680     8.782
    14   6 C        2.918    -0.052    29.298     8.876
    15   6 C        2.862     0.146    24.822     8.166
    16   8 O        1.706    -0.274    18.543     5.814
    17   6 C        3.690     0.079    19.435     6.309
    18   6 C        3.800    -0.066    21.761     6.642
    19   6 C        3.802    -0.063    21.713     6.634
    20   6 C        3.740    -0.002    20.685     6.489
    21   7 N        2.797    -0.050    22.213     7.000
    22   6 C        3.080     0.045    26.912     8.505
    23   6 C        2.909    -0.055    29.360     8.885
    24   6 C        2.923    -0.037    28.912     8.818
    25   6 C        2.919    -0.045    29.124     8.850
    26   6 C        2.912    -0.036    28.887     8.813
    27   6 C        3.070    -0.021    28.460     8.747
    28   6 C        3.068    -0.021    28.469     8.749
    29   6 C        2.912    -0.036    28.891     8.814
    30   6 C        2.919    -0.045    29.109     8.847
    31   6 C        2.923    -0.036    28.903     8.816
    32   6 C        2.910    -0.053    29.317     8.879
    33   6 C        3.083     0.045    26.901     8.503
    34   6 C        2.916    -0.068    29.704     8.937
    35   6 C        2.923    -0.037    28.915     8.818
    36   7 N        1.894    -0.305    28.767     7.951
    37   6 C        3.202     0.060    26.102     8.324
    38   6 C        2.985    -0.002    28.060     8.689
    39   6 C        2.921    -0.033    28.816     8.803
    40   6 C        2.917    -0.031    28.770     8.796
    41   6 C        2.917    -0.033    28.826     8.804
    42   6 C        2.921    -0.036    28.894     8.815
    43   6 C        2.979    -0.003    28.105     8.696
    44   6 C        2.979     0.000    28.019     8.683
    45   6 C        2.922    -0.034    28.853     8.809
    46   6 C        2.916    -0.033    28.823     8.804
    47   6 C        2.917    -0.032    28.794     8.799
    48   6 C        2.919    -0.042    29.052     8.839
    49   6 C        2.977    -0.005    28.135     8.701
    50   6 C        3.065     0.018    27.538     8.605
    51   6 C        2.923    -0.031    28.781     8.798
    52   1 H        0.926     0.074     2.045     2.236
    53   1 H        0.926     0.078     2.000     2.211
    54   1 H        0.926     0.068     2.111     2.272
    55   1 H        0.926     0.054     2.266     2.354
    56   1 H        0.926     0.056     2.247     2.344
    57   1 H        0.924     0.036     2.505     2.475
    58   1 H        0.923     0.038     2.476     2.461
    59   1 H        0.924     0.059     2.214     2.327
    60   1 H        0.924     0.053     2.285     2.364
    61   1 H        0.924     0.057     2.237     2.339
    62   1 H        0.924     0.046     2.365     2.405
    63   1 H        0.924     0.054     2.274     2.358
    64   1 H        0.924     0.052     2.295     2.369
    65   1 H        0.926     0.029     2.606     2.525
    66   1 H        0.926     0.027     2.635     2.539
    67   1 H        0.926     0.023     2.687     2.563
    68   1 H        0.926     0.026     2.650     2.546
    69   1 H        0.926     0.026     2.648     2.545
    70   1 H        0.926     0.024     2.678     2.559
    71   1 H        0.926     0.027     2.626     2.534
    72   1 H        0.926     0.029     2.606     2.525
    73   1 H        0.926     0.044     2.400     2.422
    74   1 H        0.926     0.031     2.577     2.511
    75   1 H        0.926     0.046     2.371     2.408
    76   1 H        0.926     0.034     2.523     2.484
    77   1 H        0.926     0.034     2.534     2.489
    78   1 H        0.926     0.036     2.497     2.471
    79   1 H        0.926     0.040     2.450     2.448
    80   1 H        0.926     0.035     2.520     2.482
    81   1 H        0.926     0.033     2.548     2.496
    82   1 H        0.926     0.025     2.655     2.548
    83   1 H        0.926     0.064     2.155     2.296

molecular dipole:
                 x           y           z       tot (Debye)
 q only:        0.648      -1.489      -1.526
   full:        0.230      -1.940      -1.268       5.920

 projected vibrational frequencies (cm⁻¹)
eigval :       -0.00    -0.00    -0.00    -0.00     0.00     0.00
eigval :       -3.43     4.67     8.43    14.64    16.56    18.67
eigval :       24.63    25.12    30.88    41.72    50.77    56.43
eigval :       69.03    83.84    90.00    98.20   104.19   114.84
eigval :      125.88   139.23   142.10   151.95   169.07   187.63
eigval :      193.86   205.42   209.42   215.90   229.51   242.14
eigval :      244.85   265.50   270.07   273.29   280.87   291.25
eigval :      305.86   321.73   323.03   340.51   371.39   375.20
eigval :      382.43   395.21   397.16   399.38   411.50   418.02
eigval :      425.11   426.50   431.89   439.04   447.95   461.33
eigval :      473.40   480.76   508.24   512.03   518.87   521.80
eigval :      529.98   531.04   535.15   541.70   558.19   583.39
eigval :      590.06   592.83   599.00   606.70   611.52   629.70
eigval :      640.33   645.89   659.99   666.77   674.50   676.80
eigval :      678.85   688.58   693.86   708.97   717.70   732.30
eigval :      744.50   760.73   763.59   764.26   769.81   771.39
eigval :      775.79   780.64   797.66   803.22   809.94   824.08
eigval :      855.46   859.12   860.10   864.11   864.76   873.44
eigval :      883.64   888.49   897.20   899.30   902.18   905.82
eigval :      907.03   913.24   918.55   920.11   924.83   925.34
eigval :      925.95   928.88   938.09   939.01   958.85   984.06
eigval :      990.09   996.37   997.35  1011.31  1017.97  1030.17
eigval :     1038.48  1053.90  1066.05  1069.78  1073.21  1082.98
eigval :     1085.48  1098.36  1107.21  1109.74  1125.08  1127.39
eigval :     1127.73  1136.45  1150.78  1153.56  1157.79  1169.89
eigval :     1170.25  1180.15  1181.53  1182.45  1184.36  1185.62
eigval :     1189.46  1195.56  1200.92  1229.28  1230.11  1234.52
eigval :     1244.11  1248.37  1253.54  1255.54  1261.96  1269.97
eigval :     1273.04  1281.48  1298.28  1298.51  1304.15  1313.89
eigval :     1325.06  1326.54  1329.36  1334.29  1337.05  1344.55
eigval :     1346.66  1351.48  1356.47  1362.58  1367.80  1374.48
eigval :     1406.79  1410.18  1413.00  1425.94  1428.30  1432.72
eigval :     1434.07  1440.87  1460.36  1462.24  1463.68  1472.18
eigval :     1479.89  1482.35  1486.83  1488.63  1510.13  1513.44
eigval :     1541.83  1558.23  1564.39  1570.78  1572.72  1573.41
eigval :     1586.81  1588.43  1592.86  1598.65  1598.98  1603.37
eigval :     1615.88  2883.44  2911.16  2963.63  2973.14  2983.99
eigval :     2987.24  2997.43  3007.94  3066.52  3067.41  3071.06
eigval :     3071.76  3073.41  3075.15  3079.63  3081.23  3082.24
eigval :     3085.34  3087.72  3088.90  3091.29  3096.66  3097.85
eigval :     3098.07  3099.70  3099.96  3106.48  3106.78  3109.44
eigval :     3112.07  3115.10  3116.23

   temp. (K)  partition function   enthalpy   heat capacity  entropy
                                   cal/mol     cal/K/mol   cal/K/mol   J/K/mol
 298.15  VIB  0.590E+22            24567.495    150.413    156.703
         ROT  0.137E+09              888.752      2.981     40.216
         INT  0.810E+30            25456.247    153.393    196.919
         TR   0.170E+29             1481.254      4.968     45.393
         TOT                       26937.5010   158.3616   242.3119  1013.8332

       T/K    H(0)-H(T)+PV         H(T)/Eh          T*S/Eh         G(T)/Eh
   ------------------------------------------------------------------------
    298.15    0.429276E-01    0.674995E+00    0.115130E+00    0.559865E+00
   ------------------------------------------------------------------------

         :::::::::::::::::::::::::::::::::::::::::::::::::::::
         ::                  THERMODYNAMIC                  ::
         :::::::::::::::::::::::::::::::::::::::::::::::::::::
         :: total free energy        -137.173847021039 Eh   ::
         ::.................................................::
         :: total energy             -137.733712296267 Eh   ::
         :: zero point energy           0.632067859293 Eh   ::
         :: G(RRHO) w/o ZPVE           -0.072202584065 Eh   ::
         :: G(RRHO) contrib.            0.559865275228 Eh   ::
         :::::::::::::::::::::::::::::::::::::::::::::::::::::

           -------------------------------------------------
          | TOTAL ENERGY             -137.733712296267 Eh   |
          | TOTAL ENTHALPY           -137.058716796639 Eh   |
          | TOTAL FREE ENERGY        -137.173847021039 Eh   |
          | GRADIENT NORM               0.000051054187 Eh/α |
          | HOMO-LUMO GAP               2.201389088567 eV   |
           -------------------------------------------------

 * finished run on 2025/09/13 at 02:58:05.210
