   * xtb version 6.7.1 (edcfbbe) compiled by 'albert@albert-system' on 2024-07-22

   ID    Z sym.   atoms
    1    9 F      1, 3, 4
    2    6 C      2, 5-9, 11-15, 17-20, 22-35, 37-51
    3    7 N      10, 21, 36
    4    8 O      16
    5    1 H      52-83

          program call               : xtb data2507/toluene/PICFOCz/PICFOCz_toluene_S0_crest.xyz --gfn 2 --gbsa toluene --ohess vtight --parallel 40 --molden --ceasefiles --namespace data2507/toluene/PICFOCz/PICFOCz_toluene_S0_finalOpt
      * Solvation model:               GBSA
        Solvent                        toluene
        Solvent mass                       9.2140E+01 g/mol
          :  Hamiltonian                  GFN2-xTB          :
 * total energy  :  -137.7391729 Eh     change       -0.3893376E-08 Eh
 * total energy  :  -137.7392659 Eh     change       -0.9295865E-04 Eh
 * total energy  :  -137.7393390 Eh     change       -0.7315525E-04 Eh
 * total energy  :  -137.7393800 Eh     change       -0.4099623E-04 Eh
 * total energy  :  -137.7394205 Eh     change       -0.4042669E-04 Eh
 * total energy  :  -137.7394701 Eh     change       -0.4962444E-04 Eh
 * total energy  :  -137.7394898 Eh     change       -0.1976310E-04 Eh
 * total energy  :  -137.7395011 Eh     change       -0.1122198E-04 Eh
 * total energy  :  -137.7395237 Eh     change       -0.2260875E-04 Eh
 * total energy  :  -137.7395428 Eh     change       -0.1913958E-04 Eh
 * total energy  :  -137.7400882 Eh     change       -0.9303544E-06 Eh
 * total energy  :  -137.7400890 Eh     change       -0.8164352E-06 Eh
 * total energy  :  -137.7400899 Eh     change       -0.9693771E-06 Eh
 * total energy  :  -137.7400909 Eh     change       -0.9514587E-06 Eh
 * total energy  :  -137.7400918 Eh     change       -0.9035765E-06 Eh
 * total energy  :  -137.7400926 Eh     change       -0.8098496E-06 Eh
 * total energy  :  -137.7400933 Eh     change       -0.6663806E-06 Eh
 * total energy  :  -137.7400939 Eh     change       -0.6735612E-06 Eh
 * total energy  :  -137.7400940 Eh     change       -0.7191971E-08 Eh
   *** GEOMETRY OPTIMIZATION CONVERGED AFTER 68 ITERATIONS ***

 final structure:
================
83
 xtb: 6.7.1 (edcfbbe)
F           -0.82516021231921       -6.30829403007106        0.73047154735398
C           -0.42243985841663       -5.05709812567630        1.01304308945104
F           -0.75041477447078       -4.83838155426332        2.29695521841917
F            0.92925596128735       -5.09421926071028        0.97972580875034
C           -0.97973230189927       -4.03030358312112        0.07167899341092
C           -1.21645605782616       -4.37072934206196       -1.25429083104215
C           -1.68790843607913       -3.40369185290554       -2.12719698088787
C           -1.90596256406216       -2.11098879601558       -1.68776166094430
C           -1.66535644503233       -1.77591068624410       -0.35609675855574
N           -1.83663088425451       -0.45507768877110        0.08616796461151
C           -0.83161307981988        0.34276287192563        0.60192304762411
C            0.54078379117596       -0.08268305409052        0.82022347276577
C            1.22238103015661       -0.93816032945335       -0.03882989255254
C            2.53360556296237       -1.29951758249436        0.20681455531664
C            3.20564433209852       -0.79196081257734        1.31471270892070
O            4.48996937759097       -1.07015549995119        1.66053247300392
C            5.34305879689274       -1.74608992526730        0.75086913299948
C            5.67941493269940       -0.89653412876673       -0.47761751343680
C            6.30718306507373        0.44372137051692       -0.08476048949040
C            5.97182562467842        1.55030716457977       -1.09403311909223
N            4.56622292589024        1.86466777302709       -1.08369297351252
C            3.61040877581145        1.39758942811542       -1.95478690664477
C            3.74833935650104        0.63940550783222       -3.11165323110031
C            2.60539601907434        0.31161248725807       -3.81483814819775
C            1.34420310626719        0.72666965670289       -3.39109524976252
C            1.19713387202542        1.48668153161131       -2.24791802216345
C            2.33097143611623        1.82539112141626       -1.52191665054173
C            2.54022263955584        2.58020816852012       -0.32136144447331
C            1.68476022208304        3.23825321941940        0.55246940302852
C            2.23081299787629        3.89121669839975        1.63905319632063
C            3.60701637088053        3.89160258865975        1.85896430677456
C            4.47525919830495        3.23487843883208        1.00823857604178
C            3.93491273432110        2.57448393582268       -0.08728418792774
C            2.52571260370951        0.07449128748519        2.17575833949966
C            1.21920520942667        0.42340841924284        1.93184513005137
N           -1.26025057672531        1.54714841021904        0.87789136806645
C           -2.57944343076705        1.56955829582583        0.54338126889416
C           -3.47906603357935        2.66908923668989        0.62601946527392
C           -3.05536807994770        3.92354310145003        1.07907822166955
C           -3.93134706234940        4.97955741982890        1.11909773680068
C           -5.24773414418403        4.79219731876634        0.70075818284462
C           -5.67741138542063        3.56167713092795        0.26110073014411
C           -4.81463491808321        2.45517166437593        0.21365032155625
C           -5.24741137263143        1.13325757521550       -0.20633711245033
C           -6.58562981429795        0.86845932361259       -0.53322644833462
C           -7.01785105766357       -0.38994169874242       -0.87962365775504
C           -6.12254048907154       -1.45523986943843       -0.89554689265072
C           -4.80110233715203       -1.23675740699983       -0.59271092548733
C           -4.33234352012913        0.04531971223058       -0.26911868538308
C           -2.97500614348486        0.32763148160715        0.05519040162234
C           -1.20339095814560       -2.74109244063925        0.53234439673805
H           -1.03626008585830       -5.37877783162003       -1.59303119785137
H           -1.87630448756832       -3.65870713890209       -3.15786792246504
H           -2.26365359408562       -1.35187252356337       -2.36711632361018
H            0.74718067072600       -1.31160194193376       -0.93240706267298
H            3.01454513814089       -1.97940653106812       -0.47778155593969
H            6.24569680361988       -1.94265548152972        1.33572001615286
H            4.90545820855776       -2.70590223166381        0.45056584475242
H            4.75838579644231       -0.70652858031592       -1.02886164635310
H            6.35028399935996       -1.46675164689481       -1.12109899522693
H            7.39027875392371        0.34792565750960       -0.00084930349737
H            5.91584668769769        0.74092657956237        0.89024699213373
H            6.25339700136278        1.24074819980901       -2.10243060713763
H            6.53302042268611        2.45652764444292       -0.84551174812767
H            4.71514783561079        0.30905180980923       -3.46174630445572
H            2.69141302996775       -0.27896895922585       -4.71571609474209
H            0.47613078142369        0.45297157585096       -3.97351570724133
H            0.22346243200403        1.81595736475130       -1.91503847888482
H            0.61802245842736        3.21601549681689        0.39118636157024
H            1.58577193125561        4.40905685359953        2.33399703144465
H            4.00421138463668        4.41392841368964        2.71788702626245
H            5.53810900659453        3.24333809115790        1.19755273796580
H            3.05340801193566        0.46484852951912        3.03169251473864
H            0.70050282680892        1.09710732582014        2.59515658256256
H           -2.02660885995498        4.02917620705351        1.38782806454871
H           -3.60620228821147        5.94917366462553        1.46648189038739
H           -5.93971766489344        5.62179290564369        0.72348231154995
H           -6.70426551488505        3.46530329544886       -0.05337996704614
H           -7.31090599240435        1.66522813900974       -0.50493454787357
H           -8.05691831158038       -0.55439706491227       -1.12412463838884
H           -6.46468714096107       -2.45015290100075       -1.13911879486144
H           -4.11638163033861       -2.06956453987619       -0.58412041313059
H           -1.01580626667463       -2.48417665783316        1.56361090554860

          :  Hamiltonian                  GFN2-xTB          :
         :: gradient norm              0.000082429003 Eh/a0 ::
         :: HOMO-LUMO gap              2.226668859916 eV    ::
         :: SCC energy              -139.932677668022 Eh    ::
         :: -> dispersion             -0.127012387968 Eh    ::
         :: -> Gsolv                  -0.047569563709 Eh    ::
         :: repulsion energy           2.192583717136 Eh    ::

    * Orbital Energies and Occupations

         #    Occupation            Energy/Eh            Energy/eV
      -------------------------------------------------------------
         1        2.0000           -0.8917634             -24.2661
       ...           ...                  ...                  ...
       113        2.0000           -0.4165604             -11.3352
       114        2.0000           -0.4148703             -11.2892
       115        2.0000           -0.4139655             -11.2646
       116        2.0000           -0.4122964             -11.2192
       117        2.0000           -0.4110849             -11.1862
       118        2.0000           -0.4044845             -11.0066
       119        2.0000           -0.3990090             -10.8576
       120        2.0000           -0.3901170             -10.6156
       121        2.0000           -0.3858633             -10.4999
       122        2.0000           -0.3840901             -10.4516
       123        2.0000           -0.3724341             -10.1344
       124        2.0000           -0.3663794              -9.9697
       125        2.0000           -0.3579306              -9.7398 (HOMO)
       126                         -0.2761020              -7.5131 (LUMO)
       127                         -0.2699634              -7.3461
       128                         -0.2568104              -6.9882
       129                         -0.2512241              -6.8362
       130                         -0.2420168              -6.5856
       131                         -0.2396301              -6.5207
       132                         -0.2308983              -6.2831
       133                         -0.2161785              -5.8825
       134                         -0.2117241              -5.7613
       135                         -0.1929544              -5.2506
       136                         -0.1892186              -5.1489
       ...                                ...                  ...
       236                          0.7518378              20.4585
      -------------------------------------------------------------
                  HL-Gap            0.0818286 Eh            2.2267 eV

     #   Z          covCN         q      C6AA      α(0)
     1   9 F        0.791    -0.212    11.361     3.982
     2   6 C        3.337     0.487    17.267     6.579
     3   9 F        0.791    -0.214    11.384     3.986
     4   9 F        0.791    -0.220    11.446     3.996
     5   6 C        2.977    -0.021    28.528     8.761
     6   6 C        2.920    -0.023    28.578     8.766
     7   6 C        2.920    -0.017    28.445     8.746
     8   6 C        2.921    -0.028    28.704     8.786
     9   6 C        2.912     0.078    26.257     8.402
    10   7 N        2.841    -0.051    22.228     7.002
    11   6 C        3.176     0.139    24.604     8.100
    12   6 C        2.973    -0.012    28.306     8.727
    13   6 C        2.923    -0.037    28.915     8.818
    14   6 C        2.917    -0.066    29.636     8.927
    15   6 C        2.859     0.149    24.754     8.155
    16   8 O        1.705    -0.282    18.687     5.837
    17   6 C        3.689     0.074    19.523     6.324
    18   6 C        3.800    -0.071    21.853     6.656
    19   6 C        3.802    -0.066    21.761     6.641
    20   6 C        3.740    -0.002    20.687     6.490
    21   7 N        2.796    -0.052    22.253     7.006
    22   6 C        3.079     0.045    26.916     8.506
    23   6 C        2.910    -0.057    29.412     8.893
    24   6 C        2.923    -0.038    28.956     8.824
    25   6 C        2.919    -0.047    29.165     8.856
    26   6 C        2.912    -0.034    28.857     8.809
    27   6 C        3.072    -0.021    28.463     8.748
    28   6 C        3.070    -0.022    28.473     8.749
    29   6 C        2.912    -0.035    28.864     8.810
    30   6 C        2.920    -0.043    29.066     8.841
    31   6 C        2.923    -0.036    28.906     8.817
    32   6 C        2.910    -0.055    29.363     8.885
    33   6 C        3.085     0.045    26.893     8.501
    34   6 C        2.920    -0.053    29.318     8.879
    35   6 C        2.928    -0.026    28.652     8.778
    36   7 N        1.895    -0.307    28.794     7.955
    37   6 C        3.199     0.061    26.103     8.327
    38   6 C        2.985    -0.002    28.066     8.690
    39   6 C        2.921    -0.032    28.805     8.801
    40   6 C        2.917    -0.031    28.773     8.796
    41   6 C        2.917    -0.033    28.828     8.805
    42   6 C        2.921    -0.036    28.894     8.815
    43   6 C        2.979    -0.004    28.109     8.697
    44   6 C        2.979     0.000    28.021     8.683
    45   6 C        2.922    -0.034    28.853     8.809
    46   6 C        2.916    -0.033    28.827     8.804
    47   6 C        2.917    -0.032    28.791     8.799
    48   6 C        2.919    -0.042    29.048     8.838
    49   6 C        2.978    -0.005    28.130     8.700
    50   6 C        3.064     0.019    27.526     8.603
    51   6 C        2.923    -0.034    28.838     8.806
    52   1 H        0.926     0.072     2.059     2.244
    53   1 H        0.926     0.078     2.000     2.212
    54   1 H        0.926     0.071     2.079     2.255
    55   1 H        0.926     0.031     2.567     2.505
    56   1 H        0.926     0.044     2.392     2.419
    57   1 H        0.924     0.060     2.197     2.318
    58   1 H        0.924     0.036     2.506     2.476
    59   1 H        0.925     0.051     2.309     2.376
    60   1 H        0.924     0.048     2.347     2.396
    61   1 H        0.924     0.049     2.334     2.389
    62   1 H        0.924     0.055     2.262     2.352
    63   1 H        0.924     0.057     2.240     2.340
    64   1 H        0.924     0.053     2.288     2.365
    65   1 H        0.926     0.029     2.597     2.520
    66   1 H        0.926     0.028     2.611     2.527
    67   1 H        0.926     0.021     2.711     2.575
    68   1 H        0.926     0.018     2.762     2.599
    69   1 H        0.926     0.038     2.471     2.458
    70   1 H        0.926     0.025     2.662     2.551
    71   1 H        0.926     0.027     2.624     2.533
    72   1 H        0.926     0.029     2.599     2.521
    73   1 H        0.926     0.051     2.303     2.373
    74   1 H        0.926     0.053     2.284     2.363
    75   1 H        0.926     0.044     2.393     2.419
    76   1 H        0.926     0.034     2.530     2.487
    77   1 H        0.926     0.034     2.536     2.490
    78   1 H        0.926     0.037     2.494     2.470
    79   1 H        0.926     0.039     2.457     2.451
    80   1 H        0.926     0.035     2.519     2.482
    81   1 H        0.926     0.034     2.531     2.488
    82   1 H        0.926     0.028     2.619     2.531
    83   1 H        0.926     0.061     2.191     2.315

molecular dipole:
                 x           y           z       tot (Debye)
 q only:        0.849       0.003      -1.777
   full:        0.715      -0.454      -1.897       5.280

 projected vibrational frequencies (cm⁻¹)
eigval :       -0.00    -0.00    -0.00    -0.00     0.00     0.00
eigval :        9.67    16.55    18.63    19.51    22.36    27.41
eigval :       33.16    36.24    49.40    55.27    59.11    73.25
eigval :       73.38    87.90    94.32   109.70   112.33   115.45
eigval :      126.19   149.94   151.11   154.39   186.22   188.08
eigval :      194.98   207.56   214.39   223.42   228.98   246.61
eigval :      262.58   271.41   276.88   280.63   296.83   301.48
eigval :      312.26   324.84   334.51   345.02   374.99   383.42
eigval :      390.18   397.04   400.98   402.26   416.61   423.89
eigval :      427.26   428.81   437.01   441.91   454.95   475.53
eigval :      476.32   492.13   509.07   519.61   521.06   529.93
eigval :      532.08   534.80   543.22   548.97   555.92   580.29
eigval :      583.58   592.17   594.82   597.45   605.17   620.03
eigval :      641.84   643.28   659.42   667.16   673.65   678.07
eigval :      681.56   689.32   695.14   707.96   709.84   721.19
eigval :      734.94   757.90   763.92   765.23   767.08   777.37
eigval :      779.45   782.58   800.35   804.71   813.08   831.55
eigval :      845.70   861.28   862.35   862.74   865.41   879.27
eigval :      879.89   885.17   898.15   899.80   906.24   907.35
eigval :      908.73   917.52   918.03   918.92   920.88   925.20
eigval :      926.07   927.18   931.98   938.72   957.75   973.12
eigval :      987.31   996.04  1003.45  1011.67  1021.98  1029.91
eigval :     1041.45  1062.96  1065.85  1071.09  1075.53  1083.72
eigval :     1084.38  1085.85  1093.52  1106.59  1116.08  1123.83
eigval :     1129.91  1138.41  1149.98  1155.13  1158.26  1168.67
eigval :     1171.16  1179.31  1179.86  1183.37  1183.43  1186.27
eigval :     1192.75  1200.19  1201.08  1227.59  1231.78  1234.66
eigval :     1241.69  1246.90  1253.79  1257.45  1259.90  1266.54
eigval :     1275.44  1281.21  1301.64  1301.97  1311.73  1316.26
eigval :     1320.50  1323.72  1324.87  1326.92  1336.74  1338.24
eigval :     1345.16  1350.61  1362.49  1368.59  1371.59  1375.61
eigval :     1406.72  1409.77  1413.36  1425.51  1429.80  1432.23
eigval :     1437.87  1439.29  1459.14  1463.33  1464.59  1472.52
eigval :     1473.44  1474.14  1482.84  1490.05  1510.55  1513.61
eigval :     1542.16  1558.29  1565.16  1572.14  1573.74  1574.02
eigval :     1587.44  1588.95  1592.76  1599.15  1601.19  1603.49
eigval :     1617.60  2908.13  2947.57  2969.27  2981.74  2988.59
eigval :     2998.33  2999.71  3015.12  3065.99  3066.20  3070.98
eigval :     3071.22  3075.69  3076.13  3077.75  3081.56  3085.38
eigval :     3085.48  3087.34  3096.53  3097.31  3098.08  3098.68
eigval :     3100.72  3101.17  3104.59  3104.95  3109.56  3110.81
eigval :     3111.75  3112.77  3114.17

   temp. (K)  partition function   enthalpy   heat capacity  entropy
                                   cal/mol     cal/K/mol   cal/K/mol   J/K/mol
 298.15  VIB  0.108E+20            24178.934    151.467    150.231
         ROT  0.743E+08              888.752      2.981     38.996
         INT  0.804E+27            25067.686    154.448    189.227
         TR   0.170E+29             1481.254      4.968     45.393
         TOT                       26548.9402   159.4159   234.6196   981.6486

       T/K    H(0)-H(T)+PV         H(T)/Eh          T*S/Eh         G(T)/Eh
   ------------------------------------------------------------------------
    298.15    0.423084E-01    0.675475E+00    0.111475E+00    0.564000E+00
   ------------------------------------------------------------------------

         :::::::::::::::::::::::::::::::::::::::::::::::::::::
         ::                  THERMODYNAMIC                  ::
         :::::::::::::::::::::::::::::::::::::::::::::::::::::
         :: total free energy        -137.176093944510 Eh   ::
         ::.................................................::
         :: total energy             -137.740093952655 Eh   ::
         :: zero point energy           0.633166941341 Eh   ::
         :: G(RRHO) w/o ZPVE           -0.069166933196 Eh   ::
         :: G(RRHO) contrib.            0.564000008144 Eh   ::
         :::::::::::::::::::::::::::::::::::::::::::::::::::::

           -------------------------------------------------
          | TOTAL ENERGY             -137.740093952655 Eh   |
          | TOTAL ENTHALPY           -137.064618582035 Eh   |
          | TOTAL FREE ENERGY        -137.176093944510 Eh   |
          | GRADIENT NORM               0.000082437831 Eh/α |
          | HOMO-LUMO GAP               2.226668887583 eV   |
           -------------------------------------------------

 * finished run on 2025/09/13 at 03:16:06.416
