   * xtb version 6.7.1 (edcfbbe) compiled by 'albert@albert-system' on 2024-07-22

   ID    Z sym.   atoms
    1    9 F      1, 3, 4
    2    6 C      2, 5-9, 11-15, 17-20, 22-35, 37-51
    3    7 N      10, 21, 36
    4    8 O      16
    5    1 H      52-83

          program call               : xtb data2507/toluene/PICFOCz/PICFOCz_toluene_T1_crest.xyz --gfn 2 --uhf 2 --gbsa toluene --ohess vtight --parallel 40 --molden --ceasefiles --namespace data2507/toluene/PICFOCz/PICFOCz_toluene_T1_finalOpt
      * Solvation model:               GBSA
        Solvent                        toluene
        Solvent mass                       9.2140E+01 g/mol
          :  Hamiltonian                  GFN2-xTB          :
 * total energy  :  -137.6505063 Eh     change       -0.2199954E-08 Eh
 * total energy  :  -137.6506005 Eh     change       -0.9418106E-04 Eh
 * total energy  :  -137.6506636 Eh     change       -0.6315990E-04 Eh
 * total energy  :  -137.6506926 Eh     change       -0.2899551E-04 Eh
 * total energy  :  -137.6507194 Eh     change       -0.2675835E-04 Eh
 * total energy  :  -137.6507539 Eh     change       -0.3447174E-04 Eh
 * total energy  :  -137.6507742 Eh     change       -0.2032383E-04 Eh
 * total energy  :  -137.6507847 Eh     change       -0.1057414E-04 Eh
 * total energy  :  -137.6508017 Eh     change       -0.1691418E-04 Eh
 * total energy  :  -137.6508136 Eh     change       -0.1189762E-04 Eh
 * total energy  :  -137.6509125 Eh     change       -0.2532639E-06 Eh
 * total energy  :  -137.6509127 Eh     change       -0.2285279E-06 Eh
 * total energy  :  -137.6509129 Eh     change       -0.2147262E-06 Eh
 * total energy  :  -137.6509132 Eh     change       -0.2251487E-06 Eh
 * total energy  :  -137.6509134 Eh     change       -0.2750133E-06 Eh
 * total energy  :  -137.6509138 Eh     change       -0.3614385E-06 Eh
 * total energy  :  -137.6509142 Eh     change       -0.3981666E-06 Eh
 * total energy  :  -137.6509145 Eh     change       -0.3529096E-06 Eh
 * total energy  :  -137.6509145 Eh     change       -0.3679958E-08 Eh
   *** GEOMETRY OPTIMIZATION CONVERGED AFTER 44 ITERATIONS ***

 final structure:
================
83
 xtb: 6.7.1 (edcfbbe)
F           -0.45230165417100       -6.40035613957072        0.80922339445884
C           -0.09239595413126       -5.12886236578859        1.06562923480739
F           -0.36716639439628       -4.92207922442380        2.36685933868867
F            1.26089906740358       -5.11648041161690        0.97852883904052
C           -0.73138062107407       -4.13140767306044        0.15163506326058
C           -1.04954613783079       -4.50192215953136       -1.15504684634115
C           -1.61442247950293       -3.55184423788703       -2.00050949951487
C           -1.84915447906790       -2.26882960056728       -1.56177298960590
C           -1.52151290259916       -1.89472800500441       -0.24608846472613
N           -1.72198252068265       -0.59648730672648        0.19717944670962
C           -0.75631870881733        0.20891817739599        0.86078325351239
C            0.60980442365671       -0.05673115283954        1.05542542394069
C            1.36764558750993       -1.03517475536865        0.36206485025163
C            2.71239662633393       -1.18764532047051        0.58740063939203
C            3.38470663600413       -0.36799843768053        1.50192578886747
O            4.70870194054905       -0.41748848965417        1.78740205220908
C            5.59222476484577       -1.13388177319509        0.94095366520104
C            5.68698553666707       -0.50829281386034       -0.45408387933524
C            6.12500951981419        0.95721431886233       -0.38945695130042
C            5.54048562874081        1.78017553864341       -1.54604419687692
N            4.11592796616475        1.94427647155439       -1.41307912776338
C            3.13676873680801        1.22366391017887       -2.05383120273024
C            3.24492930477501        0.23318964724492       -3.02353953383230
C            2.08077180886042       -0.32865938750810       -3.51134153958913
C            0.82841702735866        0.08441117338069       -3.06207614394760
C            0.71016314777563        1.07524411889981       -2.10665888793557
C            1.86509345836758        1.64575074737246       -1.59209545108757
C            2.10738636951495        2.66683163556314       -0.61314699138328
C            1.27632942895521        3.44395333213970        0.18098280847146
C            1.85441989192143        4.36355740963642        1.03524860449305
C            3.23823677629103        4.51104234859671        1.10179759964653
C            4.08489443541159        3.74264616261663        0.32560124191168
C            3.51227207433139        2.81448047111026       -0.53478052748034
C            2.64764150246359        0.61090508362909        2.19877642976596
C            1.31290483378760        0.76901879228974        1.97842948358883
N           -1.29542663773705        1.39374338654945        1.21380034295362
C           -2.53181197759671        1.41291928908485        0.75298055595222
C           -3.45669095540534        2.49717626979322        0.79332584852368
C           -3.08302399115915        3.73886864603223        1.31250108727855
C           -3.96448408630189        4.80065300653386        1.28725814351599
C           -5.22118929899847        4.62296897434793        0.72779787900122
C           -5.60555580415229        3.39145882862752        0.22477982446503
C           -4.74808077334512        2.28734273983804        0.25675046967467
C           -5.14402447568082        0.96039371049914       -0.19871206186550
C           -6.45846334769465        0.68313902439986       -0.56269625263684
C           -6.87191716260230       -0.58184483044712       -0.94231316793685
C           -5.96201077169216       -1.63906095820416       -0.93893134206094
C           -4.65576738586829       -1.41580059770788       -0.59648890705592
C           -4.19367336900280       -0.12127894638923       -0.24243516764455
C           -2.87566270174864        0.16108489940814        0.13197523049054
C           -0.95584767012168       -2.84787530384219        0.61246985378822
H           -0.86250484884106       -5.50726134588106       -1.49499487376439
H           -1.86026036134339       -3.82521228146012       -3.01478432844181
H           -2.27532002148050       -1.53062837136276       -2.22395909618247
H            0.90686019225736       -1.63756358163420       -0.40172400639336
H            3.23762904517390       -1.95537374478109        0.04118522310990
H            6.55586786546912       -1.07445429739016        1.45348494453480
H            5.29544048917398       -2.18711875576436        0.87154493390127
H            4.70348316992663       -0.56388589927870       -0.92124807059409
H            6.38331898845426       -1.09679849184753       -1.05212048978246
H            7.21268633907695        1.03040420179340       -0.41017077813607
H            5.77346215973851        1.38969403444844        0.54927959561621
H            5.74973744115731        1.29277228397682       -2.50019698158484
H            6.00249636586493        2.77207829865235       -1.55970512405529
H            4.20373881328217       -0.09699025600395       -3.39426662510924
H            2.14200939200053       -1.10365613385165       -4.26145509918197
H           -0.05722076324190       -0.37670433416586       -3.47345773296416
H           -0.25831983434182        1.40616969212579       -1.76171683764481
H            0.20568035312627        3.31558711193613        0.13995645859296
H            1.22869886868010        4.97976707901193        1.66378750776715
H            3.65914257856021        5.24070527837948        1.77841178675731
H            5.15456786639117        3.86923280753036        0.39262753388655
H            3.17386487429893        1.23560064237800        2.90352785760108
H            0.75143965737328        1.52412120453858        2.50309747543621
H           -2.08999034349106        3.83784732359839        1.72265267784465
H           -3.67595292957085        5.76012209562989        1.68929046022855
H           -5.91397114884082        5.45086146992006        0.68500483394268
H           -6.59165531780096        3.30487714823387       -0.20226760339161
H           -7.19836643031883        1.46688058212113       -0.53674653391062
H           -7.90136637037861       -0.75225647837438       -1.21829144609044
H           -6.28925433851314       -2.63561339591507       -1.19677802818795
H           -3.96916702230595       -2.24490239936403       -0.56014959904349
H           -0.70800074011810       -2.57720864870243        1.62746820155949

          :  Hamiltonian                  GFN2-xTB          :
         :: gradient norm              0.000046387455 Eh/a0 ::
         :: HOMO-LUMO gap              0.525391812313 eV    ::
         :: SCC energy              -139.824078670475 Eh    ::
         :: -> dispersion             -0.128863880204 Eh    ::
         :: -> Gsolv                  -0.046759114589 Eh    ::
         :: repulsion energy           2.173164125705 Eh    ::

    * Orbital Energies and Occupations

         #    Occupation            Energy/Eh            Energy/eV
      -------------------------------------------------------------
         1        2.0000           -0.8852451             -24.0887
       ...           ...                  ...                  ...
       114        2.0000           -0.4184390             -11.3863
       115        2.0000           -0.4163235             -11.3287
       116        2.0000           -0.4147173             -11.2850
       117        2.0000           -0.4125403             -11.2258
       118        2.0000           -0.4048159             -11.0156
       119        2.0000           -0.4005092             -10.8984
       120        2.0000           -0.3929544             -10.6928
       121        2.0000           -0.3875570             -10.5460
       122        2.0000           -0.3838185             -10.4442
       123        2.0000           -0.3781666             -10.2904
       124        1.9217           -0.3640331              -9.9058
       125        1.0783           -0.3593492              -9.7784
       126        1.0000           -0.2774383              -7.5495 (HOMO)
       127        0.0000           -0.2581307              -7.0241 (LUMO)
       128        0.0000           -0.2537838              -6.9058
       129                         -0.2490591              -6.7772
       130                         -0.2451256              -6.6702
       131                         -0.2423631              -6.5950
       132                         -0.2281847              -6.2092
       133                         -0.2212325              -6.0200
       134                         -0.2125149              -5.7828
       135                         -0.1950369              -5.3072
       136                         -0.1947486              -5.2994
       137                         -0.1864303              -5.0730
       ...                                ...                  ...
       236                          0.7459358              20.2979
      -------------------------------------------------------------
                  HL-Gap            0.0193076 Eh            0.5254 eV

     #   Z          covCN         q      C6AA      α(0)
     1   9 F        0.791    -0.218    11.427     3.993
     2   6 C        3.337     0.484    17.284     6.581
     3   9 F        0.791    -0.221    11.453     3.998
     4   9 F        0.791    -0.227    11.515     4.008
     5   6 C        2.974    -0.033    28.809     8.804
     6   6 C        2.918    -0.043    29.076     8.842
     7   6 C        2.917    -0.025    28.638     8.776
     8   6 C        2.918    -0.040    28.982     8.828
     9   6 C        2.907     0.059    26.678     8.469
    10   7 N        2.805    -0.061    22.412     7.031
    11   6 C        3.129     0.123    25.112     8.204
    12   6 C        2.968    -0.006    28.176     8.707
    13   6 C        2.916    -0.043    29.063     8.840
    14   6 C        2.911    -0.060    29.497     8.906
    15   6 C        2.858     0.145    24.839     8.169
    16   8 O        1.705    -0.265    18.385     5.789
    17   6 C        3.690     0.072    19.550     6.328
    18   6 C        3.800    -0.071    21.862     6.657
    19   6 C        3.802    -0.067    21.775     6.644
    20   6 C        3.740    -0.005    20.743     6.498
    21   7 N        2.796    -0.039    21.987     6.964
    22   6 C        3.078     0.044    26.924     8.507
    23   6 C        2.910    -0.054    29.334     8.881
    24   6 C        2.923    -0.036    28.904     8.816
    25   6 C        2.920    -0.043    29.062     8.840
    26   6 C        2.912    -0.031    28.777     8.796
    27   6 C        3.071    -0.019    28.397     8.737
    28   6 C        3.068    -0.019    28.401     8.738
    29   6 C        2.912    -0.030    28.755     8.793
    30   6 C        2.920    -0.039    28.970     8.826
    31   6 C        2.923    -0.034    28.856     8.809
    32   6 C        2.910    -0.051    29.275     8.872
    33   6 C        3.084     0.045    26.904     8.503
    34   6 C        2.912    -0.050    29.247     8.868
    35   6 C        2.926    -0.030    28.740     8.792
    36   7 N        1.877    -0.302    28.684     7.939
    37   6 C        3.158     0.084    25.845     8.312
    38   6 C        2.983    -0.005    28.131     8.700
    39   6 C        2.922    -0.028    28.704     8.786
    40   6 C        2.915    -0.031    28.780     8.797
    41   6 C        2.917    -0.027    28.686     8.783
    42   6 C        2.922    -0.036    28.889     8.814
    43   6 C        2.977     0.001    27.990     8.678
    44   6 C        2.976    -0.003    28.094     8.694
    45   6 C        2.919    -0.033    28.823     8.804
    46   6 C        2.915    -0.035    28.867     8.810
    47   6 C        2.913    -0.031    28.778     8.797
    48   6 C        2.917    -0.041    29.010     8.832
    49   6 C        2.971    -0.012    28.314     8.728
    50   6 C        3.025     0.033    27.231     8.560
    51   6 C        2.921    -0.042    29.044     8.838
    52   1 H        0.926     0.051     2.309     2.376
    53   1 H        0.926     0.058     2.219     2.329
    54   1 H        0.926     0.053     2.279     2.361
    55   1 H        0.926     0.033     2.543     2.494
    56   1 H        0.926     0.045     2.388     2.417
    57   1 H        0.924     0.064     2.147     2.292
    58   1 H        0.924     0.040     2.442     2.444
    59   1 H        0.924     0.053     2.285     2.364
    60   1 H        0.924     0.051     2.302     2.373
    61   1 H        0.924     0.053     2.280     2.361
    62   1 H        0.924     0.057     2.232     2.336
    63   1 H        0.924     0.061     2.193     2.316
    64   1 H        0.924     0.058     2.220     2.330
    65   1 H        0.926     0.035     2.510     2.477
    66   1 H        0.926     0.033     2.548     2.496
    67   1 H        0.926     0.025     2.652     2.547
    68   1 H        0.926     0.019     2.753     2.595
    69   1 H        0.926     0.036     2.498     2.471
    70   1 H        0.926     0.031     2.572     2.508
    71   1 H        0.926     0.034     2.534     2.490
    72   1 H        0.926     0.036     2.501     2.473
    73   1 H        0.926     0.053     2.279     2.361
    74   1 H        0.926     0.061     2.192     2.315
    75   1 H        0.926     0.049     2.326     2.385
    76   1 H        0.926     0.039     2.458     2.452
    77   1 H        0.926     0.039     2.457     2.451
    78   1 H        0.926     0.040     2.447     2.446
    79   1 H        0.926     0.040     2.454     2.450
    80   1 H        0.926     0.034     2.524     2.484
    81   1 H        0.926     0.033     2.551     2.498
    82   1 H        0.926     0.032     2.564     2.504
    83   1 H        0.926     0.045     2.379     2.412

molecular dipole:
                 x           y           z       tot (Debye)
 q only:        1.736       1.997      -1.666
   full:        1.557       1.443      -1.820       7.108

 projected vibrational frequencies (cm⁻¹)
eigval :       -0.00    -0.00    -0.00     0.00     0.00     0.00
eigval :        7.99    13.74    16.16    20.29    22.89    23.40
eigval :       28.76    35.80    50.62    52.37    59.25    69.90
eigval :       73.66    92.42    96.93   107.87   108.90   111.62
eigval :      132.66   148.41   151.05   161.59   183.90   188.29
eigval :      198.32   206.98   207.48   218.49   231.35   242.55
eigval :      257.38   271.33   275.15   279.39   289.18   302.39
eigval :      311.56   318.96   329.24   336.08   350.02   379.61
eigval :      385.55   390.46   394.39   396.74   402.87   406.58
eigval :      422.91   427.11   428.10   434.60   447.09   461.24
eigval :      466.72   477.46   484.05   496.51   517.64   521.45
eigval :      524.77   530.28   538.82   544.05   555.25   577.56
eigval :      579.27   583.22   584.88   590.92   592.09   603.63
eigval :      610.93   633.58   647.47   651.40   659.28   663.72
eigval :      668.04   672.98   680.01   704.28   708.99   720.00
eigval :      721.11   743.18   756.15   760.04   762.68   769.85
eigval :      770.36   774.00   777.92   794.10   798.34   818.47
eigval :      827.17   839.28   842.66   855.76   860.96   861.76
eigval :      865.08   877.32   883.93   885.84   898.32   898.96
eigval :      900.39   907.94   909.36   910.64   913.61   915.04
eigval :      918.69   919.52   923.30   926.27   940.54   968.33
eigval :      971.48   979.04   982.10   993.34  1003.31  1021.86
eigval :     1031.08  1043.56  1060.28  1070.48  1073.85  1075.05
eigval :     1079.75  1081.61  1085.78  1088.27  1101.03  1114.45
eigval :     1125.00  1131.51  1132.39  1148.59  1149.68  1156.20
eigval :     1164.51  1171.54  1176.34  1176.99  1179.32  1181.44
eigval :     1185.14  1187.93  1197.32  1204.00  1221.97  1226.31
eigval :     1230.39  1234.17  1242.14  1244.90  1248.60  1259.66
eigval :     1265.19  1271.48  1276.55  1297.78  1300.31  1307.74
eigval :     1316.66  1318.48  1320.10  1322.74  1328.69  1332.98
eigval :     1336.71  1345.96  1354.07  1359.87  1365.41  1367.96
eigval :     1370.11  1386.31  1397.37  1401.86  1409.33  1419.64
eigval :     1425.19  1435.12  1435.94  1437.96  1456.20  1460.56
eigval :     1462.29  1468.49  1469.96  1472.56  1474.26  1474.76
eigval :     1486.68  1489.49  1498.49  1538.54  1549.14  1552.78
eigval :     1562.77  1566.43  1569.34  1585.62  1589.43  1592.22
eigval :     1610.97  2912.07  2952.55  2973.57  2983.86  2990.78
eigval :     2999.96  3001.90  3014.07  3072.32  3072.82  3075.02
eigval :     3075.55  3076.53  3081.23  3082.21  3086.98  3088.03
eigval :     3090.29  3091.12  3091.65  3097.45  3098.07  3099.09
eigval :     3099.58  3099.87  3101.61  3104.69  3109.07  3114.07
eigval :     3121.67  3124.84  3129.44

   temp. (K)  partition function   enthalpy   heat capacity  entropy
                                   cal/mol     cal/K/mol   cal/K/mol   J/K/mol
 298.15  VIB  0.314E+20            24521.249    153.537    152.491
         ROT  0.716E+08              888.752      2.981     38.925
         INT  0.225E+28            25410.002    156.518    191.416
         TR   0.170E+29             1481.254      4.968     45.393
         TOT                       26891.2556   161.4864   236.8084   990.8063

       T/K    H(0)-H(T)+PV         H(T)/Eh          T*S/Eh         G(T)/Eh
   ------------------------------------------------------------------------
    298.15    0.428539E-01    0.671242E+00    0.112515E+00    0.558727E+00
   ------------------------------------------------------------------------

         :::::::::::::::::::::::::::::::::::::::::::::::::::::
         ::                  THERMODYNAMIC                  ::
         :::::::::::::::::::::::::::::::::::::::::::::::::::::
         :: total free energy        -137.092187971853 Eh   ::
         ::.................................................::
         :: total energy             -137.650914544671 Eh   ::
         :: zero point energy           0.628387938054 Eh   ::
         :: G(RRHO) w/o ZPVE           -0.069661365236 Eh   ::
         :: G(RRHO) contrib.            0.558726572818 Eh   ::
         :::::::::::::::::::::::::::::::::::::::::::::::::::::

           -------------------------------------------------
          | TOTAL ENERGY             -137.650914544671 Eh   |
          | TOTAL ENTHALPY           -136.979672663121 Eh   |
          | TOTAL FREE ENERGY        -137.092187971853 Eh   |
          | GRADIENT NORM               0.000046186804 Eh/α |
          | HOMO-LUMO GAP               0.525387328005 eV   |
           -------------------------------------------------

 * finished run on 2025/09/13 at 03:36:24.713
