   * xtb version 6.7.1 (edcfbbe) compiled by 'albert@albert-system' on 2024-07-22

   ID    Z sym.   atoms
    1    9 F      1, 3, 4
    2    6 C      2, 5-9, 11-15, 17-20, 22-35, 37-51
    3    7 N      10, 21, 36
    4    8 O      16
    5    1 H      52-83

          program call               : xtb data2507/toluene/PICFOCz/PICFOCz_toluene_S0_finalOpt.xtbopt.xyz --gfn 2 --uhf 2 --gbsa toluene --ohess vtight --parallel 40 --molden --ceasefiles --namespace data2507/toluene/PICFOCz/PICFOCz_toluene_T1_preOpt
      * Solvation model:               GBSA
        Solvent                        toluene
        Solvent mass                       9.2140E+01 g/mol
          :  Hamiltonian                  GFN2-xTB          :
 * total energy  :  -137.6409807 Eh     change       -0.1555404E-07 Eh
 * total energy  :  -137.6463180 Eh     change       -0.5337351E-02 Eh
 * total energy  :  -137.6485857 Eh     change       -0.2267658E-02 Eh
 * total energy  :  -137.6490631 Eh     change       -0.4773852E-03 Eh
 * total energy  :  -137.6495922 Eh     change       -0.5290980E-03 Eh
 * total energy  :  -137.6498432 Eh     change       -0.2510586E-03 Eh
 * total energy  :  -137.6500292 Eh     change       -0.1859414E-03 Eh
 * total energy  :  -137.6501553 Eh     change       -0.1260945E-03 Eh
 * total energy  :  -137.6502660 Eh     change       -0.1107458E-03 Eh
 * total energy  :  -137.6503561 Eh     change       -0.9011778E-04 Eh
 * total energy  :  -137.6508561 Eh     change       -0.2845726E-06 Eh
 * total energy  :  -137.6508563 Eh     change       -0.1799416E-06 Eh
 * total energy  :  -137.6508565 Eh     change       -0.1761273E-06 Eh
 * total energy  :  -137.6508567 Eh     change       -0.2337416E-06 Eh
 * total energy  :  -137.6508570 Eh     change       -0.2642319E-06 Eh
 * total energy  :  -137.6508572 Eh     change       -0.2685857E-06 Eh
 * total energy  :  -137.6508575 Eh     change       -0.3074200E-06 Eh
 * total energy  :  -137.6508578 Eh     change       -0.2162979E-06 Eh
 * total energy  :  -137.6508579 Eh     change       -0.9633661E-07 Eh
   *** GEOMETRY OPTIMIZATION CONVERGED AFTER 67 ITERATIONS ***

 final structure:
================
83
 xtb: 6.7.1 (edcfbbe)
F           -0.86732400170257       -6.35508991039459        0.77101738291479
C           -0.41119018659154       -5.10771891476009        0.99240578604881
F           -0.63719536074061       -4.85760097712094        2.29514394032184
F            0.93685468171374       -5.19465742447760        0.87226127837382
C           -1.00059207854538       -4.08544829549711        0.07267846864754
C           -1.34551073425108       -4.45264219276534       -1.22809932649755
C           -1.86282332898514       -3.48243191445060       -2.08138052951174
C           -2.02525107643864       -2.18381084684858       -1.65618001455781
C           -1.67309746370149       -1.81396172478802       -0.34538300174649
N           -1.79503258996982       -0.50224699800972        0.08602013301328
C           -0.78547846518192        0.23033138155677        0.76763205674998
C            0.55546427554910       -0.14169641371083        0.97339625456862
C            1.25353069522457       -1.12707124116153        0.23039613239996
C            2.57503894806534       -1.40281762247904        0.47713661187088
C            3.27697608631321       -0.71369351033818        1.47315853871296
O            4.57715593364849       -0.90495012037680        1.80445840503884
C            5.43045445642048       -1.64020399007318        0.94314177848711
C            5.66664599472347       -0.91247969121191       -0.38373587219451
C            6.25596603693052        0.48326045615712       -0.16158993964688
C            5.82461861506010        1.46962595907631       -1.25567779934819
N            4.41442277264559        1.75227510315127       -1.18600341621311
C            3.42240398474512        1.19184486211125       -1.95442202484181
C            3.51211575699047        0.31366184353994       -3.02858619842438
C            2.33976893729611       -0.08450249771417       -3.64192258471378
C            1.09825875548692        0.37648853448001       -3.20926777373104
C            0.99909248195200        1.25256357411444       -2.14529037206358
C            2.16193572316620        1.66404111189894       -1.51109064636232
C            2.42405066348039        2.54917291838936       -0.41226044812860
C            1.60960651754608        3.30462792034476        0.41890910438643
C            2.20530090549049        4.07708691460738        1.39790146154170
C            3.58980344289153        4.09920164266942        1.55181853879089
C            4.41937682610838        3.34927706138891        0.73983895974461
C            3.82900397146831        2.56940667498808       -0.24662430424374
C            2.60052266640867        0.27640520998023        2.21378942205957
C            1.29224673540783        0.56422472301254        1.96468324274074
N           -1.24628395752441        1.44226296151410        1.13314027367966
C           -2.47593684681993        1.54862160899624        0.66345558735535
C           -3.32810638888307        2.69000587324645        0.71230908230599
C           -2.87761392759515        3.89836611591713        1.24934877286023
C           -3.68897739731677        5.01491008327729        1.23622336092220
C           -4.95260393675982        4.92559686552733        0.67170502842738
C           -5.41305268983099        3.72813718782197        0.14995942409680
C           -4.62807616282068        2.57124290547625        0.16801664964302
C           -5.10659005502908        1.27885542566996       -0.30787955299287
C           -6.43269821240857        1.09332947781758       -0.68681162296104
C           -6.92541562290295       -0.13734192388821       -1.08505543927356
C           -6.08804127094183       -1.25277351446916       -1.08468808598370
C           -4.77310869854933       -1.12023818280292       -0.72867030733316
C           -4.22891745962404        0.13751537765946       -0.35813782718580
C           -2.89749858374067        0.32860779708781        0.02538752238842
C           -1.15345010590891       -2.78714136213741        0.52050583937633
H           -1.21440139819981       -5.47018941087446       -1.55773150121088
H           -2.12771939847741       -3.75277176542997       -3.09164075505108
H           -2.40974504417088       -1.43052284307517       -2.32690993583194
H            0.76802714252741       -1.63344168264474       -0.58659509478781
H            3.05732132900150       -2.16512808306233       -0.11435825309314
H            6.36453899578516       -1.72539540036937        1.50442764534915
H            5.03313199664559       -2.64673711109960        0.76756394627974
H            4.70870049261276       -0.81799158294061       -0.89622851482570
H            6.32686662432314       -1.52054570796233       -1.00267124018553
H            7.34486136041226        0.43591213200026       -0.13048011409470
H            5.90477382674330        0.86418404802514        0.79931949225034
H            6.05182225917723        1.06237418272005       -2.24260759610086
H            6.37274122037936        2.40939895651112       -1.13791416461716
H            4.46305189030061       -0.05281514742775       -3.38508195785339
H            2.38646743553208       -0.76693278797111       -4.47806127859364
H            0.20600007269806        0.04569703381159       -3.72022507862038
H            0.03974354804928        1.61714229438085       -1.80881016453945
H            0.53669546711714        3.27133707198790        0.30859384772849
H            1.59275936234139        4.67356084735010        2.05775273977467
H            4.02492919611257        4.71456249906601        2.32603998933758
H            5.48971741787806        3.37787050353593        0.87528800091612
H            3.15130755541049        0.80365862812500        2.97687475943552
H            0.77773479983367        1.32742481867108        2.52468839773999
H           -1.88192462822749        3.92839040371607        1.66379032767769
H           -3.34050968631020        5.94840458161917        1.65178297492291
H           -5.59097213323006        5.79661571787357        0.63919235628341
H           -6.40166163820215        3.71109144745081       -0.27974904924407
H           -7.11942554014528        1.92397229289094       -0.65920880253913
H           -7.96100843389074       -0.23597115844535       -1.37278691103812
H           -6.47845252598235       -2.22264934922851       -1.35602906673688
H           -4.14374861341673       -1.99370271024783       -0.69448113274786
H           -0.88823316732204       -2.52062472862464        1.53206979487498

          :  Hamiltonian                  GFN2-xTB          :
         :: gradient norm              0.000115110681 Eh/a0 ::
         :: HOMO-LUMO gap              0.525996806936 eV    ::
         :: SCC energy              -139.823732722704 Eh    ::
         :: -> dispersion             -0.127593057321 Eh    ::
         :: -> Gsolv                  -0.047419069185 Eh    ::
         :: repulsion energy           2.172874860459 Eh    ::

    * Orbital Energies and Occupations

         #    Occupation            Energy/Eh            Energy/eV
      -------------------------------------------------------------
         1        2.0000           -0.8851141             -24.0852
       ...           ...                  ...                  ...
       114        2.0000           -0.4185874             -11.3903
       115        2.0000           -0.4163104             -11.3284
       116        2.0000           -0.4148965             -11.2899
       117        2.0000           -0.4126150             -11.2278
       118        2.0000           -0.4046788             -11.0119
       119        2.0000           -0.4002692             -10.8919
       120        2.0000           -0.3927413             -10.6870
       121        2.0000           -0.3875646             -10.5462
       122        2.0000           -0.3840865             -10.4515
       123        2.0000           -0.3781601             -10.2903
       124        1.9103           -0.3640016              -9.9050
       125        1.0897           -0.3595977              -9.7852
       126        1.0000           -0.2771737              -7.5423 (HOMO)
       127        0.0000           -0.2578438              -7.0163 (LUMO)
       128        0.0000           -0.2536277              -6.9016
       129                         -0.2489301              -6.7737
       130                         -0.2450812              -6.6690
       131                         -0.2419363              -6.5834
       132                         -0.2284900              -6.2175
       133                         -0.2211643              -6.0182
       134                         -0.2125800              -5.7846
       135                         -0.1950669              -5.3080
       136                         -0.1946008              -5.2954
       137                         -0.1864056              -5.0724
       ...                                ...                  ...
       236                          0.7460241              20.3003
      -------------------------------------------------------------
                  HL-Gap            0.0193299 Eh            0.5260 eV

     #   Z          covCN         q      C6AA      α(0)
     1   9 F        0.791    -0.219    11.430     3.994
     2   6 C        3.337     0.484    17.286     6.581
     3   9 F        0.791    -0.221    11.451     3.997
     4   9 F        0.791    -0.227    11.516     4.009
     5   6 C        2.974    -0.033    28.808     8.804
     6   6 C        2.918    -0.044    29.082     8.843
     7   6 C        2.917    -0.026    28.646     8.777
     8   6 C        2.918    -0.040    29.003     8.831
     9   6 C        2.907     0.058    26.690     8.471
    10   7 N        2.805    -0.061    22.409     7.031
    11   6 C        3.133     0.123    25.102     8.202
    12   6 C        2.968    -0.007    28.181     8.708
    13   6 C        2.916    -0.042    29.044     8.837
    14   6 C        2.911    -0.060    29.503     8.907
    15   6 C        2.858     0.145    24.836     8.169
    16   8 O        1.705    -0.265    18.391     5.790
    17   6 C        3.690     0.072    19.550     6.328
    18   6 C        3.800    -0.071    21.852     6.656
    19   6 C        3.802    -0.067    21.779     6.644
    20   6 C        3.740    -0.005    20.742     6.498
    21   7 N        2.796    -0.038    21.977     6.963
    22   6 C        3.078     0.044    26.925     8.507
    23   6 C        2.910    -0.053    29.328     8.880
    24   6 C        2.923    -0.036    28.900     8.816
    25   6 C        2.920    -0.042    29.049     8.838
    26   6 C        2.912    -0.031    28.780     8.797
    27   6 C        3.071    -0.019    28.395     8.737
    28   6 C        3.069    -0.019    28.400     8.738
    29   6 C        2.912    -0.030    28.756     8.793
    30   6 C        2.920    -0.039    28.964     8.826
    31   6 C        2.923    -0.034    28.855     8.809
    32   6 C        2.910    -0.051    29.267     8.871
    33   6 C        3.084     0.045    26.900     8.502
    34   6 C        2.913    -0.050    29.246     8.868
    35   6 C        2.925    -0.029    28.731     8.790
    36   7 N        1.876    -0.302    28.686     7.939
    37   6 C        3.160     0.083    25.842     8.310
    38   6 C        2.983    -0.004    28.125     8.699
    39   6 C        2.922    -0.028    28.705     8.786
    40   6 C        2.915    -0.031    28.781     8.797
    41   6 C        2.917    -0.027    28.686     8.783
    42   6 C        2.922    -0.036    28.890     8.814
    43   6 C        2.977     0.002    27.987     8.678
    44   6 C        2.976    -0.003    28.096     8.695
    45   6 C        2.919    -0.033    28.824     8.804
    46   6 C        2.915    -0.035    28.871     8.811
    47   6 C        2.913    -0.031    28.778     8.797
    48   6 C        2.917    -0.041    29.016     8.833
    49   6 C        2.971    -0.012    28.311     8.728
    50   6 C        3.025     0.033    27.242     8.561
    51   6 C        2.921    -0.042    29.054     8.839
    52   1 H        0.926     0.050     2.316     2.380
    53   1 H        0.926     0.058     2.220     2.330
    54   1 H        0.926     0.054     2.274     2.358
    55   1 H        0.926     0.033     2.544     2.494
    56   1 H        0.926     0.045     2.389     2.417
    57   1 H        0.924     0.064     2.149     2.292
    58   1 H        0.924     0.040     2.446     2.446
    59   1 H        0.924     0.052     2.294     2.369
    60   1 H        0.924     0.051     2.304     2.373
    61   1 H        0.924     0.053     2.279     2.361
    62   1 H        0.924     0.058     2.228     2.334
    63   1 H        0.924     0.061     2.191     2.315
    64   1 H        0.924     0.058     2.220     2.330
    65   1 H        0.926     0.036     2.509     2.477
    66   1 H        0.926     0.033     2.546     2.495
    67   1 H        0.926     0.026     2.650     2.546
    68   1 H        0.926     0.020     2.732     2.585
    69   1 H        0.926     0.038     2.482     2.464
    70   1 H        0.926     0.031     2.570     2.507
    71   1 H        0.926     0.034     2.535     2.490
    72   1 H        0.926     0.036     2.501     2.473
    73   1 H        0.926     0.053     2.278     2.360
    74   1 H        0.926     0.060     2.201     2.320
    75   1 H        0.926     0.049     2.328     2.386
    76   1 H        0.926     0.039     2.458     2.452
    77   1 H        0.926     0.039     2.457     2.451
    78   1 H        0.926     0.040     2.447     2.446
    79   1 H        0.926     0.039     2.456     2.451
    80   1 H        0.926     0.034     2.526     2.485
    81   1 H        0.926     0.032     2.551     2.498
    82   1 H        0.926     0.032     2.557     2.501
    83   1 H        0.926     0.045     2.387     2.416

molecular dipole:
                 x           y           z       tot (Debye)
 q only:        1.904       1.892      -1.568
   full:        1.694       1.362      -1.737       7.074

 projected vibrational frequencies (cm⁻¹)
eigval :       -0.00    -0.00     0.00     0.00     0.00     0.00
eigval :        8.31    12.04    15.83    18.62    21.38    22.48
eigval :       29.91    35.87    45.09    52.32    56.35    69.47
eigval :       74.93    92.58    97.33   107.22   108.48   111.01
eigval :      131.83   146.35   150.31   159.11   183.89   188.05
eigval :      197.13   206.57   207.84   218.76   229.14   243.45
eigval :      256.32   272.00   274.31   280.00   289.75   301.41
eigval :      310.51   320.57   330.10   336.14   350.45   380.00
eigval :      387.45   390.43   393.54   395.86   403.02   406.80
eigval :      422.20   426.50   428.23   434.13   447.40   461.02
eigval :      467.59   477.46   483.87   497.21   517.76   521.81
eigval :      524.78   530.12   538.73   543.84   555.24   578.35
eigval :      578.97   583.62   584.85   591.19   591.66   603.21
eigval :      610.04   633.44   647.09   651.47   658.58   663.24
eigval :      668.02   673.19   680.08   703.87   709.10   720.27
eigval :      721.37   745.67   756.30   759.85   762.09   769.40
eigval :      770.13   773.69   775.86   795.78   799.18   818.79
eigval :      828.02   839.43   843.85   852.36   861.43   862.35
eigval :      862.95   874.72   884.51   889.09   897.89   898.14
eigval :      899.30   907.24   907.76   908.89   913.58   914.73
eigval :      917.48   920.42   922.53   925.91   940.59   968.80
eigval :      971.73   979.34   982.13   993.46  1003.20  1021.88
eigval :     1030.97  1044.01  1060.44  1070.47  1074.11  1075.42
eigval :     1079.90  1081.98  1086.14  1088.90  1101.07  1113.70
eigval :     1124.98  1130.35  1131.64  1149.11  1149.52  1156.67
eigval :     1164.62  1172.12  1176.25  1177.04  1179.20  1181.53
eigval :     1185.58  1187.42  1197.00  1205.79  1221.63  1226.53
eigval :     1230.59  1233.61  1241.68  1244.98  1248.20  1260.50
eigval :     1265.00  1271.02  1276.94  1298.08  1299.24  1307.59
eigval :     1316.53  1318.34  1320.46  1322.33  1327.75  1332.54
eigval :     1335.95  1345.61  1354.05  1359.99  1364.85  1367.49
eigval :     1368.83  1386.10  1396.18  1401.26  1409.91  1419.19
eigval :     1425.17  1434.97  1435.56  1437.19  1455.99  1460.46
eigval :     1462.26  1468.73  1470.15  1472.21  1474.15  1474.90
eigval :     1486.55  1489.17  1498.56  1537.75  1548.70  1552.31
eigval :     1562.11  1565.33  1569.10  1585.42  1588.70  1592.33
eigval :     1610.75  2913.67  2951.35  2973.38  2984.79  2991.95
eigval :     2999.63  3002.35  3011.38  3071.35  3072.82  3074.58
eigval :     3075.44  3076.60  3081.37  3082.19  3085.97  3087.86
eigval :     3090.37  3090.70  3091.45  3097.39  3097.86  3099.96
eigval :     3100.10  3100.86  3101.59  3104.49  3109.36  3114.11
eigval :     3118.57  3123.94  3124.51

   temp. (K)  partition function   enthalpy   heat capacity  entropy
                                   cal/mol     cal/K/mol   cal/K/mol   J/K/mol
 298.15  VIB  0.485E+20            24548.531    153.394    152.876
         ROT  0.730E+08              888.752      2.981     38.961
         INT  0.354E+28            25437.283    156.375    191.837
         TR   0.170E+29             1481.254      4.968     45.393
         TOT                       26918.5370   161.3435   237.2301   992.5707

       T/K    H(0)-H(T)+PV         H(T)/Eh          T*S/Eh         G(T)/Eh
   ------------------------------------------------------------------------
    298.15    0.428974E-01    0.671170E+00    0.112716E+00    0.558454E+00
   ------------------------------------------------------------------------

         :::::::::::::::::::::::::::::::::::::::::::::::::::::
         ::                  THERMODYNAMIC                  ::
         :::::::::::::::::::::::::::::::::::::::::::::::::::::
         :: total free energy        -137.092403860280 Eh   ::
         ::.................................................::
         :: total energy             -137.650857864374 Eh   ::
         :: zero point energy           0.628272260183 Eh   ::
         :: G(RRHO) w/o ZPVE           -0.069818256089 Eh   ::
         :: G(RRHO) contrib.            0.558454004094 Eh   ::
         :::::::::::::::::::::::::::::::::::::::::::::::::::::

           -------------------------------------------------
          | TOTAL ENERGY             -137.650857864374 Eh   |
          | TOTAL ENTHALPY           -136.979688184950 Eh   |
          | TOTAL FREE ENERGY        -137.092403860280 Eh   |
          | GRADIENT NORM               0.000115050929 Eh/α |
          | HOMO-LUMO GAP               0.525994665738 eV   |
           -------------------------------------------------

 * finished run on 2025/09/13 at 03:16:17.235
