   * xtb version 6.7.1 (edcfbbe) compiled by 'albert@albert-system' on 2024-07-22

   ID    Z sym.   atoms
    1    6 C      1, 3-18, 20-22, 24-31, 33, 34
    2    8 O      2, 19, 23, 32
    3    1 H      35-60

          program call               : xtb data2507/toluene/DMPA/DMPA_toluene_S0_crest.xyz --gfn 2 --gbsa toluene --ohess vtight --parallel 40 --molden --ceasefiles --namespace data2507/toluene/DMPA/DMPA_toluene_S0_finalOpt
      * Solvation model:               GBSA
        Solvent                        toluene
        Solvent mass                       9.2140E+01 g/mol
          :  Hamiltonian                  GFN2-xTB          :
 * total energy  :   -93.8069715 Eh     change       -0.1431459E-08 Eh
 * total energy  :   -93.8070248 Eh     change       -0.5334843E-04 Eh
 * total energy  :   -93.8070468 Eh     change       -0.2201910E-04 Eh
 * total energy  :   -93.8070502 Eh     change       -0.3338924E-05 Eh
 * total energy  :   -93.8070548 Eh     change       -0.4581574E-05 Eh
 * total energy  :   -93.8070603 Eh     change       -0.5579688E-05 Eh
 * total energy  :   -93.8070657 Eh     change       -0.5379553E-05 Eh
 * total energy  :   -93.8070694 Eh     change       -0.3693335E-05 Eh
 * total energy  :   -93.8070721 Eh     change       -0.2713293E-05 Eh
 * total energy  :   -93.8070750 Eh     change       -0.2845522E-05 Eh
 * total energy  :   -93.8070984 Eh     change       -0.1644393E-06 Eh
 * total energy  :   -93.8070986 Eh     change       -0.2353892E-06 Eh
 * total energy  :   -93.8070989 Eh     change       -0.3068523E-06 Eh
 * total energy  :   -93.8070992 Eh     change       -0.2948424E-06 Eh
 * total energy  :   -93.8070995 Eh     change       -0.2887543E-06 Eh
 * total energy  :   -93.8070998 Eh     change       -0.2914721E-06 Eh
 * total energy  :   -93.8071001 Eh     change       -0.2406543E-06 Eh
 * total energy  :   -93.8071002 Eh     change       -0.1364744E-06 Eh
 * total energy  :   -93.8071002 Eh     change       -0.5188441E-07 Eh
   *** GEOMETRY OPTIMIZATION CONVERGED AFTER 33 ITERATIONS ***

 final structure:
================
60
 xtb: 6.7.1 (edcfbbe)
C            7.78550927747613       -0.22701563287017       -1.40167646023162
O            7.04593638701225       -0.00604672783853       -0.22006951315083
C            5.68243925005033       -0.04608692313589       -0.28737096612966
C            4.94568343664548       -0.28348455064279       -1.43808043990492
C            3.56047600180725       -0.29529496629723       -1.36412871479081
C            2.89205939402116       -0.07502056518957       -0.17426514185393
C            1.41228563113291       -0.08205868099672       -0.10348185127580
C            0.71491446352968        1.12969615403574       -0.01123078713721
C            1.38749959996748        2.37991225596433       -0.01844829218239
C            0.70326830415134        3.55124524482426        0.08984011030022
C           -0.70100797579904        3.54475068934737        0.21605969773950
C           -1.38431302671820        2.36797525689568        0.21377665635538
C           -0.71117217923513        1.12460022667941        0.08514211894375
C           -1.40767885057988       -0.09094743843442        0.06147576701557
C           -2.88648403401721       -0.09487781286754        0.14996289228818
C           -3.53530647936972       -0.44496472268754        1.31962804899413
C           -4.91902236684077       -0.44771562226903        1.41658745008477
C           -5.67515522042345       -0.09439694247990        0.30892394343362
O           -7.03974956904578       -0.05747136149843        0.26678815412724
C           -7.75923970570385       -0.40167757437735        1.43123081606961
C           -5.03858549880118        0.25901449484718       -0.88303177876056
C           -3.65746533153217        0.26258498533569       -0.97123629608481
O           -2.95589656306416        0.58711381376621       -2.09351700956260
C           -3.66524201723182        0.99680454749978       -3.24092877000408
C           -0.71156329030919       -1.30195530914156       -0.04618811928574
C           -1.38703742566949       -2.55038358461024       -0.09410109810391
C           -0.70138391785375       -3.72264304517642       -0.18150337075847
C            0.70801072311940       -3.72012284284446       -0.22487296602682
C            1.39295718768641       -2.54461749395025       -0.19595851459388
C            0.71685542996528       -1.29800166487106       -0.11870193883178
C            3.64344783049419        0.15993901594729        0.99182258126117
O            2.92155070363421        0.35295175312032        2.13144006470064
C            3.61068988410118        0.60092125928710        3.33611055661271
C            5.02561924210243        0.17361030278288        0.92565400091506
H            7.56220890848826        0.52963074846912       -2.15979752166732
H            8.83132714367686       -0.14890932303640       -1.10881675087168
H            7.59521341284143       -1.22383226150905       -1.81071942671094
H            5.42439731249783       -0.45781896844151       -2.38755102774893
H            2.98298245762645       -0.47683772816984       -2.25883893649942
H            2.46353835862207        2.38262181578365       -0.11476916928516
H            1.22943742676745        4.49523971781009        0.08253003359638
H           -1.22762289794544        4.48348969575833        0.31331203039936
H           -2.46013221952282        2.36076505308810        0.31202484087032
H           -2.94240321359643       -0.71815813447759        2.18035434258844
H           -5.38164440080665       -0.72419278753056        2.34963268994464
H           -8.80997719883100       -0.30195178705501        1.16362432073911
H           -7.55707293698069       -1.43322879809546        1.73498719780188
H           -7.52786028901946        0.27657958860186        2.25802322492383
H           -5.66546179989484        0.52368745417331       -1.71864280477644
H           -4.31463424290557        0.19983933256663       -3.61597659397627
H           -4.26140209105338        1.89269556154714       -3.04238866687533
H           -2.90395550938391        1.22492647850431       -3.98515917676799
H           -2.46672391813365       -2.54916575177760       -0.05990205593563
H           -1.23034078610635       -4.66432729354473       -0.21715516804939
H            1.23738509654276       -4.66042914622599       -0.28333919981582
H            2.47257716951393       -2.53933462938584       -0.23100081263313
H            2.83647189312352        0.72394123599440        4.09171524618622
H            4.20770462492569        1.51588176516036        3.27403330102515
H            4.25604726801178       -0.23996498198949        3.60801476985773
H            5.63816070573865        0.34987495522855        1.79455295300828

          :  Hamiltonian                  GFN2-xTB          :
         :: gradient norm              0.000070421920 Eh/a0 ::
         :: HOMO-LUMO gap              2.149265907500 eV    ::
         :: SCC energy               -95.279960906277 Eh    ::
         :: -> dispersion             -0.075864965243 Eh    ::
         :: -> Gsolv                  -0.039290795385 Eh    ::
         :: repulsion energy           1.472860666238 Eh    ::

    * Orbital Energies and Occupations

         #    Occupation            Energy/Eh            Energy/eV
      -------------------------------------------------------------
         1        2.0000           -0.7177136             -19.5300
       ...           ...                  ...                  ...
        73        2.0000           -0.4317183             -11.7477
        74        2.0000           -0.4249153             -11.5625
        75        2.0000           -0.4208776             -11.4527
        76        2.0000           -0.4194656             -11.4142
        77        2.0000           -0.4103642             -11.1666
        78        2.0000           -0.4012719             -10.9192
        79        2.0000           -0.3997127             -10.8767
        80        2.0000           -0.3932581             -10.7011
        81        2.0000           -0.3899206             -10.6103
        82        2.0000           -0.3898265             -10.6077
        83        2.0000           -0.3735054             -10.1636
        84        2.0000           -0.3708690             -10.0919
        85        2.0000           -0.3526643              -9.5965 (HOMO)
        86                         -0.2736802              -7.4472 (LUMO)
        87                         -0.2254840              -6.1357
        88                         -0.2205305              -6.0009
        89                         -0.2200513              -5.9879
        90                         -0.2149894              -5.8502
        91                         -0.2114384              -5.7535
        92                         -0.2112959              -5.7497
        93                         -0.1701626              -4.6304
        94                         -0.1674116              -4.5555
        95                         -0.0935165              -2.5447
        96                         -0.0894961              -2.4353
       ...                                ...                  ...
       162                          0.7207127              19.6116
      -------------------------------------------------------------
                  HL-Gap            0.0789841 Eh            2.1493 eV

     #   Z          covCN         q      C6AA      α(0)
     1   6 C        3.642     0.035    20.334     6.483
     2   8 O        1.705    -0.289    18.804     5.855
     3   6 C        2.865     0.137    25.000     8.196
     4   6 C        2.914    -0.082    30.048     8.989
     5   6 C        2.925    -0.037    28.926     8.820
     6   6 C        2.975    -0.019    28.482     8.754
     7   6 C        2.977     0.003    27.961     8.674
     8   6 C        2.984     0.008    27.826     8.653
     9   6 C        2.917    -0.032    28.793     8.799
    10   6 C        2.914    -0.032    28.801     8.800
    11   6 C        2.914    -0.032    28.801     8.800
    12   6 C        2.917    -0.032    28.790     8.799
    13   6 C        2.984     0.008    27.825     8.653
    14   6 C        2.977     0.003    27.962     8.674
    15   6 C        2.975    -0.019    28.483     8.754
    16   6 C        2.925    -0.037    28.924     8.820
    17   6 C        2.914    -0.082    30.047     8.989
    18   6 C        2.865     0.137    25.000     8.196
    19   8 O        1.705    -0.289    18.804     5.855
    20   6 C        3.642     0.035    20.334     6.483
    21   6 C        2.917    -0.097    30.438     9.047
    22   6 C        2.867     0.140    24.947     8.187
    23   8 O        1.705    -0.283    18.705     5.839
    24   6 C        3.643     0.036    20.318     6.480
    25   6 C        2.984     0.006    27.880     8.661
    26   6 C        2.917    -0.035    28.860     8.809
    27   6 C        2.914    -0.032    28.804     8.801
    28   6 C        2.914    -0.032    28.804     8.801
    29   6 C        2.917    -0.035    28.859     8.809
    30   6 C        2.984     0.006    27.878     8.661
    31   6 C        2.867     0.140    24.947     8.187
    32   8 O        1.705    -0.283    18.705     5.839
    33   6 C        3.643     0.036    20.318     6.480
    34   6 C        2.917    -0.097    30.437     9.047
    35   1 H        0.924     0.047     2.359     2.402
    36   1 H        0.925     0.067     2.121     2.277
    37   1 H        0.924     0.047     2.359     2.402
    38   1 H        0.926     0.043     2.406     2.426
    39   1 H        0.926     0.041     2.429     2.437
    40   1 H        0.926     0.028     2.621     2.532
    41   1 H        0.926     0.030     2.591     2.517
    42   1 H        0.926     0.030     2.591     2.517
    43   1 H        0.926     0.028     2.620     2.531
    44   1 H        0.926     0.041     2.430     2.438
    45   1 H        0.926     0.043     2.406     2.425
    46   1 H        0.925     0.067     2.120     2.277
    47   1 H        0.924     0.047     2.359     2.402
    48   1 H        0.924     0.047     2.359     2.402
    49   1 H        0.926     0.050     2.314     2.379
    50   1 H        0.924     0.047     2.355     2.400
    51   1 H        0.924     0.047     2.355     2.400
    52   1 H        0.925     0.067     2.123     2.279
    53   1 H        0.926     0.030     2.592     2.518
    54   1 H        0.926     0.030     2.587     2.515
    55   1 H        0.926     0.030     2.587     2.515
    56   1 H        0.926     0.030     2.592     2.518
    57   1 H        0.925     0.067     2.124     2.279
    58   1 H        0.924     0.047     2.355     2.400
    59   1 H        0.924     0.047     2.354     2.399
    60   1 H        0.926     0.050     2.314     2.379

molecular dipole:
                 x           y           z       tot (Debye)
 q only:        0.000      -0.004       0.014
   full:        0.002      -0.015       0.017       0.058

 projected vibrational frequencies (cm⁻¹)
eigval :       -0.00     0.00     0.00     0.00     0.00     0.00
eigval :       19.29    19.48    22.48    29.37    44.94    55.10
eigval :       68.49    87.91    92.50    97.51   100.00   109.21
eigval :      127.58   146.74   151.25   151.54   156.61   180.98
eigval :      199.33   201.76   203.25   203.77   214.23   235.84
eigval :      238.83   264.74   266.30   276.22   283.32   340.97
eigval :      355.16   371.79   375.62   390.64   395.22   407.59
eigval :      427.33   431.40   440.52   449.63   454.66   461.11
eigval :      479.81   506.41   540.19   556.84   561.04   568.04
eigval :      576.77   580.47   598.27   606.74   608.94   640.65
eigval :      653.99   679.46   695.07   695.46   698.90   724.62
eigval :      739.10   744.53   774.32   775.79   800.36   803.15
eigval :      841.17   843.10   873.19   875.67   893.74   894.34
eigval :      899.56   902.73   903.08   916.54   916.78   925.89
eigval :      926.15   931.73   934.29   936.61  1039.33  1043.67
eigval :     1062.47  1063.55  1078.87  1080.63  1106.41  1116.51
eigval :     1117.65  1119.74  1122.91  1128.53  1134.09  1143.11
eigval :     1145.52  1153.83  1154.38  1155.66  1174.23  1178.93
eigval :     1180.50  1182.83  1202.64  1205.06  1227.68  1244.07
eigval :     1248.59  1255.99  1264.61  1269.45  1270.09  1319.48
eigval :     1331.32  1343.13  1348.93  1372.48  1385.45  1391.90
eigval :     1393.00  1396.06  1397.88  1417.81  1419.87  1421.48
eigval :     1428.84  1442.58  1461.79  1463.67  1463.82  1464.16
eigval :     1464.36  1473.06  1477.43  1478.24  1480.04  1485.44
eigval :     1492.68  1525.80  1532.74  1542.95  1569.30  1570.08
eigval :     1594.70  1595.26  1607.73  1622.20  2934.64  2934.67
eigval :     2936.29  2936.72  2947.52  2947.72  2948.70  2949.16
eigval :     3023.41  3024.11  3024.86  3024.90  3065.09  3066.49
eigval :     3071.42  3073.20  3080.94  3081.85  3082.16  3083.50
eigval :     3086.53  3089.12  3112.63  3112.76  3118.46  3118.62

   temp. (K)  partition function   enthalpy   heat capacity  entropy
                                   cal/mol     cal/K/mol   cal/K/mol   J/K/mol
 298.15  VIB  0.137E+14            17707.056    109.097    109.826
         ROT  0.271E+08              888.752      2.981     36.994
         INT  0.371E+21            18595.808    112.078    146.820
         TR   0.925E+28             1481.254      4.968     44.185
         TOT                       20077.0618   117.0458   191.0047   799.1635

       T/K    H(0)-H(T)+PV         H(T)/Eh          T*S/Eh         G(T)/Eh
   ------------------------------------------------------------------------
    298.15    0.319948E-01    0.500150E+00    0.907525E-01    0.409398E+00
   ------------------------------------------------------------------------

         :::::::::::::::::::::::::::::::::::::::::::::::::::::
         ::                  THERMODYNAMIC                  ::
         :::::::::::::::::::::::::::::::::::::::::::::::::::::
         :: total free energy         -93.397702709306 Eh   ::
         ::.................................................::
         :: total energy              -93.807100244247 Eh   ::
         :: zero point energy           0.468155173327 Eh   ::
         :: G(RRHO) w/o ZPVE           -0.058757638386 Eh   ::
         :: G(RRHO) contrib.            0.409397534941 Eh   ::
         :::::::::::::::::::::::::::::::::::::::::::::::::::::

           -------------------------------------------------
          | TOTAL ENERGY              -93.807100244247 Eh   |
          | TOTAL ENTHALPY            -93.306950236372 Eh   |
          | TOTAL FREE ENERGY         -93.397702709306 Eh   |
          | GRADIENT NORM               0.000070406854 Eh/α |
          | HOMO-LUMO GAP               2.149265969074 eV   |
           -------------------------------------------------

 * finished run on 2025/07/20 at 09:06:44.557
