   * xtb version 6.7.1 (edcfbbe) compiled by 'albert@albert-system' on 2024-07-22

   ID    Z sym.   atoms
    1    6 C      1, 3-18, 20-22, 24-31, 33, 34
    2    8 O      2, 19, 23, 32
    3    1 H      35-60

          program call               : xtb data2507/toluene/DMPA/DMPA.xyz --gfn 2 --gbsa toluene --ohess vtight --parallel 40 --molden --ceasefiles --namespace data2507/toluene/DMPA/DMPA_toluene_S0_preOpt
      * Solvation model:               GBSA
        Solvent                        toluene
        Solvent mass                       9.2140E+01 g/mol
          :  Hamiltonian                  GFN2-xTB          :
 * total energy  :   -93.7910159 Eh     change       -0.5646825E-09 Eh
 * total energy  :   -93.8022228 Eh     change       -0.1120692E-01 Eh
 * total energy  :   -93.8048703 Eh     change       -0.2647493E-02 Eh
 * total energy  :   -93.8050753 Eh     change       -0.2050444E-03 Eh
 * total energy  :   -93.8051957 Eh     change       -0.1203687E-03 Eh
 * total energy  :   -93.8052513 Eh     change       -0.5565071E-04 Eh
 * total energy  :   -93.8052833 Eh     change       -0.3191538E-04 Eh
 * total energy  :   -93.8053136 Eh     change       -0.3033846E-04 Eh
 * total energy  :   -93.8053408 Eh     change       -0.2721357E-04 Eh
 * total energy  :   -93.8053574 Eh     change       -0.1656258E-04 Eh
 * total energy  :   -93.8054368 Eh     change       -0.4079956E-06 Eh
 * total energy  :   -93.8054372 Eh     change       -0.3462220E-06 Eh
 * total energy  :   -93.8054375 Eh     change       -0.2837126E-06 Eh
 * total energy  :   -93.8054377 Eh     change       -0.2337682E-06 Eh
 * total energy  :   -93.8054379 Eh     change       -0.1930880E-06 Eh
 * total energy  :   -93.8054381 Eh     change       -0.1607741E-06 Eh
 * total energy  :   -93.8054382 Eh     change       -0.1351703E-06 Eh
 * total energy  :   -93.8054383 Eh     change       -0.1140379E-06 Eh
 * total energy  :   -93.8054384 Eh     change       -0.9578370E-07 Eh
   *** GEOMETRY OPTIMIZATION CONVERGED AFTER 37 ITERATIONS ***

 final structure:
================
60
 xtb: 6.7.1 (edcfbbe)
C            7.88085420672519        0.00013895629196       -0.43178459370009
O            6.89885252113986        0.00005168827048       -1.44501105663234
C            5.58086140324929        0.00003093597474       -1.08909833554883
C            4.66698295429110       -0.00004001021925       -2.14005049727126
C            3.31266015723565       -0.00005770713404       -1.87166322154470
C            2.83780731421025       -0.00000901051365       -0.56899780860283
C            1.38372550853891       -0.00001588927363       -0.27792828108684
C            0.70087057491647        1.21459779974611       -0.14070893249876
C            1.36478187803885        2.46292712086279       -0.27234804840435
C            0.69165345137096        3.63789178847280       -0.13745208291908
C           -0.69174434594651        3.63788802940954        0.13713796308669
C           -1.36484436980606        2.46291966225419        0.27214313519219
C           -0.70090411134341        1.21459431687747        0.14061733863870
C           -1.38372984892570       -0.00002206472286        0.27795170268692
C           -2.83781300263166       -0.00002221815557        0.56900779626486
C           -3.31268100750153        0.00001908536168        1.87166724662893
C           -4.66700739114034        0.00002294726277        2.14003870322265
C           -5.58087361273134       -0.00001550503302        1.08907601018087
O           -6.89886942342444       -0.00000663738251        1.44497325645420
C           -7.88085900100953       -0.00002977635791        0.43173503317539
C           -5.12396891187243       -0.00005939059045       -0.22514398219623
C           -3.75852402269334       -0.00006348566601       -0.48728012571892
O           -3.21796507464743       -0.00010701976669       -1.74018712911943
C           -4.07852394321630       -0.00016665906029       -2.85660433675742
C           -0.70087478459908       -1.21463533297401        0.14073612972454
C           -1.36478572059775       -2.46296420374174        0.27237671322605
C           -0.69165697848173       -3.63792912010302        0.13748417164225
C            0.69174111472646       -3.63792590484863       -0.13710487147912
C            1.36484118771207       -2.46295795853847       -0.27211305887991
C            0.70090013077671       -1.21463231871584       -0.14059013705027
C            3.75853065227801        0.00005540949195        0.48727952546811
O            3.21798657524091        0.00009725766897        1.74019292184648
C            4.07855898779600        0.00016462013315        2.85659966793693
C            5.12397233360196        0.00007557930311        0.22512695809731
H            7.81035466189968       -0.89485771772612        0.19411622555202
H            8.83614187514376        0.00015083521570       -0.95425371857284
H            7.81028478673369        0.89519057529499        0.19402974495080
H            5.03879074747470       -0.00007649095876       -3.15208007857399
H            2.60214876356202       -0.00010778151983       -2.68494403582794
H            2.42403763747876        2.45821091550534       -0.48565929552023
H            1.21001380301425        4.58059046095685       -0.23997982219013
H           -1.21012698299177        4.58058381661660        0.23958005218260
H           -2.42409979247359        2.45819824472051        0.48545604694291
H           -2.60217935563521        0.00004852149950        2.68495662445158
H           -5.03882725571950        0.00005559366471        3.15206389397688
H           -8.83615296045888       -0.00001003230679        0.95419267183068
H           -7.81031198363147        0.89497667132107       -0.19414647388091
H           -7.81032206515116       -0.89507159742149       -0.19409698315696
H           -5.82632649424311       -0.00009020168575       -1.04102794160219
H           -4.70794938079139        0.89511393402495       -2.87806477074047
H           -3.42305928638415       -0.00020298522636       -3.72603414018546
H           -4.70793547337096       -0.89545908869239       -2.87797897397084
H           -2.42404163662308       -2.45824754643789        0.48568731793555
H           -1.21001684614227       -4.58062786772877        0.24001393396049
H            1.21012423764994       -4.58062172884149       -0.23954378866492
H            2.42409685326666       -2.45823626679270       -0.48542495654471
H            4.70795694640665        0.89546660042028        2.87797122231639
H            4.70799835652123       -0.89510642314094        2.87804740661945
H            3.42310497254896        0.00018631492821        3.72603744129784
H            5.82633947063624        0.00012725972633        1.04100262335184

          :  Hamiltonian                  GFN2-xTB          :
         :: gradient norm              0.000024727572 Eh/a0 ::
         :: HOMO-LUMO gap              2.190368619146 eV    ::
         :: SCC energy               -95.278453090820 Eh    ::
         :: -> dispersion             -0.075778948487 Eh    ::
         :: -> Gsolv                  -0.039873910576 Eh    ::
         :: repulsion energy           1.473014686914 Eh    ::

    * Orbital Energies and Occupations

         #    Occupation            Energy/Eh            Energy/eV
      -------------------------------------------------------------
         1        2.0000           -0.7181576             -19.5421
       ...           ...                  ...                  ...
        73        2.0000           -0.4324952             -11.7688
        74        2.0000           -0.4255313             -11.5793
        75        2.0000           -0.4211229             -11.4593
        76        2.0000           -0.4193876             -11.4121
        77        2.0000           -0.4105022             -11.1703
        78        2.0000           -0.4009572             -10.9106
        79        2.0000           -0.4005095             -10.8984
        80        2.0000           -0.3939205             -10.7191
        81        2.0000           -0.3935822             -10.7099
        82        2.0000           -0.3933976             -10.7049
        83        2.0000           -0.3703140             -10.0768
        84        2.0000           -0.3685937             -10.0299
        85        2.0000           -0.3538771              -9.6295 (HOMO)
        86                         -0.2733825              -7.4391 (LUMO)
        87                         -0.2256609              -6.1405
        88                         -0.2192093              -5.9650
        89                         -0.2188433              -5.9550
        90                         -0.2152534              -5.8573
        91                         -0.2125559              -5.7839
        92                         -0.2124878              -5.7821
        93                         -0.1714066              -4.6642
        94                         -0.1679968              -4.5714
        95                         -0.0937258              -2.5504
        96                         -0.0896766              -2.4402
       ...                                ...                  ...
       162                          0.7202261              19.5984
      -------------------------------------------------------------
                  HL-Gap            0.0804946 Eh            2.1904 eV

     #   Z          covCN         q      C6AA      α(0)
     1   6 C        3.641     0.035    20.328     6.483
     2   8 O        1.705    -0.288    18.791     5.853
     3   6 C        2.863     0.137    24.997     8.195
     4   6 C        2.917    -0.071    29.761     8.946
     5   6 C        2.923    -0.035    28.879     8.813
     6   6 C        2.975    -0.020    28.498     8.757
     7   6 C        2.977     0.003    27.947     8.672
     8   6 C        2.984     0.007    27.853     8.657
     9   6 C        2.917    -0.033    28.824     8.804
    10   6 C        2.914    -0.032    28.799     8.800
    11   6 C        2.914    -0.032    28.799     8.800
    12   6 C        2.917    -0.033    28.824     8.804
    13   6 C        2.984     0.007    27.853     8.657
    14   6 C        2.977     0.003    27.947     8.672
    15   6 C        2.975    -0.020    28.498     8.757
    16   6 C        2.923    -0.035    28.879     8.813
    17   6 C        2.917    -0.071    29.761     8.946
    18   6 C        2.863     0.137    24.997     8.195
    19   8 O        1.705    -0.288    18.791     5.853
    20   6 C        3.641     0.035    20.328     6.483
    21   6 C        2.914    -0.107    30.703     9.086
    22   6 C        2.868     0.138    24.990     8.194
    23   8 O        1.705    -0.286    18.750     5.846
    24   6 C        3.641     0.037    20.302     6.479
    25   6 C        2.984     0.007    27.853     8.657
    26   6 C        2.917    -0.033    28.824     8.804
    27   6 C        2.914    -0.032    28.799     8.800
    28   6 C        2.914    -0.032    28.799     8.800
    29   6 C        2.917    -0.033    28.824     8.804
    30   6 C        2.984     0.007    27.853     8.657
    31   6 C        2.868     0.138    24.990     8.194
    32   8 O        1.705    -0.286    18.750     5.846
    33   6 C        3.641     0.037    20.302     6.479
    34   6 C        2.914    -0.107    30.703     9.086
    35   1 H        0.924     0.046     2.365     2.405
    36   1 H        0.925     0.067     2.117     2.276
    37   1 H        0.924     0.046     2.365     2.405
    38   1 H        0.926     0.046     2.370     2.407
    39   1 H        0.926     0.043     2.415     2.430
    40   1 H        0.926     0.028     2.611     2.527
    41   1 H        0.926     0.030     2.586     2.515
    42   1 H        0.926     0.030     2.586     2.515
    43   1 H        0.926     0.028     2.611     2.527
    44   1 H        0.926     0.043     2.415     2.430
    45   1 H        0.926     0.046     2.370     2.407
    46   1 H        0.925     0.067     2.117     2.276
    47   1 H        0.924     0.046     2.365     2.405
    48   1 H        0.924     0.046     2.365     2.405
    49   1 H        0.926     0.048     2.346     2.395
    50   1 H        0.924     0.047     2.363     2.404
    51   1 H        0.925     0.066     2.131     2.283
    52   1 H        0.924     0.047     2.363     2.404
    53   1 H        0.926     0.028     2.611     2.527
    54   1 H        0.926     0.030     2.586     2.515
    55   1 H        0.926     0.030     2.586     2.515
    56   1 H        0.926     0.028     2.611     2.527
    57   1 H        0.924     0.047     2.363     2.404
    58   1 H        0.924     0.047     2.363     2.404
    59   1 H        0.925     0.066     2.131     2.283
    60   1 H        0.926     0.048     2.346     2.395

molecular dipole:
                 x           y           z       tot (Debye)
 q only:        0.000       0.000      -0.000
   full:        0.000       0.000      -0.000       0.000

 projected vibrational frequencies (cm⁻¹)
eigval :       -0.00    -0.00    -0.00     0.00     0.00     0.00
eigval :      -16.36   -14.06    17.64    22.90    34.90    54.55
eigval :       64.87    73.23    77.88    95.90    97.21   106.75
eigval :      130.39   154.93   155.43   157.08   158.06   176.59
eigval :      181.46   186.03   186.13   188.45   206.39   238.96
eigval :      239.44   275.14   275.37   287.12   293.59   348.04
eigval :      350.84   375.50   377.15   381.45   396.27   405.96
eigval :      440.93   448.08   448.90   449.54   455.16   459.09
eigval :      485.06   500.51   524.43   524.68   557.88   565.68
eigval :      579.69   583.60   595.04   603.70   609.09   639.31
eigval :      655.45   679.29   689.43   694.35   699.34   711.98
eigval :      732.94   741.23   774.05   776.47   797.26   798.97
eigval :      839.73   840.01   874.85   876.93   895.71   901.13
eigval :      908.23   909.20   910.70   916.97   917.23   925.34
eigval :      925.58   931.37   942.07   943.82  1036.88  1041.23
eigval :     1060.83  1061.90  1075.33  1076.45  1103.87  1116.50
eigval :     1116.56  1117.23  1117.29  1118.60  1133.38  1140.30
eigval :     1146.93  1149.38  1157.25  1161.55  1167.68  1168.80
eigval :     1176.22  1178.42  1198.72  1201.11  1222.66  1248.41
eigval :     1253.35  1254.61  1264.08  1278.84  1279.59  1320.46
eigval :     1320.86  1331.23  1348.31  1371.29  1384.36  1391.91
eigval :     1393.03  1394.06  1394.15  1418.80  1422.37  1423.60
eigval :     1428.77  1443.98  1463.74  1465.29  1465.32  1468.12
eigval :     1468.12  1474.77  1478.19  1478.22  1479.49  1490.95
eigval :     1496.26  1525.28  1534.10  1543.73  1564.95  1565.50
eigval :     1593.32  1593.36  1607.49  1622.29  2930.39  2930.42
eigval :     2932.13  2932.14  2942.53  2942.56  2944.43  2944.43
eigval :     3023.44  3023.48  3024.83  3024.86  3064.75  3064.79
eigval :     3070.08  3070.10  3078.97  3079.02  3084.89  3084.90
eigval :     3084.99  3087.00  3108.91  3108.99  3129.97  3129.97

   temp. (K)  partition function   enthalpy   heat capacity  entropy
                                   cal/mol     cal/K/mol   cal/K/mol   J/K/mol
 298.15  VIB  0.694E+14            17822.856    108.701    111.541
         ROT  0.133E+08              888.752      2.981     35.580
         INT  0.924E+21            18711.608    111.682    147.121
         TR   0.925E+28             1481.254      4.968     44.185
         TOT                       20192.8623   116.6498   191.3062   800.4253

       T/K    H(0)-H(T)+PV         H(T)/Eh          T*S/Eh         G(T)/Eh
   ------------------------------------------------------------------------
    298.15    0.321794E-01    0.499920E+00    0.908958E-01    0.409025E+00
   ------------------------------------------------------------------------

         :::::::::::::::::::::::::::::::::::::::::::::::::::::
         ::                  THERMODYNAMIC                  ::
         :::::::::::::::::::::::::::::::::::::::::::::::::::::
         :: total free energy         -93.396413775643 Eh   ::
         ::.................................................::
         :: total energy              -93.805438402218 Eh   ::
         :: zero point energy           0.467741021950 Eh   ::
         :: G(RRHO) w/o ZPVE           -0.058716395375 Eh   ::
         :: G(RRHO) contrib.            0.409024626575 Eh   ::
         :::::::::::::::::::::::::::::::::::::::::::::::::::::

           -------------------------------------------------
          | TOTAL ENERGY              -93.805438402218 Eh   |
          | TOTAL ENTHALPY            -93.305518005946 Eh   |
          | TOTAL FREE ENERGY         -93.396413775643 Eh   |
          | GRADIENT NORM               0.000024735775 Eh/α |
          | HOMO-LUMO GAP               2.190368520893 eV   |
           -------------------------------------------------

 * finished run on 2025/07/20 at 09:04:27.735
