   * xtb version 6.7.1 (edcfbbe) compiled by 'albert@albert-system' on 2024-07-22

   ID    Z sym.   atoms
    1    6 C      1, 3-18, 20-22, 24-31, 33, 34
    2    8 O      2, 19, 23, 32
    3    1 H      35-60

          program call               : xtb data2507/toluene/DMPA/DMPA_toluene_T1_crest.xyz --gfn 2 --uhf 2 --gbsa toluene --ohess vtight --parallel 40 --molden --ceasefiles --namespace data2507/toluene/DMPA/DMPA_toluene_T1_finalOpt
      * Solvation model:               GBSA
        Solvent                        toluene
        Solvent mass                       9.2140E+01 g/mol
          :  Hamiltonian                  GFN2-xTB          :
 * total energy  :   -93.7371926 Eh     change       -0.1221309E-08 Eh
 * total energy  :   -93.7372478 Eh     change       -0.5525557E-04 Eh
 * total energy  :   -93.7372722 Eh     change       -0.2440111E-04 Eh
 * total energy  :   -93.7372755 Eh     change       -0.3305944E-05 Eh
 * total energy  :   -93.7372791 Eh     change       -0.3571659E-05 Eh
 * total energy  :   -93.7372820 Eh     change       -0.2846519E-05 Eh
 * total energy  :   -93.7372837 Eh     change       -0.1785506E-05 Eh
 * total energy  :   -93.7372847 Eh     change       -0.9955070E-06 Eh
 * total energy  :   -93.7372854 Eh     change       -0.6584380E-06 Eh
 * total energy  :   -93.7372858 Eh     change       -0.3813883E-06 Eh
 * total energy  :   -93.7372860 Eh     change       -0.1852827E-06 Eh
 * total energy  :   -93.7372861 Eh     change       -0.1454487E-06 Eh
 * total energy  :   -93.7372863 Eh     change       -0.1591113E-06 Eh
 * total energy  :   -93.7372864 Eh     change       -0.1568944E-06 Eh
 * total energy  :   -93.7372865 Eh     change       -0.1186019E-06 Eh
 * total energy  :   -93.7372866 Eh     change       -0.4884268E-07 Eh
   *** GEOMETRY OPTIMIZATION CONVERGED AFTER 16 ITERATIONS ***

 final structure:
================
60
 xtb: 6.7.1 (edcfbbe)
C            7.76203744282456        1.11456482829970       -0.99974255846034
O            7.04165994473956        0.21429349953075       -0.18496840899863
C            5.67929842105394        0.25602171315699       -0.21232519382047
C            4.91902195010114        1.11990137101226       -0.99059489590843
C            3.53851502061365        1.05714538697264       -0.91970952783961
C            2.87847229935133        0.14404744701072       -0.10533610606871
C            1.41772738814719        0.07900371942666       -0.06272262580549
C            0.66644748941902        1.21122595963345        0.37456755430684
C            1.28957176201659        2.38289732710353        0.81583470301130
C            0.55431426203654        3.46200865538914        1.30362674845888
C           -0.81661132304332        3.36820388491906        1.40247829827703
C           -1.46062993427127        2.19794289876532        1.00403036520986
C           -0.75541439096784        1.12306101095330        0.45711016486955
C           -1.41897574209237       -0.08120004990923        0.07131992348960
C           -2.87981219920899       -0.14384394270266        0.10850114024840
C           -3.54535134463511       -1.05888147604529        0.91632243985077
C           -4.92627507015438       -1.12017956744452        0.97973745566407
C           -5.68145873171086       -0.25272002123943        0.20046189710561
O           -7.04359687128631       -0.21010267741586        0.16507812567195
C           -7.76945637658749       -1.11515147385724        0.96961927717747
C           -5.03795321701491        0.66503884190152       -0.63409145759977
C           -3.65793758450821        0.72929848297027       -0.68770543248071
O           -2.96214826226388        1.56484107785615       -1.50535743095591
C           -3.67312220843158        2.46764915737977       -2.32226421274236
C           -0.66755352668157       -1.21387137713085       -0.36492607024836
C           -1.29041825416123       -2.38542050100628       -0.80679861216167
C           -0.55489360967940       -3.46541884877218       -1.29229685603244
C            0.81626032493392       -3.37258125507876       -1.38851452181928
C            1.46009498475166       -2.20210231974646       -0.99046476294754
C            0.75448298272201       -1.12610392864170       -0.44615273356579
C            3.66167359026150       -0.72447714169529        0.69073480645601
O            2.97108288308957       -1.55751300872767        1.51534229951344
C            3.68761216825592       -2.45432477093669        2.33399737953079
C            5.04135105302057       -0.65877049256931        0.62968998327724
H            8.81275016520324        0.89992206603650       -0.81156278285456
H            7.54204172026257        0.95653221716778       -2.05970441597497
H            7.54849787940532        2.15336162445088       -0.73111186608299
H            5.38097785172179        1.83305505408683       -1.65339146698794
H            2.94715647578590        1.71517636685670       -1.53935447369159
H            2.36640309828389        2.45026541312159        0.79114640570389
H            1.06847490498309        4.35898104915767        1.61744467673158
H           -1.39738960923783        4.18806691458680        1.79982588677967
H           -2.52930382776191        2.11714467308364        1.13415807508257
H           -2.95817113148910       -1.71976558844356        1.53689851269774
H           -5.39258550836180       -1.83515541091058        1.63751332237070
H           -7.55264134552766       -2.15235645387313        0.69751285996205
H           -7.55809866395997       -0.96219359002955        2.03208102885283
H           -8.81888090772875       -0.90068935112622        0.77413464172412
H           -5.66205949972003        1.30885885581396       -1.23183073654627
H           -4.30933034846938        1.94157354993013       -3.04057604151131
H           -4.28273165091590        3.15214098836060       -1.72471215054471
H           -2.91173050815438        3.03327530384703       -2.85686853123594
H           -2.36732661454357       -2.45213185772788       -0.78458407963433
H           -1.06904852162100       -4.36229516216875       -1.60639593010706
H            1.39735655137758       -4.19323924137193       -1.78374491152277
H            2.52898224032129       -2.12195765068430       -1.11906743150966
H            2.92989569990123       -3.01757666468237        2.87626198156335
H            4.32701612325176       -1.92289947634413        3.04549814803320
H            4.29492264981349       -3.14173293228239        1.73744369605567
H            5.66941737394029       -1.29945470471716        1.22664674348347

          :  Hamiltonian                  GFN2-xTB          :
         :: gradient norm              0.000048203850 Eh/a0 ::
         :: HOMO-LUMO gap              1.557859416450 eV    ::
         :: SCC energy               -95.191618689821 Eh    ::
         :: -> dispersion             -0.076342547524 Eh    ::
         :: -> Gsolv                  -0.039058179639 Eh    ::
         :: repulsion energy           1.454332096780 Eh    ::

    * Orbital Energies and Occupations

         #    Occupation            Energy/Eh            Energy/eV
      -------------------------------------------------------------
         1        2.0000           -0.7198755             -19.5888
       ...           ...                  ...                  ...
        74        2.0000           -0.4240674             -11.5395
        75        2.0000           -0.4179388             -11.3727
        76        2.0000           -0.4166380             -11.3373
        77        2.0000           -0.4070135             -11.0754
        78        2.0000           -0.4006840             -10.9032
        79        2.0000           -0.3939531             -10.7200
        80        2.0000           -0.3931697             -10.6987
        81        2.0000           -0.3910540             -10.6411
        82        2.0000           -0.3903623             -10.6223
        83        2.0000           -0.3744341             -10.1889
        84        2.0000           -0.3739204             -10.1749
        85        1.0000           -0.3409331              -9.2773
        86        1.0000           -0.2795159              -7.6060 (HOMO)
        87                         -0.2222655              -6.0482 (LUMO)
        88                         -0.2214887              -6.0270
        89                         -0.2188798              -5.9560
        90                         -0.2146523              -5.8410
        91                         -0.2140156              -5.8237
        92                         -0.2133803              -5.8064
        93                         -0.1685361              -4.5861
        94                         -0.1666326              -4.5343
        95                         -0.0924368              -2.5153
        96                         -0.0904512              -2.4613
        97                         -0.0889683              -2.4210
       ...                                ...                  ...
       162                          0.7151955              19.4615
      -------------------------------------------------------------
                  HL-Gap            0.0572504 Eh            1.5579 eV

     #   Z          covCN         q      C6AA      α(0)
     1   6 C        3.642     0.033    20.356     6.487
     2   8 O        1.705    -0.284    18.709     5.840
     3   6 C        2.865     0.139    24.967     8.190
     4   6 C        2.913    -0.080    30.005     8.982
     5   6 C        2.925    -0.037    28.920     8.819
     6   6 C        2.972    -0.016    28.413     8.743
     7   6 C        2.973    -0.005    28.148     8.703
     8   6 C        2.976     0.008    27.843     8.655
     9   6 C        2.921    -0.043    29.067     8.841
    10   6 C        2.913    -0.035    28.867     8.810
    11   6 C        2.913    -0.035    28.865     8.810
    12   6 C        2.922    -0.037    28.910     8.817
    13   6 C        2.977     0.011    27.758     8.642
    14   6 C        2.973    -0.005    28.149     8.703
    15   6 C        2.972    -0.016    28.413     8.743
    16   6 C        2.925    -0.037    28.921     8.819
    17   6 C        2.913    -0.080    30.005     8.982
    18   6 C        2.865     0.139    24.967     8.190
    19   8 O        1.705    -0.284    18.708     5.840
    20   6 C        3.642     0.033    20.356     6.487
    21   6 C        2.916    -0.097    30.443     9.048
    22   6 C        2.866     0.142    24.910     8.181
    23   8 O        1.705    -0.278    18.609     5.824
    24   6 C        3.643     0.035    20.334     6.483
    25   6 C        2.976     0.008    27.843     8.655
    26   6 C        2.921    -0.043    29.069     8.841
    27   6 C        2.913    -0.035    28.868     8.810
    28   6 C        2.913    -0.035    28.865     8.810
    29   6 C        2.922    -0.037    28.911     8.818
    30   6 C        2.977     0.011    27.759     8.642
    31   6 C        2.866     0.142    24.911     8.181
    32   8 O        1.705    -0.278    18.610     5.824
    33   6 C        3.643     0.035    20.334     6.483
    34   6 C        2.916    -0.097    30.443     9.048
    35   1 H        0.925     0.068     2.104     2.268
    36   1 H        0.924     0.049     2.336     2.390
    37   1 H        0.924     0.049     2.336     2.390
    38   1 H        0.926     0.045     2.380     2.412
    39   1 H        0.926     0.045     2.382     2.413
    40   1 H        0.926     0.029     2.604     2.524
    41   1 H        0.926     0.027     2.632     2.537
    42   1 H        0.926     0.026     2.642     2.542
    43   1 H        0.926     0.024     2.680     2.560
    44   1 H        0.926     0.045     2.381     2.413
    45   1 H        0.926     0.045     2.380     2.412
    46   1 H        0.924     0.049     2.336     2.390
    47   1 H        0.924     0.049     2.336     2.390
    48   1 H        0.925     0.068     2.104     2.268
    49   1 H        0.926     0.052     2.293     2.368
    50   1 H        0.924     0.049     2.337     2.391
    51   1 H        0.924     0.049     2.338     2.391
    52   1 H        0.925     0.068     2.109     2.271
    53   1 H        0.926     0.029     2.603     2.523
    54   1 H        0.926     0.027     2.632     2.537
    55   1 H        0.926     0.026     2.642     2.542
    56   1 H        0.926     0.024     2.679     2.560
    57   1 H        0.925     0.068     2.109     2.271
    58   1 H        0.924     0.049     2.337     2.391
    59   1 H        0.924     0.049     2.338     2.391
    60   1 H        0.926     0.052     2.293     2.368

molecular dipole:
                 x           y           z       tot (Debye)
 q only:       -0.002       0.001      -0.004
   full:       -0.002       0.001      -0.006       0.016

 projected vibrational frequencies (cm⁻¹)
eigval :       -0.00    -0.00    -0.00    -0.00     0.00     0.00
eigval :       11.53    23.21    31.55    36.61    47.51    51.88
eigval :       73.17    83.95    86.90    96.27   103.78   120.15
eigval :      124.65   143.27   148.88   160.20   164.04   185.40
eigval :      196.32   197.80   202.15   207.39   222.38   223.63
eigval :      224.75   264.90   265.42   277.20   283.91   338.31
eigval :      341.92   352.53   373.39   379.61   385.43   396.26
eigval :      419.41   428.26   430.81   445.32   449.72   474.08
eigval :      482.82   490.28   533.55   555.01   555.25   559.68
eigval :      573.91   575.95   592.81   593.98   608.95   609.32
eigval :      646.87   666.79   678.71   691.46   698.98   715.10
eigval :      723.80   735.87   748.06   759.95   801.43   802.76
eigval :      837.84   838.67   843.02   843.90   881.95   882.47
eigval :      889.06   893.11   899.29   903.43   903.93   911.08
eigval :      911.96   934.32   936.16   943.77  1038.14  1042.32
eigval :     1060.84  1061.87  1101.33  1101.86  1104.98  1113.07
eigval :     1114.96  1115.65  1116.13  1116.51  1129.19  1140.48
eigval :     1145.29  1149.15  1153.94  1154.04  1173.06  1174.68
eigval :     1181.61  1183.14  1192.33  1194.88  1228.84  1235.93
eigval :     1242.44  1255.12  1261.54  1262.16  1279.73  1296.26
eigval :     1303.10  1321.69  1330.25  1342.81  1367.91  1372.60
eigval :     1376.65  1391.98  1392.38  1394.85  1395.11  1408.58
eigval :     1419.14  1419.72  1424.10  1450.90  1451.42  1461.36
eigval :     1461.83  1463.37  1463.48  1474.74  1474.87  1476.80
eigval :     1477.07  1480.70  1484.75  1521.04  1529.32  1547.31
eigval :     1547.92  1557.77  1575.55  1577.61  2935.21  2935.27
eigval :     2938.02  2938.20  2947.80  2947.88  2950.04  2950.28
eigval :     3024.05  3024.19  3024.94  3025.12  3066.80  3066.93
eigval :     3076.18  3076.25  3084.01  3084.14  3087.35  3087.66
eigval :     3093.51  3094.71  3111.58  3111.65  3118.31  3118.44

   temp. (K)  partition function   enthalpy   heat capacity  entropy
                                   cal/mol     cal/K/mol   cal/K/mol   J/K/mol
 298.15  VIB  0.125E+14            17841.433    110.412    110.667
         ROT  0.273E+08              888.752      2.981     37.007
         INT  0.341E+21            18730.185    113.392    147.675
         TR   0.925E+28             1481.254      4.968     44.185
         TOT                       20211.4392   118.3606   191.8593   802.7392

       T/K    H(0)-H(T)+PV         H(T)/Eh          T*S/Eh         G(T)/Eh
   ------------------------------------------------------------------------
    298.15    0.322090E-01    0.497656E+00    0.911585E-01    0.406498E+00
   ------------------------------------------------------------------------

         :::::::::::::::::::::::::::::::::::::::::::::::::::::
         ::                  THERMODYNAMIC                  ::
         :::::::::::::::::::::::::::::::::::::::::::::::::::::
         :: total free energy         -93.330788773636 Eh   ::
         ::.................................................::
         :: total energy              -93.737286596005 Eh   ::
         :: zero point energy           0.465447377520 Eh   ::
         :: G(RRHO) w/o ZPVE           -0.058949555152 Eh   ::
         :: G(RRHO) contrib.            0.406497822368 Eh   ::
         :::::::::::::::::::::::::::::::::::::::::::::::::::::

           -------------------------------------------------
          | TOTAL ENERGY              -93.737286596005 Eh   |
          | TOTAL ENTHALPY            -93.239630239996 Eh   |
          | TOTAL FREE ENERGY         -93.330788773636 Eh   |
          | GRADIENT NORM               0.000048189827 Eh/α |
          | HOMO-LUMO GAP               1.557861335261 eV   |
           -------------------------------------------------

 * finished run on 2025/07/20 at 09:09:07.152
