   * xtb version 6.7.1 (edcfbbe) compiled by 'albert@albert-system' on 2024-07-22

   ID    Z sym.   atoms
    1    6 C      1, 3-18, 20-22, 24-31, 33, 34
    2    8 O      2, 19, 23, 32
    3    1 H      35-60

          program call               : xtb data2507/toluene/DMPA/DMPA_toluene_S0_finalOpt.xtbopt.xyz --gfn 2 --uhf 2 --gbsa toluene --ohess vtight --parallel 40 --molden --ceasefiles --namespace data2507/toluene/DMPA/DMPA_toluene_T1_preOpt
      * Solvation model:               GBSA
        Solvent                        toluene
        Solvent mass                       9.2140E+01 g/mol
          :  Hamiltonian                  GFN2-xTB          :
 * total energy  :   -93.7278412 Eh     change       -0.2006317E-08 Eh
 * total energy  :   -93.7340053 Eh     change       -0.6164101E-02 Eh
 * total energy  :   -93.7353555 Eh     change       -0.1350188E-02 Eh
 * total energy  :   -93.7354620 Eh     change       -0.1065209E-03 Eh
 * total energy  :   -93.7355444 Eh     change       -0.8241205E-04 Eh
 * total energy  :   -93.7355880 Eh     change       -0.4361533E-04 Eh
 * total energy  :   -93.7356497 Eh     change       -0.6166339E-04 Eh
 * total energy  :   -93.7357294 Eh     change       -0.7973519E-04 Eh
 * total energy  :   -93.7357947 Eh     change       -0.6534511E-04 Eh
 * total energy  :   -93.7358459 Eh     change       -0.5118292E-04 Eh
 * total energy  :   -93.7371758 Eh     change       -0.4655226E-05 Eh
 * total energy  :   -93.7371796 Eh     change       -0.3843822E-05 Eh
 * total energy  :   -93.7371824 Eh     change       -0.2787521E-05 Eh
 * total energy  :   -93.7371844 Eh     change       -0.2020533E-05 Eh
 * total energy  :   -93.7371860 Eh     change       -0.1556731E-05 Eh
 * total energy  :   -93.7371872 Eh     change       -0.1219081E-05 Eh
 * total energy  :   -93.7371881 Eh     change       -0.8528632E-06 Eh
 * total energy  :   -93.7371886 Eh     change       -0.5581429E-06 Eh
 * total energy  :   -93.7371886 Eh     change       -0.8689042E-08 Eh
   *** GEOMETRY OPTIMIZATION CONVERGED AFTER 44 ITERATIONS ***

 final structure:
================
60
 xtb: 6.7.1 (edcfbbe)
C            7.77811489860431       -0.53862093331277       -1.36484595269636
O            7.04006753478411       -0.01380118616148       -0.28183992912474
C            5.68015856795675       -0.11083392468651       -0.31120015847246
C            4.93975349605683       -0.68984869218391       -1.33380666620483
C            3.55945318544349       -0.71856281993681       -1.23777406676576
C            2.88032248261440       -0.17252809289675       -0.15500222516830
C            1.41857525596650       -0.18404666557804       -0.08826104895998
C            0.70846445069990        1.05126032932857       -0.01298770704190
C            1.36193621826007        2.28277620463798       -0.10525414379571
C            0.67463189660550        3.48457815928658        0.05844830911274
C           -0.67835305685963        3.47023223358938        0.31955298663056
C           -1.36444172963218        2.25723132036948        0.35598212553439
C           -0.71013844264839        1.04297959252855        0.13403397553134
C           -1.41987055914715       -0.19378816064626        0.08051071383842
C           -2.88200148198108       -0.18899096850031        0.13748867804341
C           -3.56878175399226       -0.84391838842638        1.15316430620111
C           -4.94978382352879       -0.82781196563372        1.24028982010138
C           -5.68354211414422       -0.15051481762342        0.27480005809113
O           -7.04349031894531       -0.05567261560818        0.24277314753014
C           -7.78878262376187       -0.69384987929963        1.25778789517549
C           -5.01917173960461        0.49739255826197       -0.77000233710129
C           -3.63887083013514        0.48641030775728       -0.84838903321874
O           -2.92520404563276        1.05602042467148       -1.85743546877739
C           -3.61474017478231        1.74884682066659       -2.87344962141305
C           -0.71378904207059       -1.42889463233177       -0.03773314585308
C           -1.38123512099871       -2.65310098862811       -0.13656192139522
C           -0.68622643725601       -3.86095480591245       -0.19710047694975
C            0.69061821957259       -3.86175396705234       -0.15697845476992
C            1.38352137844816       -2.65236288734053       -0.10404324384750
C            0.71393175072115       -1.42547728961748       -0.08694120203328
C            3.64404108663664        0.39843180968320        0.88969651486123
O            2.93704254830251        0.85314824072324        1.95993445808095
C            3.63302953697446        1.41951212463817        3.04729721936739
C            5.02345515979172        0.42448506700918        0.80009387680977
H            7.52359270702281       -0.03471069763484       -2.30199787184305
H            8.82284136587487       -0.34943977093806       -1.12350329670579
H            7.61806195551251       -1.61558145653801       -1.47181028687060
H            5.41602619563459       -1.10999429724228       -2.20439034535442
H            2.98266673214913       -1.14959851980730       -2.04283283123266
H            2.42191877181658        2.30614648885310       -0.30954770678364
H            1.21163202812131        4.41990083206686       -0.00720018470170
H           -1.21603677683182        4.39289272083238        0.48408965057339
H           -2.42439744507493        2.25746874028686        0.56192881045086
H           -2.99724174004539       -1.35306345784967        1.91525335352343
H           -5.43200553818786       -1.33480050155084        2.05985165896685
H           -8.83232631423577       -0.48730626928676        1.02572950187109
H           -7.62186164019450       -1.77506086597626        1.25474037359732
H           -7.54771662899389       -0.28772144673628        2.24467913346687
H           -5.62761310789022        0.99605462949954       -1.50648279938004
H           -4.28074529263991        1.08277759463853       -3.43054996756023
H           -4.18958712954975        2.58646198468137       -2.46721132856213
H           -2.84099709548402        2.12922850640891       -3.53834758845192
H           -2.45997738560890       -2.66564003761278       -0.16734380582593
H           -1.23555589169768       -4.78870942101440       -0.26486670502434
H            1.24145273101047       -4.79088298727092       -0.17648865405967
H            2.46236311573622       -2.66562041240039       -0.07580738931137
H            2.86400774155184        1.70753060831159        3.76224985714186
H            4.19743330406871        2.30633367839006        2.74381234367476
H            4.30963880351882        0.69448398170031        3.50994190139712
H            5.63685464722795        0.84823728563623        1.57825444086726

          :  Hamiltonian                  GFN2-xTB          :
         :: gradient norm              0.000063075119 Eh/a0 ::
         :: HOMO-LUMO gap              1.578974945744 eV    ::
         :: SCC energy               -95.191522208829 Eh    ::
         :: -> dispersion             -0.076525900447 Eh    ::
         :: -> Gsolv                  -0.038976446871 Eh    ::
         :: repulsion energy           1.454333570737 Eh    ::

    * Orbital Energies and Occupations

         #    Occupation            Energy/Eh            Energy/eV
      -------------------------------------------------------------
         1        2.0000           -0.7195522             -19.5800
       ...           ...                  ...                  ...
        74        2.0000           -0.4229943             -11.5103
        75        2.0000           -0.4198380             -11.4244
        76        2.0000           -0.4162285             -11.3262
        77        2.0000           -0.4083001             -11.1104
        78        2.0000           -0.4017003             -10.9308
        79        2.0000           -0.3933670             -10.7041
        80        2.0000           -0.3930052             -10.6942
        81        2.0000           -0.3907322             -10.6324
        82        2.0000           -0.3905440             -10.6272
        83        2.0000           -0.3753068             -10.2126
        84        2.0000           -0.3717636             -10.1162
        85        1.0000           -0.3417693              -9.3000
        86        1.0000           -0.2800357              -7.6202 (HOMO)
        87                         -0.2220095              -6.0412 (LUMO)
        88                         -0.2217446              -6.0340
        89                         -0.2191130              -5.9624
        90                         -0.2149371              -5.8487
        91                         -0.2135208              -5.8102
        92                         -0.2134740              -5.8089
        93                         -0.1686399              -4.5889
        94                         -0.1665441              -4.5319
        95                         -0.0923701              -2.5135
        96                         -0.0910955              -2.4788
        97                         -0.0892855              -2.4296
       ...                                ...                  ...
       162                          0.7159504              19.4820
      -------------------------------------------------------------
                  HL-Gap            0.0580263 Eh            1.5790 eV

     #   Z          covCN         q      C6AA      α(0)
     1   6 C        3.642     0.034    20.353     6.486
     2   8 O        1.705    -0.284    18.721     5.842
     3   6 C        2.865     0.139    24.975     8.192
     4   6 C        2.913    -0.080    30.010     8.983
     5   6 C        2.925    -0.037    28.922     8.819
     6   6 C        2.972    -0.017    28.424     8.745
     7   6 C        2.972    -0.004    28.131     8.700
     8   6 C        2.978     0.011    27.757     8.642
     9   6 C        2.921    -0.036    28.887     8.814
    10   6 C        2.914    -0.034    28.854     8.808
    11   6 C        2.914    -0.034    28.854     8.808
    12   6 C        2.921    -0.036    28.885     8.814
    13   6 C        2.978     0.011    27.756     8.642
    14   6 C        2.972    -0.005    28.132     8.700
    15   6 C        2.972    -0.017    28.424     8.745
    16   6 C        2.925    -0.037    28.924     8.820
    17   6 C        2.913    -0.080    30.010     8.983
    18   6 C        2.865     0.139    24.974     8.192
    19   8 O        1.705    -0.284    18.720     5.842
    20   6 C        3.642     0.034    20.353     6.486
    21   6 C        2.916    -0.097    30.441     9.047
    22   6 C        2.866     0.142    24.914     8.182
    23   8 O        1.705    -0.279    18.628     5.827
    24   6 C        3.642     0.035    20.331     6.482
    25   6 C        2.976     0.008    27.845     8.656
    26   6 C        2.921    -0.042    29.049     8.838
    27   6 C        2.913    -0.035    28.861     8.809
    28   6 C        2.913    -0.035    28.861     8.809
    29   6 C        2.921    -0.042    29.046     8.838
    30   6 C        2.976     0.008    27.845     8.656
    31   6 C        2.866     0.142    24.914     8.182
    32   8 O        1.705    -0.279    18.628     5.827
    33   6 C        3.642     0.035    20.331     6.483
    34   6 C        2.916    -0.097    30.440     9.047
    35   1 H        0.924     0.049     2.339     2.392
    36   1 H        0.925     0.068     2.106     2.269
    37   1 H        0.924     0.048     2.340     2.392
    38   1 H        0.926     0.045     2.383     2.414
    39   1 H        0.926     0.044     2.390     2.417
    40   1 H        0.926     0.024     2.674     2.557
    41   1 H        0.926     0.027     2.635     2.539
    42   1 H        0.926     0.027     2.635     2.538
    43   1 H        0.926     0.024     2.674     2.557
    44   1 H        0.926     0.045     2.388     2.417
    45   1 H        0.926     0.045     2.383     2.414
    46   1 H        0.925     0.068     2.106     2.269
    47   1 H        0.924     0.048     2.339     2.392
    48   1 H        0.924     0.049     2.339     2.391
    49   1 H        0.926     0.052     2.296     2.369
    50   1 H        0.924     0.049     2.338     2.391
    51   1 H        0.924     0.048     2.340     2.392
    52   1 H        0.925     0.068     2.113     2.273
    53   1 H        0.926     0.029     2.598     2.521
    54   1 H        0.926     0.027     2.624     2.533
    55   1 H        0.926     0.027     2.624     2.533
    56   1 H        0.926     0.029     2.601     2.522
    57   1 H        0.925     0.068     2.113     2.273
    58   1 H        0.924     0.048     2.342     2.393
    59   1 H        0.924     0.049     2.338     2.391
    60   1 H        0.926     0.052     2.296     2.370

molecular dipole:
                 x           y           z       tot (Debye)
 q only:       -0.005      -0.034      -0.003
   full:       -0.005      -0.054      -0.005       0.138

 projected vibrational frequencies (cm⁻¹)
eigval :       -0.00    -0.00    -0.00     0.00     0.00     0.00
eigval :       11.82    17.84    28.90    35.65    43.76    47.49
eigval :       74.95    80.77    87.17    96.60   101.44   115.79
eigval :      132.50   147.80   149.59   159.51   160.62   179.98
eigval :      194.63   195.35   198.20   202.50   228.21   229.96
eigval :      230.20   261.30   262.61   276.68   282.95   337.47
eigval :      347.36   354.43   355.06   386.87   392.57   394.26
eigval :      416.20   423.12   431.35   444.27   454.93   468.75
eigval :      475.01   491.62   533.57   553.40   554.88   564.55
eigval :      573.74   576.97   590.98   593.85   600.14   619.19
eigval :      645.15   668.85   676.56   691.61   697.25   714.20
eigval :      723.29   735.35   742.90   756.19   802.88   804.19
eigval :      834.63   839.19   841.31   844.60   879.49   882.25
eigval :      889.85   891.31   898.32   899.74   900.26   909.87
eigval :      913.44   934.38   935.82   943.68  1038.08  1042.28
eigval :     1061.25  1062.36  1098.33  1101.16  1101.61  1110.99
eigval :     1114.92  1115.55  1115.88  1117.30  1129.62  1140.59
eigval :     1145.37  1148.69  1152.93  1153.42  1173.45  1174.58
eigval :     1179.15  1180.82  1192.49  1195.65  1226.29  1239.34
eigval :     1240.48  1253.21  1261.59  1261.98  1276.99  1296.91
eigval :     1303.64  1322.85  1329.42  1344.03  1368.18  1372.96
eigval :     1377.86  1390.79  1391.45  1395.01  1395.52  1408.52
eigval :     1418.43  1419.70  1424.08  1451.08  1451.88  1462.47
eigval :     1462.54  1462.59  1462.63  1475.28  1475.51  1475.94
eigval :     1476.76  1481.51  1482.07  1520.08  1528.24  1547.98
eigval :     1548.97  1556.50  1576.10  1578.28  2934.65  2934.79
eigval :     2937.88  2937.98  2947.28  2947.47  2949.85  2949.96
eigval :     3024.63  3024.85  3024.93  3025.27  3064.84  3067.84
eigval :     3072.87  3077.35  3083.28  3083.71  3085.11  3088.34
eigval :     3091.57  3094.96  3110.97  3112.11  3118.02  3118.44

   temp. (K)  partition function   enthalpy   heat capacity  entropy
                                   cal/mol     cal/K/mol   cal/K/mol   J/K/mol
 298.15  VIB  0.211E+14            17884.094    110.255    111.057
         ROT  0.272E+08              888.752      2.981     37.003
         INT  0.575E+21            18772.846    113.236    148.060
         TR   0.925E+28             1481.254      4.968     44.185
         TOT                       20254.0999   118.2041   192.2444   804.3504

       T/K    H(0)-H(T)+PV         H(T)/Eh          T*S/Eh         G(T)/Eh
   ------------------------------------------------------------------------
    298.15    0.322770E-01    0.497517E+00    0.913415E-01    0.406176E+00
   ------------------------------------------------------------------------

         :::::::::::::::::::::::::::::::::::::::::::::::::::::
         ::                  THERMODYNAMIC                  ::
         :::::::::::::::::::::::::::::::::::::::::::::::::::::
         :: total free energy         -93.331012879445 Eh   ::
         ::.................................................::
         :: total energy              -93.737188636126 Eh   ::
         :: zero point energy           0.465240291370 Eh   ::
         :: G(RRHO) w/o ZPVE           -0.059064534690 Eh   ::
         :: G(RRHO) contrib.            0.406175756680 Eh   ::
         :::::::::::::::::::::::::::::::::::::::::::::::::::::

           -------------------------------------------------
          | TOTAL ENERGY              -93.737188636126 Eh   |
          | TOTAL ENTHALPY            -93.239671382056 Eh   |
          | TOTAL FREE ENERGY         -93.331012879445 Eh   |
          | GRADIENT NORM               0.000063100102 Eh/α |
          | HOMO-LUMO GAP               1.578975276265 eV   |
           -------------------------------------------------

 * finished run on 2025/07/20 at 09:06:48.851
