   * xtb version 6.7.1 (edcfbbe) compiled by 'albert@albert-system' on 2024-07-22

   ID    Z sym.   atoms
    1    7 N      1, 6, 9, 14, 19
    2    6 C      2-5, 7, 8, 10-13, 15-18, 20-49, 51-63
    3   16 S      50
    4    1 H      64-92

          program call               : xtb data2507/gas/ANQDC-PSTA/ANQDC-PSTA_gas_S0_finalOpt.xtbopt.xyz --gfn 2 --spinpol --tblite --uhf 2 --ohess vtight --parallel 40 --molden --ceasefiles --namespace data2507/gas/ANQDC-PSTA/ANQDC-PSTA_gas_T1_preOpt
 * total energy  :  -154.6766839 Eh     change       -0.2615585E-07 Eh
 * total energy  :  -154.6796139 Eh     change       -0.2930055E-02 Eh
 * total energy  :  -154.6807808 Eh     change       -0.1166892E-02 Eh
 * total energy  :  -154.6808647 Eh     change       -0.8388896E-04 Eh
 * total energy  :  -154.6808486 Eh     change        0.1615857E-04 Eh
 * total energy  :  -154.6809369 Eh     change       -0.8837858E-04 Eh
 * total energy  :  -154.6808673 Eh     change        0.6963549E-04 Eh
 * total energy  :  -154.6809524 Eh     change       -0.8512327E-04 Eh
 * total energy  :  -154.6809597 Eh     change       -0.7223481E-05 Eh
 * total energy  :  -154.6809792 Eh     change       -0.1955335E-04 Eh
 * total energy  :  -154.6811399 Eh     change       -0.4845477E-06 Eh
 * total energy  :  -154.6811405 Eh     change       -0.6079293E-06 Eh
 * total energy  :  -154.6811411 Eh     change       -0.5724413E-06 Eh
 * total energy  :  -154.6811416 Eh     change       -0.5397985E-06 Eh
 * total energy  :  -154.6811422 Eh     change       -0.6269723E-06 Eh
 * total energy  :  -154.6811428 Eh     change       -0.5509820E-06 Eh
 * total energy  :  -154.6811433 Eh     change       -0.4901564E-06 Eh
 * total energy  :  -154.6811438 Eh     change       -0.5454175E-06 Eh
 * total energy  :  -154.6811438 Eh     change       -0.4020535E-08 Eh
   *** GEOMETRY OPTIMIZATION CONVERGED AFTER 94 ITERATIONS ***

 final structure:
================
92
 xtb: 6.7.1 (edcfbbe)
N           11.55333305028197       -1.55170786161993        1.66637545701763
C           10.51446309185204       -1.50597439311624        1.18109433607892
C            9.22972860076363       -1.44157187479290        0.60557123618648
C            8.14126330739563       -1.02979345663432        1.37493532797406
C            6.86593250192688       -0.95741033890332        0.82974893095746
N            5.81265483399656       -0.56253489716045        1.56515597911488
C            4.62670491370370       -0.50401355580398        1.02368951613765
C            4.42146459722710       -0.85691879960921       -0.35740322169535
N            5.44749762488507       -1.24820322375838       -1.09447427638521
C            6.66514808222675       -1.31544930282411       -0.56258815880081
C            7.77059921702982       -1.72579918618058       -1.31291826363720
C            9.03720518186441       -1.79091577127825       -0.74553191637533
C           10.13471200527673       -2.20962203730979       -1.52947538110873
N           11.01447112475002       -2.55186025295798       -2.18040783059540
C            3.03063657366014       -0.69605307599587       -0.66461224267661
C            2.24263349761428       -0.86361974484168       -1.78625967209266
C            0.87483645182408       -0.58574551534458       -1.68389489114759
C            0.27617510854580       -0.14489595401288       -0.51556131359692
N           -1.12026094182964        0.09494678731649       -0.46188524213761
C           -1.98302242717968       -0.99284263556050       -0.45793565946765
C           -1.50869509747353       -2.28913300554646       -0.68845683126884
C           -2.36930895373700       -3.36242656958044       -0.73217003355617
C           -3.74065675026307       -3.19344352574706       -0.54202797250495
C           -4.67093324060104       -4.32404585807069       -0.62661948263116
C           -4.32063194301917       -5.58004320124841       -0.13424009555257
C           -5.20045115832923       -6.64201457005139       -0.22494695040266
C           -6.44249743053938       -6.47024433701054       -0.81319011302953
C           -6.80130807817606       -5.22675268359293       -1.30665582483807
C           -5.92574670494391       -4.16180527936089       -1.21240295558397
C           -4.20148051777181       -1.91101181753124       -0.26347638016008
C           -3.34928167331375       -0.82256200059266       -0.21204459962833
C           -3.91136438599618        0.51635299105240        0.18285141690010
C           -5.21146818956122        0.80214720010961       -0.54383109306147
C           -5.41267211219545        0.94850356168348       -1.89820996832607
C           -6.70099000662805        1.19995323821360       -2.35198872805750
C           -7.75961898033222        1.30164178027910       -1.46229706412972
C           -7.56050652824310        1.15551108283530       -0.09844509452620
C           -6.27809967871329        0.90434709035421        0.36017893874005
C           -5.76429655203352        0.70039285822229        1.70635075275541
C           -6.40282009223334        0.70071033460717        2.93516357245348
C           -5.64974918735003        0.46471860061576        4.07431922620753
C           -4.28670238216823        0.22692143047490        3.98989192217884
C           -3.64140500126548        0.22480534140092        2.76035739601481
C           -4.38461544040716        0.46756268555747        1.62733911728449
C           -2.92714883872244        1.64040363945135       -0.01136878292013
C           -3.39300838549118        2.94113058999919        0.15157652928286
C           -2.56973448143527        4.03002267555827       -0.02073718562835
C           -1.24480001092966        3.82009691383244       -0.38820414840081
C           -0.75872340544544        2.51094682256341       -0.54172722045837
S            0.92205290658193        2.50456873702777       -1.05486247047806
C            0.97319965455612        4.24976595956667       -1.05710770901515
C            2.07061091063241        5.02781746870413       -1.38747830048787
C            1.93881657803316        6.40144376113993       -1.33268011533063
C            0.73281852202345        6.98532748678201       -0.95423494368730
C           -0.35780747137785        6.20706212124065       -0.62570302933457
C           -0.24886292339779        4.81982967986036       -0.67361820943030
C           -1.58556074539821        1.39301331433931       -0.33132566485146
C            1.05492768314868        0.03307135929290        0.66460546910551
C            0.63231296044815        0.47359145171821        1.93815290333584
C            1.54030375291530        0.60055023712455        2.96376540643439
C            2.90775056799461        0.31159275153178        2.81331479173033
C            3.34487373713031       -0.11949657828792        1.58366969496934
C            2.41048483044223       -0.25146105333168        0.53304898553232
H            8.28034398297071       -0.76102935483242        2.41060255759662
H            7.62286347187032       -1.99306990297627       -2.34766860043729
H            2.65912996748363       -1.19295082473379       -2.72487491046022
H            0.25328160634447       -0.70458647000261       -2.56031483166217
H           -0.45406075733181       -2.45736974091994       -0.83646765727321
H           -1.97320366421427       -4.34460724406248       -0.94064627524609
H           -3.36122817689278       -5.71751463072052        0.34268312039309
H           -4.91721768341382       -7.60837210856358        0.16610498482553
H           -7.12760616012109       -7.30164364419176       -0.88680052395034
H           -7.76724087363212       -5.08764640250126       -1.76996175176279
H           -6.20456921162009       -3.19914493089712       -1.61625938187303
H           -5.24962872148733       -1.75670314511693       -0.05368533719460
H           -4.58799583803403        0.86863111999105       -2.59157207878806
H           -6.88010489605388        1.31709759744966       -3.41042432767933
H           -8.75316224397898        1.49715872696175       -1.83814558552211
H           -8.38806733072938        1.23472787900367        0.59051430989428
H           -7.46530081181680        0.87955344487180        3.00527315263781
H           -6.13099951941092        0.46209764549965        5.04121339162715
H           -3.72005464591423        0.03915739601248        4.88979480117182
H           -2.58080151089595        0.02781359805952        2.69826698721654
H           -4.42870640446037        3.08752681405432        0.41814352503486
H           -2.94480526733388        5.03196981153990        0.11002588708833
H            3.00015135401721        4.56447354729118       -1.67950492512312
H            2.78001832852537        7.02839996584638       -1.58635055175825
H            0.65251640871524        8.06132204982143       -0.91875458895951
H           -1.29042326741126        6.66492534902606       -0.33348178284800
H           -0.40549564767905        0.72390308373091        2.10492672642057
H            1.19350542447595        0.94153126103251        3.92854429145976
H            3.58492696681447        0.43190440700239        3.64456776879751

 projected vibrational frequencies (cm⁻¹)
eigval :       -0.00     0.00     0.00     0.00     0.00     0.00
eigval :        5.15     9.19    17.10    18.90    25.10    32.10
eigval :       34.51    36.59    43.43    47.73    51.15    62.14
eigval :       66.76    78.75    81.69    86.11    96.44    98.41
eigval :      110.66   111.00   122.20   125.37   139.96   143.50
eigval :      152.18   155.43   171.57   182.88   189.30   194.73
eigval :      204.96   209.84   228.77   232.85   244.71   251.96
eigval :      275.16   282.49   289.30   292.58   308.13   311.04
eigval :      324.04   338.32   353.73   371.96   375.81   383.62
eigval :      388.14   389.90   393.29   407.25   411.81   413.73
eigval :      420.87   422.38   431.42   434.90   443.78   453.14
eigval :      457.45   461.51   479.82   481.71   483.92   488.76
eigval :      492.84   498.95   504.23   509.49   515.96   530.18
eigval :      533.79   537.80   540.52   553.49   557.83   569.80
eigval :      576.95   584.96   590.53   590.64   593.56   597.33
eigval :      623.80   626.05   626.99   630.18   642.34   644.19
eigval :      658.67   663.23   665.45   669.21   670.40   680.25
eigval :      683.60   686.25   690.14   705.67   716.91   718.45
eigval :      724.59   729.48   736.66   745.96   754.96   757.93
eigval :      773.10   779.54   782.66   785.76   791.31   813.10
eigval :      813.66   819.08   821.20   823.04   832.14   842.63
eigval :      856.67   871.63   874.85   877.16   879.83   881.55
eigval :      887.25   893.73   902.82   905.09   907.02   907.53
eigval :      908.42   910.92   915.15   918.45   920.99   923.90
eigval :      925.87   927.60   929.02   930.71   932.52   937.47
eigval :      947.22   974.30   995.15  1004.59  1021.79  1036.25
eigval :     1052.58  1073.30  1074.99  1075.91  1079.01  1084.38
eigval :     1094.27  1097.26  1116.33  1122.56  1123.46  1138.84
eigval :     1142.34  1144.71  1151.08  1161.20  1161.71  1175.43
eigval :     1178.12  1180.91  1182.41  1184.80  1187.29  1189.37
eigval :     1200.92  1202.67  1205.33  1208.56  1218.99  1224.39
eigval :     1234.32  1237.15  1239.89  1245.47  1254.04  1257.59
eigval :     1260.73  1271.72  1280.28  1283.23  1283.73  1289.24
eigval :     1303.66  1316.70  1319.74  1326.10  1329.99  1333.42
eigval :     1340.70  1342.54  1347.75  1354.33  1367.13  1376.31
eigval :     1380.42  1386.77  1403.51  1406.75  1411.49  1417.95
eigval :     1427.11  1428.40  1430.06  1431.44  1435.72  1459.73
eigval :     1460.67  1469.51  1470.07  1471.50  1480.13  1491.31
eigval :     1495.94  1520.90  1547.34  1549.37  1558.32  1571.89
eigval :     1573.61  1575.21  1580.24  1583.63  1586.15  1586.44
eigval :     1596.97  1600.72  1601.88  1604.40  1606.15  2353.98
eigval :     2364.53  3072.49  3072.58  3074.42  3075.24  3075.72
eigval :     3078.70  3079.64  3079.75  3081.69  3083.94  3085.74
eigval :     3086.21  3086.53  3088.29  3089.67  3090.51  3091.98
eigval :     3094.11  3094.29  3094.63  3095.78  3096.89  3101.23
eigval :     3101.90  3102.82  3103.13  3105.00  3109.33  3110.17

   temp. (K)  partition function   enthalpy   heat capacity  entropy
                                   cal/mol     cal/K/mol   cal/K/mol   J/K/mol
 298.15  VIB  0.178E+23            28498.231    180.092    177.357
         ROT  0.184E+09              888.752      2.981     40.800
         INT  0.328E+31            29386.983    183.073    218.157
         TR   0.225E+29             1481.254      4.968     45.954
         TOT                       30868.2368   188.0412   264.1114  1105.0421

       T/K    H(0)-H(T)+PV         H(T)/Eh          T*S/Eh         G(T)/Eh
   ------------------------------------------------------------------------
    298.15    0.491917E-01    0.714639E+00    0.125488E+00    0.589151E+00
   ------------------------------------------------------------------------

         :::::::::::::::::::::::::::::::::::::::::::::::::::::
         ::                  THERMODYNAMIC                  ::
         :::::::::::::::::::::::::::::::::::::::::::::::::::::
         :: total free energy        -154.091993074088 Eh   ::
         ::.................................................::
         :: total energy             -154.681143857255 Eh   ::
         :: zero point energy           0.665446970982 Eh   ::
         :: G(RRHO) w/o ZPVE           -0.076296187816 Eh   ::
         :: G(RRHO) contrib.            0.589150783167 Eh   ::
         :::::::::::::::::::::::::::::::::::::::::::::::::::::

           -------------------------------------------------
          | TOTAL ENERGY             -154.681143857255 Eh   |
          | TOTAL ENTHALPY           -153.966505219740 Eh   |
          | TOTAL FREE ENERGY        -154.091993074088 Eh   |
          | GRADIENT NORM               0.000127853779 Eh/α |
           -------------------------------------------------

 * finished run on 2025/08/22 at 11:18:02.950
