   * xtb version 6.7.1 (edcfbbe) compiled by 'albert@albert-system' on 2024-07-22

   ID    Z sym.   atoms
    1    7 N      1, 6, 9, 14, 19
    2    6 C      2-5, 7, 8, 10-13, 15-18, 20-49, 51-63
    3   16 S      50
    4    1 H      64-92

          program call               : xtb data2507/gas/ANQDC-PSTA/ANQDC-PSTA_gas_S0_crest.xyz --gfn 2 --ohess vtight --parallel 40 --molden --ceasefiles --namespace data2507/gas/ANQDC-PSTA/ANQDC-PSTA_gas_S0_finalOpt
          :  Hamiltonian                  GFN2-xTB          :
 * total energy  :  -154.7263346 Eh     change       -0.5781374E-08 Eh
 * total energy  :  -154.7263031 Eh     change        0.3153893E-04 Eh
 * total energy  :  -154.7263338 Eh     change       -0.3078311E-04 Eh
 * total energy  :  -154.7263291 Eh     change        0.4730728E-05 Eh
 * total energy  :  -154.7263283 Eh     change        0.8238007E-06 Eh
 * total energy  :  -154.7263379 Eh     change       -0.9609138E-05 Eh
 * total energy  :  -154.7263405 Eh     change       -0.2595162E-05 Eh
 * total energy  :  -154.7263413 Eh     change       -0.7801493E-06 Eh
 * total energy  :  -154.7263431 Eh     change       -0.1836602E-05 Eh
 * total energy  :  -154.7263458 Eh     change       -0.2672883E-05 Eh
 * total energy  :  -154.7263518 Eh     change       -0.3919461E-06 Eh
 * total energy  :  -154.7263523 Eh     change       -0.5061653E-06 Eh
 * total energy  :  -154.7263526 Eh     change       -0.3000751E-06 Eh
 * total energy  :  -154.7263526 Eh     change        0.3831474E-08 Eh
 * total energy  :  -154.7263525 Eh     change        0.5907461E-07 Eh
 * total energy  :  -154.7263528 Eh     change       -0.2933679E-06 Eh
 * total energy  :  -154.7263526 Eh     change        0.2459668E-06 Eh
 * total energy  :  -154.7263530 Eh     change       -0.4463128E-06 Eh
 * total energy  :  -154.7263531 Eh     change       -0.8007956E-07 Eh
   *** GEOMETRY OPTIMIZATION CONVERGED AFTER 27 ITERATIONS ***

 final structure:
================
92
 xtb: 6.7.1 (edcfbbe)
N           11.52942065671961       -1.39441859250245        1.72856382834650
C           10.48532113874012       -1.37980136357973        1.25734869176056
C            9.18887052245338       -1.35448297763192        0.69103192360914
C            8.12114537979557       -0.88609798485847        1.42484106995216
C            6.83467968131684       -0.86195106932062        0.86386795949346
N            5.80504096985017       -0.39581264208495        1.61667841101824
C            4.64067701246045       -0.39943943906204        1.03743770374525
C            4.44176786110616       -0.87256853008690       -0.32573622122696
N            5.41725661005596       -1.32479163323034       -1.06027036273956
C            6.64019561121453       -1.32552996606811       -0.47241707786292
C            7.73974272826855       -1.79917858656893       -1.20645266297286
C            8.99546062352000       -1.81642181906729       -0.64088012264982
C           10.10287590381016       -2.29429756757196       -1.38117855891123
N           10.99019829076100       -2.68398734097646       -1.99196198533728
C            3.03431718736898       -0.73951233768841       -0.64440699821249
C            2.25382854530207       -0.99912397200942       -1.74618223692287
C            0.88332379188951       -0.72180393368852       -1.66944599437423
C            0.28087097440964       -0.19306667690631       -0.53948681988665
N           -1.10603810505872        0.04908059216107       -0.50863927075128
C           -1.99060868168544       -1.03117029798374       -0.53539251409917
C           -1.54766843089874       -2.32796852589959       -0.80726350919432
C           -2.42835741984602       -3.38663000378416       -0.85950784697392
C           -3.78986181775267       -3.20023879989834       -0.63490749679936
C           -4.74282923731425       -4.31333435159187       -0.71939376507800
C           -4.40518674245688       -5.58295032644199       -0.25537853491263
C           -5.30630781769393       -6.62742129929108       -0.34254546638280
C           -6.55851764417777       -6.42326895887535       -0.89747987607662
C           -6.90517449453925       -5.16546958251024       -1.36203686238033
C           -6.00712983935145       -4.11873430025101       -1.27261660783294
C           -4.21862067074207       -1.91835685031696       -0.31204109232565
C           -3.34500191530134       -0.84614125810182       -0.25086529148263
C           -3.88040811003624        0.48474016733323        0.20907214834358
C           -5.20005082096770        0.80714641121461       -0.46305956472088
C           -5.44661096483577        0.99585250140547       -1.80475951834154
C           -6.74622613577096        1.27647060268426       -2.20571607812844
C           -7.77187413691988        1.36550109294358       -1.27681746600711
C           -7.52746968187608        1.17698412003894        0.07442029633820
C           -6.23344355677111        0.89623498102197        0.48019556989499
C           -5.67590963196497        0.64461065363620        1.80074064969211
C           -6.27166762655526        0.61578272898449        3.05042765409992
C           -5.48361233356986        0.33323376628530        4.15479523972052
C           -4.12839789930081        0.07732465386977        4.01517120400867
C           -3.52608038188977        0.10438846783018        2.76434332593971
C           -4.30333065284566        0.39467486591602        1.66562576846770
C           -2.89136101043635        1.60536376838006        0.01246273261760
C           -3.34600288631360        2.90811688149167        0.20313042874184
C           -2.52367210227318        3.99349178181254        0.01776637606871
C           -1.21517647898076        3.77935608965230       -0.40330826727532
C           -0.74486763770838        2.46907881655699       -0.58759395992451
S            0.91292083860614        2.46186075796422       -1.18425539837574
C            0.97098299438808        4.20654893759973       -1.17473619330408
C            2.05466635937733        4.98339867385650       -1.54887699999936
C            1.93259703339537        6.35703474486832       -1.47215838198991
C            0.74948258159725        6.94160904656702       -1.02919985650284
C           -0.32745515894766        6.16381231727789       -0.65735516199759
C           -0.22825097336563        4.77679350454175       -0.72584414459897
C           -1.56496347739703        1.35435795078760       -0.34674436069900
C            1.06256332649454        0.08951000635638        0.61840159106281
C            0.63477011947979        0.62334464087075        1.85353778140081
C            1.53647634322488        0.83693626922780        2.86972739589627
C            2.90645537546899        0.54826189415143        2.74500676389127
C            3.35190176033442        0.02333767034792        1.55717230556173
C            2.42439742037262       -0.20082936958274        0.51270395812462
H            8.25242683979828       -0.53236346185466        2.43611156737440
H            7.57815215430572       -2.14635483880895       -2.21558655639220
H            2.67880391442180       -1.39385693889124       -2.65546102710595
H            0.26686532285533       -0.90074255891405       -2.53870236283259
H           -0.49960892151319       -2.51963874117838       -0.97273713181698
H           -2.05174516491746       -4.36970090108503       -1.09864175467009
H           -3.43717495905661       -5.74583814718659        0.19574752991070
H           -5.03181739429702       -7.60530406521413        0.02591433423092
H           -7.26100376082944       -7.24053160751142       -0.96728053545722
H           -7.87956347051157       -5.00062934175021       -1.79871912662559
H           -6.27752377383577       -3.14397888905350       -1.65267247794412
H           -5.25793497546424       -1.75101247089453       -0.07043210844904
H           -4.64722016525670        0.92612847656081       -2.52821889502705
H           -6.96066108513019        1.42653285283004       -3.25349510282159
H           -8.77528584451011        1.58404315866477       -1.61186418665929
H           -8.32977255753789        1.24615468833397        0.79382232801508
H           -7.32827896165019        0.80761396940810        3.16328009865271
H           -5.93124556059920        0.30734499627475        5.13749444282513
H           -3.53441506563472       -0.14805015048228        4.88862103209628
H           -2.47179733988824       -0.10857177397640        2.65880836964916
H           -4.37227136584962        3.05597508551048        0.50326955281206
H           -2.88711612165738        4.99624846962415        0.17307376859291
H            2.96693790677869        4.51958503294904       -1.89088305702536
H            2.76398437677925        6.98296520602165       -1.75903613529279
H            0.67608070067745        8.01751867334961       -0.97744714785257
H           -1.24279157252213        6.62190970641919       -0.31499811093633
H           -0.40545027478518        0.87604423225077        1.99903858489397
H            1.18155705400872        1.24738699508408        3.80384459525737
H            3.58323972808429        0.73826150582135        3.56326243874780

          :  Hamiltonian                  GFN2-xTB          :
         :: gradient norm              0.000099070934 Eh/a0 ::
         :: HOMO-LUMO gap              1.079777297933 eV    ::
         :: SCC energy              -157.653243379643 Eh    ::
         :: -> dispersion             -0.153065649444 Eh    ::
         :: repulsion energy           2.926890275399 Eh    ::

    * Orbital Energies and Occupations

         #    Occupation            Energy/Eh            Energy/eV
      -------------------------------------------------------------
         1        2.0000           -0.7342557             -19.9801
       ...           ...                  ...                  ...
       132        2.0000           -0.4204742             -11.4417
       133        2.0000           -0.4183471             -11.3838
       134        2.0000           -0.4159414             -11.3183
       135        2.0000           -0.4110651             -11.1857
       136        2.0000           -0.4074774             -11.0880
       137        2.0000           -0.4072240             -11.0811
       138        2.0000           -0.4052365             -11.0270
       139        2.0000           -0.4026582             -10.9569
       140        2.0000           -0.3938929             -10.7184
       141        2.0000           -0.3885212             -10.5722
       142        2.0000           -0.3841662             -10.4537
       143        2.0000           -0.3713714             -10.1055
       144        2.0000           -0.3598209              -9.7912 (HOMO)
       145                         -0.3201395              -8.7114 (LUMO)
       146                         -0.3189716              -8.6797
       147                         -0.2883479              -7.8463
       148                         -0.2655974              -7.2273
       149                         -0.2608697              -7.0986
       150                         -0.2582774              -7.0281
       151                         -0.2543512              -6.9212
       152                         -0.2525260              -6.8716
       153                         -0.2386918              -6.4951
       154                         -0.2352240              -6.4008
       155                         -0.2340899              -6.3699
       ...                                ...                  ...
       286                          1.1791528              32.0864
      -------------------------------------------------------------
                  HL-Gap            0.0396814 Eh            1.0798 eV

     #   Z          covCN         q      C6AA      α(0)
     1   7 N        0.911    -0.211    25.596     7.317
     2   6 C        1.911     0.115    28.263     8.586
     3   6 C        2.974     0.025    27.449     8.594
     4   6 C        2.928    -0.028    28.689     8.784
     5   6 C        2.988     0.083    26.151     8.388
     6   7 N        1.839    -0.230    26.874     7.682
     7   6 C        3.059     0.092    25.909     8.347
     8   6 C        3.059     0.092    25.912     8.348
     9   7 N        1.839    -0.231    26.899     7.686
    10   6 C        2.988     0.083    26.135     8.386
    11   6 C        2.928    -0.028    28.694     8.785
    12   6 C        2.974     0.025    27.439     8.592
    13   6 C        1.911     0.115    28.259     8.585
    14   7 N        0.911    -0.211    25.586     7.316
    15   6 C        3.028    -0.006    28.151     8.703
    16   6 C        2.912    -0.016    28.407     8.740
    17   6 C        2.921    -0.036    28.903     8.816
    18   6 C        2.947     0.072    26.383     8.424
    19   7 N        2.749    -0.059    22.379     7.026
    20   6 C        2.923     0.055    26.757     8.483
    21   6 C        2.922    -0.058    29.439     8.898
    22   6 C        2.925    -0.036    28.899     8.816
    23   6 C        2.975     0.001    27.993     8.679
    24   6 C        2.977     0.010    27.779     8.646
    25   6 C        2.925    -0.034    28.850     8.808
    26   6 C        2.918    -0.029    28.735     8.790
    27   6 C        2.920    -0.031    28.773     8.796
    28   6 C        2.918    -0.029    28.730     8.790
    29   6 C        2.925    -0.034    28.838     8.807
    30   6 C        2.933    -0.040    28.985     8.829
    31   6 C        2.984    -0.006    28.160     8.705
    32   6 C        3.952     0.014    20.273     6.398
    33   6 C        3.058     0.002    27.931     8.667
    34   6 C        2.914    -0.032    28.787     8.798
    35   6 C        2.923    -0.031    28.771     8.796
    36   6 C        2.921    -0.032    28.787     8.798
    37   6 C        2.915    -0.034    28.839     8.806
    38   6 C        3.034     0.002    27.960     8.673
    39   6 C        3.035     0.002    27.944     8.671
    40   6 C        2.915    -0.033    28.819     8.803
    41   6 C        2.921    -0.031    28.781     8.798
    42   6 C        2.923    -0.031    28.781     8.798
    43   6 C        2.914    -0.033    28.812     8.802
    44   6 C        3.059     0.002    27.935     8.668
    45   6 C        2.986    -0.009    28.233     8.716
    46   6 C        2.925    -0.040    29.003     8.832
    47   6 C        2.915    -0.044    29.087     8.844
    48   6 C        3.116    -0.004    27.960     8.661
    49   6 C        2.996     0.014    27.684     8.631
    50  16 S        2.246    -0.123   146.206    20.351
    51   6 C        3.005     0.041    27.063     8.534
    52   6 C        2.937    -0.038    28.944     8.823
    53   6 C        2.924    -0.030    28.740     8.791
    54   6 C        2.919    -0.034    28.843     8.807
    55   6 C        2.918    -0.032    28.786     8.798
    56   6 C        3.112    -0.002    27.930     8.658
    57   6 C        2.931     0.051    26.854     8.499
    58   6 C        2.980     0.010    27.790     8.647
    59   6 C        2.918    -0.020    28.514     8.757
    60   6 C        2.920    -0.025    28.627     8.774
    61   6 C        2.912    -0.014    28.372     8.734
    62   6 C        3.028    -0.002    28.054     8.688
    63   6 C        3.139    -0.002    27.830     8.633
    64   1 H        0.926     0.068     2.112     2.272
    65   1 H        0.926     0.068     2.109     2.271
    66   1 H        0.926     0.060     2.194     2.316
    67   1 H        0.926     0.055     2.260     2.351
    68   1 H        0.926     0.032     2.554     2.499
    69   1 H        0.926     0.036     2.496     2.470
    70   1 H        0.926     0.030     2.582     2.513
    71   1 H        0.926     0.030     2.584     2.514
    72   1 H        0.926     0.030     2.583     2.513
    73   1 H        0.926     0.030     2.587     2.515
    74   1 H        0.926     0.030     2.584     2.514
    75   1 H        0.926     0.036     2.509     2.477
    76   1 H        0.926     0.027     2.634     2.538
    77   1 H        0.926     0.032     2.553     2.499
    78   1 H        0.926     0.032     2.554     2.499
    79   1 H        0.926     0.032     2.553     2.499
    80   1 H        0.926     0.033     2.537     2.491
    81   1 H        0.926     0.033     2.547     2.496
    82   1 H        0.926     0.031     2.566     2.505
    83   1 H        0.926     0.022     2.710     2.574
    84   1 H        0.926     0.037     2.488     2.467
    85   1 H        0.926     0.038     2.469     2.457
    86   1 H        0.926     0.038     2.470     2.458
    87   1 H        0.926     0.038     2.472     2.459
    88   1 H        0.926     0.037     2.495     2.470
    89   1 H        0.926     0.038     2.478     2.462
    90   1 H        0.926     0.042     2.421     2.433
    91   1 H        0.926     0.046     2.371     2.408
    92   1 H        0.926     0.057     2.236     2.338

molecular dipole:
                 x           y           z       tot (Debye)
 q only:       -3.542       0.781       0.329
   full:       -4.454       1.166       0.437      11.756

 projected vibrational frequencies (cm⁻¹)
eigval :       -0.00    -0.00    -0.00     0.00     0.00     0.00
eigval :        6.80     9.70    17.66    21.32    25.24    31.95
eigval :       34.86    35.99    44.19    48.78    51.38    63.23
eigval :       68.33    79.80    82.37    85.86    96.28    98.73
eigval :      107.32   112.82   123.31   126.44   140.08   144.21
eigval :      154.61   157.48   174.51   187.61   189.40   195.12
eigval :      205.30   209.91   233.39   239.31   246.15   255.91
eigval :      277.37   282.86   289.64   301.98   312.46   318.86
eigval :      324.27   339.39   349.40   372.51   377.08   380.83
eigval :      383.67   389.18   390.23   407.02   412.66   418.08
eigval :      421.77   428.66   433.32   437.93   444.82   450.95
eigval :      459.94   461.29   481.48   484.00   489.45   492.40
eigval :      495.86   499.48   505.65   511.25   516.05   537.70
eigval :      538.25   540.10   558.00   558.97   561.23   569.42
eigval :      584.13   585.68   590.73   593.32   596.04   602.40
eigval :      624.83   628.95   631.22   646.14   650.38   662.39
eigval :      663.67   668.37   670.51   679.35   680.33   685.47
eigval :      688.95   702.03   708.41   728.36   730.49   736.47
eigval :      738.50   739.93   749.36   754.96   758.74   762.92
eigval :      772.93   780.94   785.74   787.20   801.43   816.79
eigval :      819.16   823.55   842.00   849.95   855.56   870.95
eigval :      875.78   875.86   878.01   879.93   883.00   894.29
eigval :      895.12   898.07   902.51   904.73   906.49   909.14
eigval :      910.61   911.94   923.10   925.21   926.47   927.73
eigval :      928.75   930.06   932.27   932.59   937.90   950.74
eigval :      973.96   995.29  1005.82  1033.81  1046.71  1073.11
eigval :     1074.67  1076.40  1079.28  1084.80  1094.80  1100.26
eigval :     1106.40  1116.13  1123.06  1124.21  1138.45  1142.62
eigval :     1143.49  1151.50  1161.71  1171.09  1176.29  1178.74
eigval :     1181.63  1182.68  1186.77  1188.53  1190.50  1191.79
eigval :     1202.52  1203.92  1215.31  1226.39  1232.19  1235.65
eigval :     1239.20  1243.77  1250.53  1258.91  1263.06  1263.36
eigval :     1281.50  1283.65  1284.16  1288.11  1290.42  1318.45
eigval :     1319.60  1326.68  1329.15  1336.72  1337.29  1341.41
eigval :     1343.18  1354.37  1367.25  1370.12  1378.81  1394.27
eigval :     1407.18  1409.72  1414.38  1420.48  1428.53  1429.03
eigval :     1430.78  1436.41  1444.67  1447.73  1461.21  1466.08
eigval :     1467.76  1471.91  1475.25  1477.07  1502.06  1537.19
eigval :     1553.29  1558.70  1563.35  1567.08  1576.62  1578.33
eigval :     1582.94  1586.53  1587.40  1592.32  1593.89  1597.16
eigval :     1602.29  1602.76  1603.97  1605.28  1611.93  2375.17
eigval :     2376.50  3070.32  3071.05  3072.25  3074.74  3077.09
eigval :     3078.45  3079.89  3080.26  3082.58  3083.97  3084.73
eigval :     3086.28  3086.97  3088.27  3088.97  3089.93  3090.63
eigval :     3092.69  3093.15  3093.68  3094.65  3095.77  3101.77
eigval :     3102.30  3102.52  3105.28  3106.91  3107.96  3108.74

   temp. (K)  partition function   enthalpy   heat capacity  entropy
                                   cal/mol     cal/K/mol   cal/K/mol   J/K/mol
 298.15  VIB  0.808E+22            28262.632    178.481    175.624
         ROT  0.183E+09              888.752      2.981     40.787
         INT  0.148E+31            29151.384    181.462    216.411
         TR   0.225E+29             1481.254      4.968     45.954
         TOT                       30632.6382   186.4297   262.3651  1097.7356

       T/K    H(0)-H(T)+PV         H(T)/Eh          T*S/Eh         G(T)/Eh
   ------------------------------------------------------------------------
    298.15    0.488162E-01    0.718391E+00    0.124658E+00    0.593733E+00
   ------------------------------------------------------------------------

         :::::::::::::::::::::::::::::::::::::::::::::::::::::
         ::                  THERMODYNAMIC                  ::
         :::::::::::::::::::::::::::::::::::::::::::::::::::::
         :: total free energy        -154.132619873647 Eh   ::
         ::.................................................::
         :: total energy             -154.726353104231 Eh   ::
         :: zero point energy           0.669575146315 Eh   ::
         :: G(RRHO) w/o ZPVE           -0.075841915731 Eh   ::
         :: G(RRHO) contrib.            0.593733230584 Eh   ::
         :::::::::::::::::::::::::::::::::::::::::::::::::::::

           -------------------------------------------------
          | TOTAL ENERGY             -154.726353104231 Eh   |
          | TOTAL ENTHALPY           -154.007961741713 Eh   |
          | TOTAL FREE ENERGY        -154.132619873647 Eh   |
          | GRADIENT NORM               0.000099140795 Eh/α |
          | HOMO-LUMO GAP               1.079786618992 eV   |
           -------------------------------------------------

 * finished run on 2025/08/22 at 11:17:36.131
