   * xtb version 6.7.1 (edcfbbe) compiled by 'albert@albert-system' on 2024-07-22

   ID    Z sym.   atoms
    1    7 N      1, 6, 9, 14, 19
    2    6 C      2-5, 7, 8, 10-13, 15-18, 20-49, 51-63
    3   16 S      50
    4    1 H      64-92

          program call               : xtb data2507/gas/ANQDC-PSTA/ANQDC-PSTA.xyz --gfn 2 --ohess vtight --parallel 40 --molden --ceasefiles --namespace data2507/gas/ANQDC-PSTA/ANQDC-PSTA_gas_S0_preOpt
          :  Hamiltonian                  GFN2-xTB          :
 * total energy  :  -154.6839752 Eh     change       -0.8356665E-08 Eh
 * total energy  :  -154.7088683 Eh     change       -0.2489311E-01 Eh
 * total energy  :  -154.7189691 Eh     change       -0.1010075E-01 Eh
 * total energy  :  -154.7225026 Eh     change       -0.3533529E-02 Eh
 * total energy  :  -154.7241676 Eh     change       -0.1664952E-02 Eh
 * total energy  :  -154.7245047 Eh     change       -0.3371609E-03 Eh
 * total energy  :  -154.7245086 Eh     change       -0.3898961E-05 Eh
 * total energy  :  -154.7249490 Eh     change       -0.4403572E-03 Eh
 * total energy  :  -154.7249923 Eh     change       -0.4327799E-04 Eh
 * total energy  :  -154.7251450 Eh     change       -0.1527380E-03 Eh
 * total energy  :  -154.7258838 Eh     change       -0.3419573E-05 Eh
 * total energy  :  -154.7258877 Eh     change       -0.3827169E-05 Eh
 * total energy  :  -154.7258917 Eh     change       -0.3995767E-05 Eh
 * total energy  :  -154.7258956 Eh     change       -0.3944441E-05 Eh
 * total energy  :  -154.7258993 Eh     change       -0.3683974E-05 Eh
 * total energy  :  -154.7259025 Eh     change       -0.3173022E-05 Eh
 * total energy  :  -154.7259049 Eh     change       -0.2398883E-05 Eh
 * total energy  :  -154.7259069 Eh     change       -0.2067025E-05 Eh
 * total energy  :  -154.7259069 Eh     change       -0.7999830E-08 Eh
   *** GEOMETRY OPTIMIZATION CONVERGED AFTER 152 ITERATIONS ***

 final structure:
================
92
 xtb: 6.7.1 (edcfbbe)
N           12.22429224782166       -2.12294486704528        1.31625164525860
C           11.17315594365892       -1.99823444497329        0.87823311645482
C            9.86885376884497       -1.83941880981593        0.35278775681055
C            8.83832611212896       -1.42685846018311        1.16866468951745
C            7.54428364463922       -1.26990060253628        0.64762413657957
N            6.55158052557746       -0.86359613896187        1.48050335013601
C            5.37796618231059       -0.73695170703050        0.93451952361901
C            5.13332657611919       -1.01300836797588       -0.47454734147534
N            6.07221889504989       -1.40563482508672       -1.28596358445889
C            7.30431966472257       -1.54047566306040       -0.73343199320693
C            8.36612943057355       -1.95982146392055       -1.55104379775342
C            9.62972961094804       -2.10901966459207       -1.02376079660662
C           10.69931796624136       -2.53202049426075       -1.84837165240481
N           11.55550802473739       -2.87521278434514       -2.52761822005701
C            3.72758545507388       -0.77549668301676       -0.74040529996682
C            2.91591663626115       -0.86112818374584       -1.84654014256518
C            1.56109003399548       -0.53461507205932       -1.70077025419324
C            1.01204199082865       -0.11884886008682       -0.50083582358638
N           -0.36717852737530        0.17532833957230       -0.41649376288235
C           -1.25997445773344       -0.89552640593889       -0.40880031347645
C           -0.80470468583367       -2.20810971315700       -0.56154346560892
C           -1.68244824064525       -3.27023854033853       -0.56575955211835
C           -3.05199078159978       -3.06992172207722       -0.41201863704883
C           -3.99908734704028       -4.19110329597684       -0.43545246522451
C           -5.23515122963763       -4.05919892947747       -1.06528039459970
C           -6.12711959312980       -5.11459592732101       -1.09286625538056
C           -5.80268527083705       -6.31785520376960       -0.48875264299723
C           -4.57837205665470       -6.45923922800480        0.14268664608612
C           -3.68302372505347       -5.40651735558036        0.16786214871991
C           -3.49624890491079       -1.76631519035488       -0.22640900985335
C           -2.62565952672395       -0.69001719699484       -0.21415205683269
C           -3.19119788724351        0.68346704320228        0.03596182165508
C           -4.27686554744084        0.99226472451235       -0.97865579389520
C           -4.15449508270303        1.11197895559853       -2.34485062958909
C           -5.29452277605931        1.38257660457640       -3.09008770512710
C           -6.52761812903876        1.52742344898173       -2.47281536766120
C           -6.65427399653314        1.40843793690944       -1.09779278399879
C           -5.52048790616514        1.13989628825753       -0.34919980016347
C           -5.33730810228051        0.96116968295313        1.08366773220222
C           -6.24106052539304        1.01276322493188        2.13157503170897
C           -5.77537595308156        0.80090629462185        3.41957125408765
C           -4.43474650824161        0.54088596936540        3.65841214987602
C           -3.52442978347918        0.48645438073411        2.61125151874604
C           -3.98234623370742        0.69882709258670        1.33031670759035
C           -2.13892139904481        1.76277520663666        0.02969674826721
C           -2.57259806490440        3.06757062867273        0.25046026303204
C           -1.70552932228703        4.13290596879141        0.21318616719809
C           -0.36805951116365        3.89613637386469       -0.08612317110145
C            0.08062824429195        2.58314556326759       -0.30570497697625
S            1.79165397767154        2.55844149775688       -0.73127467245093
C            1.89809989841138        4.29550445226491       -0.59877405127345
C            3.03707490990128        5.05591972476997       -0.80448459925528
C            2.94662429107107        6.42512987413077       -0.64727774830640
C            1.74014227686046        7.02111037843631       -0.29106750543358
C            0.60819965826102        6.25941105563600       -0.08714153745158
C            0.67476042244068        4.87705936261912       -0.23905764420280
C           -0.79163178423703        1.48511095481560       -0.22028624037519
C            1.82130559470382       -0.03482461840114        0.66688943897270
C            1.43476234911192        0.34237763700699        1.97132530651726
C            2.36198387155005        0.37600490037217        2.98610906246215
C            3.71589268667145        0.04811724137580        2.79276002401630
C            4.11944560014072       -0.33025348656920        1.53618553479153
C            3.16566066270965       -0.36923344317738        0.49222722596393
H            9.00496630036949       -1.21863294188273        2.21454749015558
H            8.16954722331585       -2.16048355372476       -2.59319361897183
H            3.30369164014166       -1.16229177496837       -2.80673397835809
H            0.91181210407009       -0.59556335265167       -2.56242397481355
H            0.24983536947905       -2.40443900055989       -0.67588095130508
H           -1.29746527939715       -4.26852631479039       -0.70981638925629
H           -5.48702828415063       -3.12857214656885       -1.55333548437994
H           -7.07932288404523       -4.99953637639561       -1.59023529186198
H           -6.50078229920339       -7.14157749473549       -0.50973003878613
H           -4.32149160041472       -7.39400920380376        0.61978136955614
H           -2.73717631110596       -5.51810161470623        0.67790938285024
H           -4.54752474255236       -1.58125807438099       -0.06130994692559
H           -3.19373328130316        0.99776844778084       -2.82584312705255
H           -5.22008773512665        1.48011615122309       -4.16309624819981
H           -7.40134656593128        1.73580393603887       -3.07289257116073
H           -7.61701813740708        1.52175943957761       -0.62195937222597
H           -7.28652670037497        1.21341734941382        1.95046409805042
H           -6.46598179959616        0.83771689232727        4.24933195301827
H           -4.09484623155562        0.37760982673920        4.67045677870444
H           -2.48053117290740        0.27911103029487        2.79879776261672
H           -3.62051517502593        3.23275356131415        0.45066017523586
H           -2.05365479485251        5.13763030953834        0.38908042279421
H            3.96702143212762        4.58309029584923       -1.08022468714909
H            3.82127193406291        7.03854662159041       -0.80231912377423
H            1.69221272141755        8.09331002756161       -0.17370379450396
H           -0.32471848001975        6.72654015177783        0.18912787133892
H            0.40697817478388        0.61065523257171        2.16850758400963
H            2.04297084555636        0.66897051810152        3.97573563224352
H            4.41268143654627        0.09522560022210        3.61497876737387

          :  Hamiltonian                  GFN2-xTB          :
         :: gradient norm              0.000073924921 Eh/a0 ::
         :: HOMO-LUMO gap              0.992693680737 eV    ::
         :: SCC energy              -157.653397383159 Eh    ::
         :: -> dispersion             -0.152547755272 Eh    ::
         :: repulsion energy           2.927490456315 Eh    ::

    * Orbital Energies and Occupations

         #    Occupation            Energy/Eh            Energy/eV
      -------------------------------------------------------------
         1        2.0000           -0.7335334             -19.9605
       ...           ...                  ...                  ...
       132        2.0000           -0.4217374             -11.4761
       133        2.0000           -0.4179976             -11.3743
       134        2.0000           -0.4151930             -11.2980
       135        2.0000           -0.4111382             -11.1876
       136        2.0000           -0.4068261             -11.0703
       137        2.0000           -0.4066516             -11.0656
       138        2.0000           -0.4045416             -11.0081
       139        2.0000           -0.4024952             -10.9525
       140        2.0000           -0.3931097             -10.6971
       141        2.0000           -0.3875482             -10.5457
       142        2.0000           -0.3833483             -10.4314
       143        2.0000           -0.3728506             -10.1458
       144        2.0000           -0.3580860              -9.7440 (HOMO)
       145                         -0.3216052              -8.7513 (LUMO)
       146                         -0.3204985              -8.7212
       147                         -0.2895872              -7.8801
       148                         -0.2644904              -7.1972
       149                         -0.2597399              -7.0679
       150                         -0.2596827              -7.0663
       151                         -0.2557053              -6.9581
       152                         -0.2515810              -6.8459
       153                         -0.2376551              -6.4669
       154                         -0.2339448              -6.3660
       155                         -0.2330956              -6.3429
       ...                                ...                  ...
       286                          1.1781600              32.0594
      -------------------------------------------------------------
                  HL-Gap            0.0364808 Eh            0.9927 eV

     #   Z          covCN         q      C6AA      α(0)
     1   7 N        0.911    -0.210    25.574     7.314
     2   6 C        1.911     0.115    28.261     8.585
     3   6 C        2.974     0.025    27.439     8.592
     4   6 C        2.928    -0.027    28.685     8.783
     5   6 C        2.988     0.083    26.145     8.387
     6   7 N        1.839    -0.229    26.855     7.680
     7   6 C        3.059     0.092    25.905     8.347
     8   6 C        3.059     0.092    25.903     8.346
     9   7 N        1.839    -0.230    26.868     7.682
    10   6 C        2.988     0.083    26.134     8.386
    11   6 C        2.928    -0.027    28.688     8.784
    12   6 C        2.974     0.025    27.432     8.591
    13   6 C        1.911     0.115    28.259     8.585
    14   7 N        0.911    -0.210    25.566     7.313
    15   6 C        3.028    -0.005    28.116     8.698
    16   6 C        2.912    -0.015    28.395     8.738
    17   6 C        2.922    -0.034    28.851     8.808
    18   6 C        2.951     0.074    26.341     8.418
    19   7 N        2.750    -0.062    22.431     7.034
    20   6 C        2.927     0.056    26.752     8.482
    21   6 C        2.922    -0.058    29.431     8.896
    22   6 C        2.925    -0.036    28.899     8.816
    23   6 C        2.975     0.001    28.005     8.681
    24   6 C        2.977     0.010    27.779     8.645
    25   6 C        2.925    -0.034    28.839     8.807
    26   6 C        2.918    -0.029    28.730     8.790
    27   6 C        2.920    -0.031    28.777     8.797
    28   6 C        2.918    -0.030    28.737     8.791
    29   6 C        2.925    -0.034    28.853     8.809
    30   6 C        2.933    -0.039    28.981     8.829
    31   6 C        2.984    -0.006    28.165     8.705
    32   6 C        3.952     0.014    20.276     6.398
    33   6 C        3.059     0.002    27.930     8.667
    34   6 C        2.914    -0.032    28.794     8.799
    35   6 C        2.923    -0.031    28.770     8.796
    36   6 C        2.921    -0.032    28.788     8.799
    37   6 C        2.915    -0.034    28.836     8.806
    38   6 C        3.034     0.002    27.956     8.673
    39   6 C        3.034     0.002    27.950     8.672
    40   6 C        2.915    -0.033    28.831     8.805
    41   6 C        2.921    -0.031    28.783     8.798
    42   6 C        2.923    -0.031    28.775     8.797
    43   6 C        2.914    -0.031    28.785     8.798
    44   6 C        3.058     0.002    27.934     8.668
    45   6 C        2.986    -0.010    28.259     8.720
    46   6 C        2.925    -0.040    28.990     8.830
    47   6 C        2.915    -0.045    29.109     8.847
    48   6 C        3.117    -0.004    27.956     8.660
    49   6 C        2.995     0.013    27.704     8.634
    50  16 S        2.250    -0.128   146.415    20.366
    51   6 C        3.004     0.041    27.057     8.533
    52   6 C        2.937    -0.038    28.948     8.824
    53   6 C        2.924    -0.030    28.744     8.792
    54   6 C        2.919    -0.034    28.846     8.807
    55   6 C        2.918    -0.032    28.788     8.799
    56   6 C        3.113    -0.002    27.926     8.657
    57   6 C        2.927     0.051    26.846     8.497
    58   6 C        2.982     0.012    27.750     8.641
    59   6 C        2.917    -0.018    28.467     8.749
    60   6 C        2.920    -0.024    28.608     8.771
    61   6 C        2.912    -0.014    28.357     8.732
    62   6 C        3.027    -0.002    28.043     8.686
    63   6 C        3.140    -0.002    27.823     8.632
    64   1 H        0.926     0.068     2.106     2.269
    65   1 H        0.926     0.068     2.103     2.268
    66   1 H        0.926     0.062     2.180     2.309
    67   1 H        0.926     0.054     2.267     2.354
    68   1 H        0.926     0.028     2.619     2.531
    69   1 H        0.926     0.036     2.506     2.475
    70   1 H        0.926     0.030     2.586     2.515
    71   1 H        0.926     0.030     2.589     2.516
    72   1 H        0.926     0.030     2.585     2.514
    73   1 H        0.926     0.030     2.588     2.516
    74   1 H        0.926     0.030     2.587     2.515
    75   1 H        0.926     0.035     2.513     2.479
    76   1 H        0.926     0.026     2.651     2.546
    77   1 H        0.926     0.032     2.556     2.500
    78   1 H        0.926     0.032     2.555     2.500
    79   1 H        0.926     0.032     2.552     2.498
    80   1 H        0.926     0.033     2.547     2.496
    81   1 H        0.926     0.032     2.554     2.499
    82   1 H        0.926     0.031     2.565     2.505
    83   1 H        0.926     0.022     2.709     2.574
    84   1 H        0.926     0.036     2.500     2.472
    85   1 H        0.926     0.038     2.479     2.462
    86   1 H        0.926     0.038     2.481     2.463
    87   1 H        0.926     0.038     2.478     2.462
    88   1 H        0.926     0.036     2.500     2.472
    89   1 H        0.926     0.038     2.480     2.463
    90   1 H        0.926     0.043     2.414     2.429
    91   1 H        0.926     0.047     2.357     2.401
    92   1 H        0.926     0.058     2.226     2.333

molecular dipole:
                 x           y           z       tot (Debye)
 q only:       -3.303       0.828       0.486
   full:       -4.202       1.248       0.628      11.255

 projected vibrational frequencies (cm⁻¹)
eigval :       -0.00    -0.00     0.00     0.00     0.00     0.00
eigval :       -1.77     9.18    14.20    16.30    24.52    32.58
eigval :       33.72    36.19    42.50    45.09    51.06    62.24
eigval :       65.48    77.93    81.79    86.09    96.07    98.45
eigval :      106.32   111.46   119.66   125.25   140.42   143.02
eigval :      148.61   155.72   169.91   183.67   190.25   194.75
eigval :      205.31   211.10   232.18   238.25   242.08   252.45
eigval :      278.41   284.09   289.37   300.98   311.56   318.16
eigval :      324.74   339.38   348.18   372.48   377.06   379.77
eigval :      381.24   387.64   390.00   406.68   412.72   415.62
eigval :      424.04   428.16   429.68   437.09   444.90   450.29
eigval :      458.19   462.10   481.64   483.26   489.15   492.65
eigval :      496.05   498.31   505.80   511.63   517.50   537.86
eigval :      538.14   540.69   555.45   558.14   561.74   569.72
eigval :      584.38   584.88   590.56   593.11   594.32   602.35
eigval :      624.80   628.41   631.16   646.09   651.43   661.85
eigval :      664.53   667.22   670.69   679.01   681.97   683.12
eigval :      688.50   702.13   708.54   728.70   730.46   736.10
eigval :      738.55   740.20   748.77   755.32   758.67   763.09
eigval :      772.84   780.26   785.49   787.35   800.50   817.08
eigval :      818.47   823.36   840.72   844.78   855.60   870.79
eigval :      875.94   876.03   877.50   879.39   882.35   893.90
eigval :      895.41   896.60   902.45   904.58   906.35   908.37
eigval :      909.91   912.79   917.02   922.98   925.49   927.12
eigval :      927.30   928.47   930.55   932.29   937.48   950.73
eigval :      974.28   995.95  1005.74  1033.09  1046.77  1072.67
eigval :     1074.19  1076.44  1079.07  1084.67  1094.32  1099.91
eigval :     1105.99  1115.41  1122.89  1124.30  1138.80  1142.51
eigval :     1143.30  1151.91  1161.72  1170.84  1176.73  1178.83
eigval :     1181.57  1182.70  1185.60  1187.49  1190.64  1191.66
eigval :     1202.45  1204.25  1214.03  1225.08  1231.09  1235.78
eigval :     1239.89  1244.74  1249.82  1259.07  1262.98  1263.53
eigval :     1283.17  1283.48  1284.11  1288.20  1289.85  1318.52
eigval :     1319.79  1326.95  1330.73  1336.68  1337.60  1341.72
eigval :     1345.30  1354.39  1367.40  1370.34  1379.93  1393.68
eigval :     1407.68  1409.96  1414.13  1420.72  1429.25  1430.05
eigval :     1430.85  1436.48  1446.09  1448.50  1461.34  1466.33
eigval :     1469.13  1471.81  1476.03  1478.62  1503.44  1538.34
eigval :     1554.18  1559.87  1564.33  1568.33  1576.87  1579.19
eigval :     1583.24  1586.61  1587.42  1593.08  1594.74  1597.46
eigval :     1602.45  1603.54  1604.30  1605.51  1611.84  2375.43
eigval :     2376.54  3070.62  3070.92  3071.89  3073.73  3076.65
eigval :     3077.65  3079.62  3080.00  3082.36  3083.59  3084.41
eigval :     3086.40  3086.55  3087.95  3088.05  3089.31  3090.52
eigval :     3092.31  3092.52  3092.89  3094.24  3095.43  3101.44
eigval :     3102.56  3102.69  3103.70  3105.04  3107.74  3108.83

   temp. (K)  partition function   enthalpy   heat capacity  entropy
                                   cal/mol     cal/K/mol   cal/K/mol   J/K/mol
 298.15  VIB  0.746E+23            28346.869    178.374    178.014
         ROT  0.184E+09              888.752      2.981     40.801
         INT  0.137E+32            29235.622    181.355    218.815
         TR   0.225E+29             1481.254      4.968     45.954
         TOT                       30716.8757   186.3234   264.7694  1107.7954

       T/K    H(0)-H(T)+PV         H(T)/Eh          T*S/Eh         G(T)/Eh
   ------------------------------------------------------------------------
    298.15    0.489505E-01    0.718301E+00    0.125801E+00    0.592500E+00
   ------------------------------------------------------------------------

         :::::::::::::::::::::::::::::::::::::::::::::::::::::
         ::                  THERMODYNAMIC                  ::
         :::::::::::::::::::::::::::::::::::::::::::::::::::::
         :: total free energy        -154.133406784696 Eh   ::
         ::.................................................::
         :: total energy             -154.725906926842 Eh   ::
         :: zero point energy           0.669350192030 Eh   ::
         :: G(RRHO) w/o ZPVE           -0.076850049883 Eh   ::
         :: G(RRHO) contrib.            0.592500142146 Eh   ::
         :::::::::::::::::::::::::::::::::::::::::::::::::::::

           -------------------------------------------------
          | TOTAL ENERGY             -154.725906926842 Eh   |
          | TOTAL ENTHALPY           -154.007606277501 Eh   |
          | TOTAL FREE ENERGY        -154.133406784696 Eh   |
          | GRADIENT NORM               0.000073903818 Eh/α |
          | HOMO-LUMO GAP               0.992692571946 eV   |
           -------------------------------------------------

 * finished run on 2025/08/22 at 11:10:15.327
