   * xtb version 6.7.1 (edcfbbe) compiled by 'albert@albert-system' on 2024-07-22

   ID    Z sym.   atoms
    1    7 N      1, 6, 9, 14, 19
    2    6 C      2-5, 7, 8, 10-13, 15-18, 20-49, 51-63
    3   16 S      50
    4    1 H      64-92

          program call               : xtb data2507/gas/ANQDC-PSTA/ANQDC-PSTA_gas_T1_crest.xyz --gfn 2 --spinpol --tblite --uhf 2 --ohess vtight --parallel 40 --molden --ceasefiles --namespace data2507/gas/ANQDC-PSTA/ANQDC-PSTA_gas_T1_finalOpt
 * total energy  :  -154.6809527 Eh     change        0.1677657E-07 Eh
 * total energy  :  -154.6811212 Eh     change       -0.1684890E-03 Eh
 * total energy  :  -154.6810112 Eh     change        0.1100247E-03 Eh
 * total energy  :  -154.6813867 Eh     change       -0.3755671E-03 Eh
 * total energy  :  -154.6814054 Eh     change       -0.1864957E-04 Eh
 * total energy  :  -154.6813984 Eh     change        0.6928194E-05 Eh
 * total energy  :  -154.6814286 Eh     change       -0.3013266E-04 Eh
 * total energy  :  -154.6814307 Eh     change       -0.2085643E-05 Eh
 * total energy  :  -154.6814321 Eh     change       -0.1417246E-05 Eh
 * total energy  :  -154.6814330 Eh     change       -0.9013571E-06 Eh
 * total energy  :  -154.6814354 Eh     change       -0.3201123E-06 Eh
 * total energy  :  -154.6814357 Eh     change       -0.3107092E-06 Eh
 * total energy  :  -154.6814357 Eh     change        0.6620630E-07 Eh
 * total energy  :  -154.6814359 Eh     change       -0.2645716E-06 Eh
 * total energy  :  -154.6814362 Eh     change       -0.2905432E-06 Eh
 * total energy  :  -154.6814368 Eh     change       -0.5609471E-06 Eh
 * total energy  :  -154.6814343 Eh     change        0.2511609E-05 Eh
 * total energy  :  -154.6814369 Eh     change       -0.2667175E-05 Eh
 * total energy  :  -154.6814370 Eh     change       -0.6253237E-07 Eh
   *** GEOMETRY OPTIMIZATION CONVERGED AFTER 24 ITERATIONS ***

 final structure:
================
92
 xtb: 6.7.1 (edcfbbe)
N           11.59945831560055       -1.85947673335915        1.26938523743529
C           10.55917967925992       -1.66365674403294        0.82602930110108
C            9.27334266184008       -1.42278490770638        0.30292799322435
C            8.17809580606589       -1.32189868764054        1.16131047819739
C            6.90214914837725       -1.08554719991303        0.66778498453333
N            5.84196501422940       -0.98813667132157        1.49071460875455
C            4.65685395277866       -0.76695799917857        0.99691411017910
C            4.45396051464185       -0.62292267340152       -0.42328845750876
N            5.48747045733992       -0.71593266190138       -1.24532891740722
C            6.70522052096343       -0.94132228715789       -0.76275226844462
C            7.81859322113623       -1.04599087212633       -1.60343717828103
C            9.08516977680072       -1.28279368549145       -1.08686463186688
C           10.18984874525376       -1.38360058258899       -1.96150723340741
N           11.07482006378352       -1.46294532304507       -2.68614099088336
C            3.06133219677592       -0.39254261089397       -0.66198661204404
C            2.27104657157849       -0.18985747616903       -1.77707705228196
C            0.89782984975754        0.00712075182496       -1.58996888369578
C            0.29976406117025        0.02123684706109       -0.34259765181154
N           -1.10651645249313        0.20258841279031       -0.23452836320658
C           -1.89176521649674       -0.93808640604267       -0.18934688777789
C           -1.29940396608052       -2.20639288097528       -0.19539272696879
C           -2.06891250500067       -3.34601792561744       -0.14209918921087
C           -3.46075949140745       -3.27123018948390       -0.07978679704389
C           -4.28845542882666       -4.47993227401052       -0.00832924441139
C           -5.42785316728191       -4.51133570799888        0.79452710106519
C           -6.20581145723085       -5.65114402393386        0.86748574625506
C           -5.86379557917482       -6.77698724748169        0.13671535142515
C           -4.73590273854673       -6.75622378485482       -0.66681718620080
C           -3.95288928853617       -5.61959935228247       -0.73731395302194
C           -4.04446061235290       -2.00852658357661       -0.08381487674305
C           -3.28567049155105       -0.85324079039805       -0.13729905115244
C           -3.98811990948234        0.47748038524799       -0.16399334763220
C           -4.85561511202940        0.58373282422077       -1.40729378922790
C           -4.45601484960178        0.58779108111593       -2.72463649084448
C           -5.42899976150012        0.68975388415477       -3.71017796213624
C           -6.77096367020714        0.78394421563613       -3.37495782055508
C           -7.17617036133019        0.77958538486326       -2.04969560748475
C           -6.21047670154631        0.67925128300680       -1.06221916914883
C           -6.32229104241005        0.65276457943292        0.38865961744842
C           -7.42825159857845        0.71333611781869        1.22004470883512
C           -7.23033146743503        0.66583357330531        2.59107230789381
C           -5.95462737818870        0.56025303943042        3.12370913974654
C           -4.84183844651257        0.49798210947750        2.29508292386157
C           -5.03471581388482        0.54538377452132        0.93260759323299
C           -3.03820433555790        1.64417198291079       -0.08562574265520
C           -3.59476041899732        2.91490971910636        0.01312081315115
C           -2.81107667742348        4.04429795584163        0.07670470433563
C           -1.42777318152382        3.90562766115964        0.04181207330116
C           -0.85237467192828        2.62794747881150       -0.06404685144824
S            0.90292011695125        2.71214799596641       -0.08152867017377
C            0.86401872873191        4.45254978254517        0.05612639157661
C            1.96910690429519        5.28634016948152        0.10655266389271
C            1.75758467885714        6.64704820256943        0.21099699229025
C            0.46568746887893        7.16367557519129        0.26363224416689
C           -0.63237169143304        6.33012446791980        0.21334275966604
C           -0.44388749195049        4.95461575114588        0.10816759766221
C           -1.64734009999647        1.47021991714936       -0.13319542212941
C            1.07537011479521       -0.20684709750868        0.82998749109139
C            0.64225171484116       -0.24923493815451        2.17279583298646
C            1.54937529755303       -0.46940961118555        3.18380736309469
C            2.92252734505973       -0.65902403953219        2.95000225687302
C            3.36794091309729       -0.62354714128837        1.65004089047455
C            2.43610210074906       -0.39896268761628        0.61442852279296
H            8.31284577419179       -1.42780523550174        2.22661611531491
H            7.67466947968070       -0.93905431733414       -2.66732101009046
H            2.68906284550601       -0.18185127649756       -2.77100944167788
H            0.27167299324639        0.16821871077158       -2.45628019852575
H           -0.22524360488651       -2.29566657357378       -0.23664542528678
H           -1.58216822318115       -4.30926466482722       -0.12515912769611
H           -5.69014717064389       -3.64303845253402        1.38173958376212
H           -7.08202663330275       -5.66296747592378        1.49925548776973
H           -6.47334494721918       -7.66651184532660        0.19326010567429
H           -4.46679999869548       -7.62983472576733       -1.24244904236160
H           -3.08521468320592       -5.60456825155821       -1.38055305878781
H           -5.12069718470717       -1.91981777672937       -0.06758724805898
H           -3.41045686371793        0.51371603587786       -2.98680006814502
H           -5.13675152784800        0.69543267266821       -4.74970697293137
H           -7.51033651692231        0.86191336231022       -4.15840423188995
H           -8.22255661825041        0.85322352785177       -1.79376525463300
H           -8.42376322999524        0.79486123875848        0.81004323006232
H           -8.08133043193969        0.71150648409524        3.25464707349237
H           -5.82451880385890        0.52507565394946        4.19514358988059
H           -3.84815939607646        0.41418421262910        2.71102836461770
H           -4.67021271276247        3.00471368172433        0.03932375599855
H           -3.25708957564159        5.02243485497951        0.15380502795755
H            2.96558574255972        4.87488373241340        0.06445079599813
H            2.60317274154659        7.31664251625870        0.25184622087958
H            0.32407524534145        8.23084768626443        0.34468258752107
H           -1.63156950761830        6.73597353273805        0.25422420281515
H           -0.40370018581636       -0.10809763188225        2.40411225512885
H            1.19716491157817       -0.49768957123092        4.20473331488964
H            3.59775837487232       -0.82615945143829        3.77474858508369

 projected vibrational frequencies (cm⁻¹)
eigval :       -0.00    -0.00    -0.00     0.00     0.00     0.00
eigval :        3.25     9.25    11.27    16.16    23.94    32.68
eigval :       34.17    37.04    41.77    46.04    51.56    61.24
eigval :       62.98    77.77    82.65    87.44    95.74    97.69
eigval :      110.12   113.60   114.74   125.33   141.21   142.72
eigval :      142.96   158.13   172.75   173.50   190.48   194.43
eigval :      205.25   210.06   229.74   232.02   240.39   247.68
eigval :      274.45   284.71   292.22   296.37   304.75   317.42
eigval :      322.90   329.85   352.05   372.05   375.56   384.32
eigval :      388.38   391.26   392.36   407.32   411.84   412.71
eigval :      422.43   426.20   427.69   433.15   442.17   453.23
eigval :      455.80   462.34   479.79   481.48   482.54   487.66
eigval :      494.52   497.25   505.31   507.41   522.58   529.01
eigval :      533.66   537.77   541.96   552.78   557.71   570.71
eigval :      576.82   584.78   587.84   590.42   593.01   597.96
eigval :      624.10   625.25   627.41   630.30   643.00   644.62
eigval :      660.96   663.58   664.40   670.07   670.43   681.03
eigval :      685.18   685.80   690.12   704.57   717.15   718.35
eigval :      725.17   729.79   736.63   745.70   755.47   758.00
eigval :      773.15   779.44   782.53   785.65   791.80   812.87
eigval :      815.03   818.88   822.73   823.13   824.09   843.45
eigval :      864.97   871.75   874.90   877.94   879.12   881.37
eigval :      887.60   893.69   898.52   902.94   905.28   907.51
eigval :      909.46   909.84   914.95   920.51   920.68   924.00
eigval :      925.03   927.74   928.70   930.71   932.49   936.95
eigval :      946.90   974.86   995.38  1004.55  1020.94  1037.18
eigval :     1059.51  1073.94  1075.82  1075.95  1079.07  1084.23
eigval :     1093.37  1096.55  1117.31  1122.50  1123.43  1139.63
eigval :     1142.39  1145.73  1150.82  1161.10  1161.83  1175.84
eigval :     1178.28  1180.41  1182.42  1183.51  1187.00  1189.04
eigval :     1201.62  1202.59  1206.00  1207.91  1218.38  1222.45
eigval :     1234.56  1238.67  1240.81  1246.29  1253.50  1257.84
eigval :     1260.81  1273.95  1281.59  1283.18  1283.71  1291.16
eigval :     1304.43  1317.37  1319.86  1326.12  1330.57  1335.85
eigval :     1340.69  1344.01  1346.78  1354.01  1367.24  1378.24
eigval :     1379.75  1387.94  1404.66  1405.93  1412.17  1417.96
eigval :     1428.73  1428.77  1430.04  1431.78  1435.79  1460.06
eigval :     1460.50  1469.38  1471.55  1472.16  1478.59  1491.29
eigval :     1496.28  1524.85  1547.31  1549.49  1558.41  1571.60
eigval :     1574.45  1575.65  1580.17  1583.67  1586.00  1586.32
eigval :     1597.09  1600.58  1601.80  1604.36  1606.05  2353.02
eigval :     2365.63  3072.45  3073.93  3074.33  3074.43  3076.05
eigval :     3078.37  3078.60  3079.41  3081.57  3083.92  3085.66
eigval :     3086.15  3087.17  3088.11  3089.63  3090.55  3091.43
eigval :     3093.35  3094.27  3094.52  3095.65  3096.82  3101.17
eigval :     3101.65  3102.73  3103.02  3105.70  3106.04  3109.37

   temp. (K)  partition function   enthalpy   heat capacity  entropy
                                   cal/mol     cal/K/mol   cal/K/mol   J/K/mol
 298.15  VIB  0.625E+23            28549.118    179.968    178.714
         ROT  0.186E+09              888.752      2.981     40.820
         INT  0.116E+32            29437.870    182.949    219.534
         TR   0.225E+29             1481.254      4.968     45.954
         TOT                       30919.1238   187.9172   265.4881  1110.8023

       T/K    H(0)-H(T)+PV         H(T)/Eh          T*S/Eh         G(T)/Eh
   ------------------------------------------------------------------------
    298.15    0.492728E-01    0.714671E+00    0.126142E+00    0.588529E+00
   ------------------------------------------------------------------------

         :::::::::::::::::::::::::::::::::::::::::::::::::::::
         ::                  THERMODYNAMIC                  ::
         :::::::::::::::::::::::::::::::::::::::::::::::::::::
         :: total free energy        -154.092907518740 Eh   ::
         ::.................................................::
         :: total energy             -154.681436909457 Eh   ::
         :: zero point energy           0.665398604777 Eh   ::
         :: G(RRHO) w/o ZPVE           -0.076869214060 Eh   ::
         :: G(RRHO) contrib.            0.588529390717 Eh   ::
         :::::::::::::::::::::::::::::::::::::::::::::::::::::

           -------------------------------------------------
          | TOTAL ENERGY             -154.681436909457 Eh   |
          | TOTAL ENTHALPY           -153.966765544578 Eh   |
          | TOTAL FREE ENERGY        -154.092907518740 Eh   |
          | GRADIENT NORM               0.000135153388 Eh/α |
           -------------------------------------------------

 * finished run on 2025/08/22 at 11:29:04.681
