   * xtb version 6.7.1 (edcfbbe) compiled by 'albert@albert-system' on 2024-07-22

   ID    Z sym.   atoms
    1    6 C      1-11, 13-45, 47-53, 55, 56
    2    7 N      12, 46, 54
    3    1 H      57-89

          program call               : xtb data2507/gas/SFI34pPM/SFI34pPM_gas_S0_crest.xyz --gfn 2 --ohess vtight --parallel 40 --molden --ceasefiles --namespace data2507/gas/SFI34pPM/SFI34pPM_gas_S0_finalOpt
          :  Hamiltonian                  GFN2-xTB          :
 * total energy  :  -139.1597771 Eh     change       -0.5523020E-08 Eh
 * total energy  :  -139.1597789 Eh     change       -0.1798667E-05 Eh
 * total energy  :  -139.1597802 Eh     change       -0.1304135E-05 Eh
 * total energy  :  -139.1597825 Eh     change       -0.2233909E-05 Eh
 * total energy  :  -139.1597846 Eh     change       -0.2120056E-05 Eh
 * total energy  :  -139.1597863 Eh     change       -0.1697650E-05 Eh
 * total energy  :  -139.1597873 Eh     change       -0.1004353E-05 Eh
 * total energy  :  -139.1597882 Eh     change       -0.9285189E-06 Eh
 * total energy  :  -139.1597893 Eh     change       -0.1123253E-05 Eh
 * total energy  :  -139.1597905 Eh     change       -0.1193404E-05 Eh
 * total energy  :  -139.1598007 Eh     change       -0.2279259E-06 Eh
 * total energy  :  -139.1598010 Eh     change       -0.2570686E-06 Eh
 * total energy  :  -139.1598013 Eh     change       -0.3425869E-06 Eh
 * total energy  :  -139.1598018 Eh     change       -0.4966367E-06 Eh
 * total energy  :  -139.1598025 Eh     change       -0.6728332E-06 Eh
 * total energy  :  -139.1598032 Eh     change       -0.7287881E-06 Eh
 * total energy  :  -139.1598039 Eh     change       -0.6301426E-06 Eh
 * total energy  :  -139.1598044 Eh     change       -0.5676226E-06 Eh
 * total energy  :  -139.1598044 Eh     change       -0.4434753E-08 Eh
   *** GEOMETRY OPTIMIZATION CONVERGED AFTER 44 ITERATIONS ***

 final structure:
================
89
 xtb: 6.7.1 (edcfbbe)
C           10.14568088456891        3.93882387917873       -0.80113767900066
C           10.38488565685876        2.61817303408511       -1.14578018905652
C            9.41057288650404        1.66134329532551       -0.93893350141540
C            8.17815933179677        2.01464633396512       -0.39226917871700
C            7.16158323193184        0.97330646724570       -0.19356489621310
C            5.79420749675724        1.24720861874831       -0.19159884422983
C            4.92838451832261        0.17064841648084       -0.00152416543035
C            3.46892750026457        0.31708150820042        0.02277326410997
C            2.81869922937891        1.37635756013483       -0.60745143799011
C            1.44338745357469        1.47927549542596       -0.56856108820761
C            0.68653547299197        0.52776607305991        0.11147527404989
N           -0.70719692460331        0.63919892419703        0.15606922852703
C           -1.41368874526147        1.76713632428127        0.52321163265389
C           -0.93486534914489        2.99135415539018        0.96623189683651
C           -1.85809404076153        3.96125473094066        1.30493618552978
C           -3.22566537153371        3.71715809727851        1.21471743035312
C           -3.70695120462420        2.49170152684325        0.79907434607720
C           -2.80025109232434        1.49850517501092        0.45197791164813
C           -2.92924620981238        0.13514010551425        0.00982936205179
C           -3.98311198339943       -0.71813928427389       -0.27617738012178
C           -3.70809290046813       -2.01757089380961       -0.72505974704946
C           -2.40501526749158       -2.47135169970992       -0.90872356384851
C           -1.34117990530701       -1.63769882183509       -0.62811941518928
C           -1.60783320079386       -0.35815392468422       -0.15713673473527
C           -4.96566228248560       -2.70837416896088       -0.95163522778264
C           -5.23906406320157       -3.99509259427099       -1.38669907566117
C           -6.56225935714735       -4.38699665423312       -1.50910343333280
C           -7.59577544625897       -3.51409874086166       -1.20428365058802
C           -7.32931538759618       -2.22304842884610       -0.76820552254838
C           -6.01462988642600       -1.83268021360026       -0.64605210193989
C           -5.47056751130841       -0.49279226446745       -0.19401004241005
C           -6.01478531462071       -0.13443413383096        1.16678187622643
C           -5.78856385224201       -0.75978477675364        2.37244166821365
C           -6.43878332947570       -0.27544522338076        3.49967524138966
C           -7.30286962696844        0.80548254049303        3.41251813623113
C           -7.53391847337472        1.43652281310515        2.20061590651220
C           -6.88363836562045        0.96342233875645        1.07315075480917
C           -6.88742312194998        1.43158427293252       -0.30529416797758
C           -7.54121149543572        2.49343721841557       -0.90769580243234
C           -7.31629398483558        2.73225648552738       -2.25405202276541
C           -6.45490423828253        1.92913019778455       -2.98593066454673
C           -5.80129956323834        0.85835110286000       -2.39064552777705
C           -6.02149981948510        0.61882921273761       -1.05274040784306
C            1.33046204610556       -0.53543741457979        0.74204010747542
C            2.70349999679410       -0.63993876772202        0.68924738888915
N            5.40091102384610       -1.05975073589096        0.18610729803629
C            6.71697339623107       -1.23361437899631        0.16046697685649
C            7.22440139028021       -2.59465659697348        0.35804615207733
C            8.59243653405771       -2.81971571984595        0.49536954265247
C            9.06833119090715       -4.10289903209550        0.68373869760177
C            8.18701500213932       -5.17139691559577        0.73602774745715
C            6.82510325713493       -4.95335025768285        0.59915859675091
C            6.34308726247878       -3.67238635495690        0.41134040690421
N            7.60947791462330       -0.26872562282370       -0.03036161542311
C            7.94850166489588        3.34268014239000       -0.04129586536752
C            8.92895968821436        4.29612424391878       -0.24402231515071
H           10.90723339347896        4.68779801424462       -0.96125906063244
H           11.33471049384104        2.33581431158629       -1.57573692236870
H            9.58105630694913        0.62843068941761       -1.20034131386233
H            5.42464409940292        2.24861812347136       -0.33278447721408
H            3.38411643213513        2.11035028631123       -1.16180187056284
H            0.94290337493930        2.28671656419070       -1.08200892772003
H            0.12482999386572        3.17735434060465        1.05612523963091
H           -1.51183477257566        4.92445588693195        1.64975810625201
H           -3.92101673417340        4.49790580667785        1.48444427114406
H           -4.76686374192108        2.31173593587516        0.75093857410340
H           -2.22748869087299       -3.47111631967733       -1.27465784842904
H           -0.32545989312306       -1.96765108340037       -0.78411511363336
H           -4.43871513570648       -4.67977594514431       -1.62538036128440
H           -6.79335724672158       -5.38705644609424       -1.84657092541591
H           -8.61974884521696       -3.84194065430611       -1.30687301967278
H           -8.13361839798760       -1.54181270299308       -0.53024323126476
H           -5.11905477259049       -1.60503385992079        2.43862748332368
H           -6.27105408023611       -0.74803457058781        4.45633218832893
H           -7.80070719956185        1.16169272877708        4.30273583645407
H           -8.20524026949348        2.28034708610695        2.13823511860678
H           -8.21012599120921        3.12405382036635       -0.34070121426903
H           -7.81667097879188        3.55717292229811       -2.74024282617612
H           -6.29178956221097        2.13800699593002       -4.03305383750590
H           -5.13350379778163        0.22945618363683       -2.96130975588705
H            0.74672079600514       -1.26416399353942        1.28421911202079
H            3.21297831464978       -1.45730288911211        1.17507236601694
H            9.26369174898280       -1.97607463264958        0.45614898342661
H           10.12964089969983       -4.27394167185300        0.79155932972073
H            8.56156616754181       -6.17402103666558        0.88347057581929
H            6.13924288157619       -5.78723756097608        0.63885810090700
H            5.28659260695916       -3.48531184144924        0.29912490047342
H            7.01242050433459        3.63056112980408        0.41441689502703
H            8.74421521853416        5.32299233389248        0.03631740097866

          :  Hamiltonian                  GFN2-xTB          :
         :: gradient norm              0.000048675866 Eh/a0 ::
         :: HOMO-LUMO gap              2.129395229498 eV    ::
         :: SCC energy              -141.808437616576 Eh    ::
         :: -> dispersion             -0.131607267451 Eh    ::
         :: repulsion energy           2.648633178343 Eh    ::

    * Orbital Energies and Occupations

         #    Occupation            Energy/Eh            Energy/eV
      -------------------------------------------------------------
         1        2.0000           -0.6776443             -18.4396
       ...           ...                  ...                  ...
       118        2.0000           -0.4076530             -11.0928
       119        2.0000           -0.4047282             -11.0132
       120        2.0000           -0.4043786             -11.0037
       121        2.0000           -0.4040045             -10.9935
       122        2.0000           -0.3942638             -10.7285
       123        2.0000           -0.3939234             -10.7192
       124        2.0000           -0.3935430             -10.7088
       125        2.0000           -0.3916400             -10.6571
       126        2.0000           -0.3889292             -10.5833
       127        2.0000           -0.3780696             -10.2878
       128        2.0000           -0.3764259             -10.2431
       129        2.0000           -0.3580781              -9.7438
       130        2.0000           -0.3574020              -9.7254 (HOMO)
       131                         -0.2791482              -7.5960 (LUMO)
       132                         -0.2698983              -7.3443
       133                         -0.2499861              -6.8025
       134                         -0.2467220              -6.7136
       135                         -0.2440874              -6.6420
       136                         -0.2386634              -6.4944
       137                         -0.2354945              -6.4081
       138                         -0.2281533              -6.2084
       139                         -0.2227698              -6.0619
       140                         -0.2224570              -6.0534
       141                         -0.2213879              -6.0243
       ...                                ...                  ...
       257                          0.7625129              20.7490
      -------------------------------------------------------------
                  HL-Gap            0.0782538 Eh            2.1294 eV

     #   Z          covCN         q      C6AA      α(0)
     1   6 C        2.920    -0.027    28.664     8.780
     2   6 C        2.918    -0.027    28.686     8.783
     3   6 C        2.926    -0.024    28.602     8.771
     4   6 C        2.980     0.005    27.916     8.667
     5   6 C        2.969     0.110    25.566     8.294
     6   6 C        2.912    -0.067    29.657     8.930
     7   6 C        2.968     0.109    25.582     8.296
     8   6 C        2.980     0.001    28.003     8.680
     9   6 C        2.922    -0.031    28.771     8.796
    10   6 C        2.921    -0.043    29.066     8.841
    11   6 C        2.913     0.067    26.503     8.442
    12   7 N        2.801    -0.041    22.024     6.970
    13   6 C        3.076     0.046    26.878     8.500
    14   6 C        2.910    -0.051    29.275     8.872
    15   6 C        2.924    -0.033    28.819     8.804
    16   6 C        2.920    -0.040    28.997     8.830
    17   6 C        2.913    -0.034    28.848     8.807
    18   6 C        3.062    -0.015    28.319     8.727
    19   6 C        3.057    -0.021    28.472     8.751
    20   6 C        3.042     0.002    27.951     8.671
    21   6 C        3.038    -0.010    28.236     8.716
    22   6 C        2.918    -0.038    28.935     8.821
    23   6 C        2.911    -0.054    29.353     8.884
    24   6 C        3.074     0.045    26.923     8.507
    25   6 C        3.036     0.002    27.953     8.672
    26   6 C        2.915    -0.035    28.882     8.813
    27   6 C        2.921    -0.033    28.822     8.804
    28   6 C        2.923    -0.033    28.828     8.805
    29   6 C        2.914    -0.033    28.829     8.804
    30   6 C        3.062     0.005    27.842     8.653
    31   6 C        3.981     0.012    20.297     6.401
    32   6 C        3.057     0.009    27.771     8.642
    33   6 C        2.914    -0.032    28.801     8.800
    34   6 C        2.923    -0.031    28.777     8.797
    35   6 C        2.921    -0.032    28.808     8.802
    36   6 C        2.914    -0.034    28.847     8.807
    37   6 C        3.036     0.001    27.965     8.674
    38   6 C        3.037     0.001    27.963     8.674
    39   6 C        2.914    -0.034    28.847     8.807
    40   6 C        2.921    -0.032    28.809     8.802
    41   6 C        2.923    -0.031    28.778     8.797
    42   6 C        2.914    -0.032    28.802     8.800
    43   6 C        3.057     0.009    27.770     8.642
    44   6 C        2.920    -0.042    29.040     8.837
    45   6 C        2.926    -0.024    28.608     8.771
    46   7 N        1.850    -0.272    27.906     7.829
    47   6 C        2.946     0.182    24.114     8.054
    48   6 C        2.985     0.002    27.982     8.677
    49   6 C        2.924    -0.027    28.664     8.780
    50   6 C        2.918    -0.028    28.712     8.787
    51   6 C        2.920    -0.026    28.655     8.778
    52   6 C        2.918    -0.029    28.715     8.787
    53   6 C        2.924    -0.027    28.667     8.780
    54   7 N        1.850    -0.270    27.874     7.825
    55   6 C        2.923    -0.031    28.773     8.796
    56   6 C        2.919    -0.029    28.719     8.788
    57   1 H        0.926     0.034     2.530     2.487
    58   1 H        0.926     0.035     2.513     2.479
    59   1 H        0.926     0.053     2.284     2.363
    60   1 H        0.926     0.032     2.556     2.500
    61   1 H        0.926     0.038     2.474     2.459
    62   1 H        0.926     0.043     2.407     2.426
    63   1 H        0.926     0.027     2.630     2.536
    64   1 H        0.926     0.029     2.596     2.520
    65   1 H        0.926     0.028     2.615     2.529
    66   1 H        0.926     0.036     2.508     2.476
    67   1 H        0.926     0.033     2.546     2.495
    68   1 H        0.926     0.031     2.577     2.510
    69   1 H        0.926     0.030     2.588     2.516
    70   1 H        0.926     0.029     2.598     2.521
    71   1 H        0.926     0.029     2.597     2.520
    72   1 H        0.926     0.026     2.642     2.542
    73   1 H        0.926     0.028     2.615     2.529
    74   1 H        0.926     0.030     2.583     2.513
    75   1 H        0.926     0.030     2.588     2.516
    76   1 H        0.926     0.030     2.580     2.512
    77   1 H        0.926     0.030     2.580     2.512
    78   1 H        0.926     0.030     2.588     2.516
    79   1 H        0.926     0.030     2.585     2.514
    80   1 H        0.926     0.028     2.616     2.529
    81   1 H        0.926     0.045     2.381     2.413
    82   1 H        0.926     0.060     2.199     2.319
    83   1 H        0.926     0.054     2.272     2.357
    84   1 H        0.926     0.034     2.534     2.489
    85   1 H        0.926     0.033     2.540     2.492
    86   1 H        0.926     0.034     2.536     2.490
    87   1 H        0.926     0.053     2.287     2.365
    88   1 H        0.926     0.032     2.560     2.502
    89   1 H        0.926     0.033     2.545     2.495

molecular dipole:
                 x           y           z       tot (Debye)
 q only:        0.460       0.183      -0.021
   full:        0.373       0.590      -0.084       1.787

 projected vibrational frequencies (cm⁻¹)
eigval :       -0.00    -0.00     0.00     0.00     0.00     0.00
eigval :        7.10     9.61    13.14    24.55    26.18    30.55
eigval :       34.81    41.44    44.32    49.49    54.49    55.99
eigval :       71.76    76.58    80.57    92.44   100.34   114.30
eigval :      119.48   124.91   133.71   143.57   150.04   164.30
eigval :      184.04   200.84   216.15   224.45   228.55   234.65
eigval :      238.59   266.56   267.32   282.54   299.91   304.92
eigval :      313.76   329.68   346.98   363.56   366.62   368.06
eigval :      381.20   387.63   392.23   401.44   406.02   414.35
eigval :      415.70   420.50   440.30   443.81   455.10   458.15
eigval :      466.85   481.11   488.48   503.78   506.81   507.78
eigval :      537.73   545.67   548.23   567.24   583.66   587.18
eigval :      587.32   590.04   592.87   600.27   602.79   607.66
eigval :      612.81   618.53   622.09   632.27   645.06   648.64
eigval :      665.09   673.31   673.52   683.27   686.50   693.90
eigval :      700.83   702.06   710.58   736.20   737.59   748.44
eigval :      757.88   764.42   769.89   772.33   775.77   779.79
eigval :      785.70   818.54   826.79   830.33   836.85   841.02
eigval :      846.45   865.64   875.20   875.90   877.18   878.34
eigval :      878.42   879.49   886.32   896.46   899.58   902.60
eigval :      904.91   909.77   910.22   910.64   910.84   918.79
eigval :      921.59   926.34   926.56   926.85   927.77   929.00
eigval :      931.54   933.19   933.59   934.90   935.31   970.68
eigval :      989.33  1005.33  1008.55  1011.37  1026.38  1056.47
eigval :     1073.78  1075.93  1076.25  1077.61  1079.03  1079.63
eigval :     1082.50  1089.09  1104.91  1111.43  1121.08  1125.26
eigval :     1136.51  1142.49  1143.28  1148.59  1170.58  1170.88
eigval :     1177.32  1178.37  1179.49  1181.00  1181.61  1182.15
eigval :     1186.84  1196.33  1199.63  1201.65  1206.63  1209.87
eigval :     1222.07  1227.34  1240.59  1246.28  1251.61  1254.00
eigval :     1261.78  1265.15  1270.49  1277.52  1279.64  1285.94
eigval :     1297.61  1306.78  1321.63  1323.53  1328.29  1328.63
eigval :     1340.84  1349.46  1360.69  1365.34  1366.83  1371.01
eigval :     1392.12  1398.55  1409.67  1416.24  1427.69  1428.59
eigval :     1431.56  1432.21  1439.05  1442.71  1457.27  1462.76
eigval :     1469.16  1471.53  1471.76  1478.61  1483.07  1495.21
eigval :     1518.63  1532.92  1562.74  1577.01  1583.57  1584.06
eigval :     1585.35  1586.01  1593.39  1594.69  1596.45  1597.04
eigval :     1597.56  1597.69  1602.07  1604.56  1605.28  1614.58
eigval :     3071.60  3071.92  3072.37  3073.07  3073.15  3075.51
eigval :     3076.82  3076.94  3077.52  3077.57  3077.87  3082.81
eigval :     3083.06  3083.44  3084.40  3085.00  3085.61  3085.98
eigval :     3087.51  3090.47  3091.33  3091.40  3092.02  3092.57
eigval :     3093.85  3095.06  3097.20  3103.40  3105.13  3105.63
eigval :     3107.53  3110.53  3143.42

   temp. (K)  partition function   enthalpy   heat capacity  entropy
                                   cal/mol     cal/K/mol   cal/K/mol   J/K/mol
 298.15  VIB  0.138E+21            25174.904    159.764    157.385
         ROT  0.160E+09              888.752      2.981     40.518
         INT  0.220E+29            26063.656    162.745    197.903
         TR   0.184E+29             1481.254      4.968     45.548
         TOT                       27544.9101   167.7133   243.4510  1018.5989

       T/K    H(0)-H(T)+PV         H(T)/Eh          T*S/Eh         G(T)/Eh
   ------------------------------------------------------------------------
    298.15    0.438956E-01    0.724362E+00    0.115671E+00    0.608690E+00
   ------------------------------------------------------------------------

         :::::::::::::::::::::::::::::::::::::::::::::::::::::
         ::                  THERMODYNAMIC                  ::
         :::::::::::::::::::::::::::::::::::::::::::::::::::::
         :: total free energy        -138.551114295756 Eh   ::
         ::.................................................::
         :: total energy             -139.159804438200 Eh   ::
         :: zero point energy           0.680465951471 Eh   ::
         :: G(RRHO) w/o ZPVE           -0.071775809027 Eh   ::
         :: G(RRHO) contrib.            0.608690142444 Eh   ::
         :::::::::::::::::::::::::::::::::::::::::::::::::::::

           -------------------------------------------------
          | TOTAL ENERGY             -139.159804438200 Eh   |
          | TOTAL ENTHALPY           -138.435442878445 Eh   |
          | TOTAL FREE ENERGY        -138.551114295756 Eh   |
          | GRADIENT NORM               0.000048674404 Eh/α |
          | HOMO-LUMO GAP               2.129394501310 eV   |
           -------------------------------------------------

 * finished run on 2025/09/09 at 09:17:14.987
