   * xtb version 6.7.1 (edcfbbe) compiled by 'albert@albert-system' on 2024-07-22

   ID    Z sym.   atoms
    1    6 C      1-11, 13-45, 47-53, 55, 56
    2    7 N      12, 46, 54
    3    1 H      57-89

          program call               : xtb data2507/gas/SFI34pPM/SFI34pPM_gas_S0_finalOpt.xtbopt.xyz --gfn 2 --spinpol --tblite --uhf 2 --ohess vtight --parallel 40 --molden --ceasefiles --namespace data2507/gas/SFI34pPM/SFI34pPM_gas_T1_preOpt
 * total energy  :  -139.0774244 Eh     change       -0.1061750E-07 Eh
 * total energy  :  -139.0817874 Eh     change       -0.4362953E-02 Eh
 * total energy  :  -139.0833344 Eh     change       -0.1547060E-02 Eh
 * total energy  :  -139.0834437 Eh     change       -0.1092649E-03 Eh
 * total energy  :  -139.0835945 Eh     change       -0.1507575E-03 Eh
 * total energy  :  -139.0836825 Eh     change       -0.8798985E-04 Eh
 * total energy  :  -139.0838024 Eh     change       -0.1199681E-03 Eh
 * total energy  :  -139.0839073 Eh     change       -0.1048312E-03 Eh
 * total energy  :  -139.0839757 Eh     change       -0.6840375E-04 Eh
 * total energy  :  -139.0840523 Eh     change       -0.7663344E-04 Eh
 * total energy  :  -139.0851838 Eh     change       -0.6457939E-06 Eh
 * total energy  :  -139.0851844 Eh     change       -0.5803487E-06 Eh
 * total energy  :  -139.0851849 Eh     change       -0.5211112E-06 Eh
 * total energy  :  -139.0851854 Eh     change       -0.4408003E-06 Eh
 * total energy  :  -139.0851858 Eh     change       -0.4565932E-06 Eh
 * total energy  :  -139.0851862 Eh     change       -0.4101268E-06 Eh
 * total energy  :  -139.0851867 Eh     change       -0.4752372E-06 Eh
 * total energy  :  -139.0851872 Eh     change       -0.5204238E-06 Eh
 * total energy  :  -139.0851872 Eh     change       -0.1402867E-08 Eh
   *** GEOMETRY OPTIMIZATION CONVERGED AFTER 122 ITERATIONS ***

 final structure:
================
89
 xtb: 6.7.1 (edcfbbe)
C           10.26035110306014        3.58437365437174       -1.74003097491707
C           10.53750704138228        2.28544796547599       -1.34027994508390
C            9.51983892044910        1.44963132732109       -0.93658533545566
C            8.18674572731136        1.88798268399004       -0.92137319221179
C            7.15317198844391        0.97140468266617       -0.48758689556371
C            5.79649783572654        1.23599917272172       -0.53742947234124
C            4.89948806069092        0.26035303057316       -0.06921001536023
C            3.47672431906629        0.39821711656110       -0.05097626428554
C            2.79465173525748        1.51411777067725       -0.57599200239152
C            1.42501085235683        1.59749598733107       -0.52551560234731
C            0.67011872652745        0.57441123359884        0.05328774138861
N           -0.72789037815770        0.67096913406956        0.11385622766943
C           -1.43613289252343        1.73844543858367        0.62138344714365
C           -0.95762128770685        2.91079281818845        1.19043616395333
C           -1.88232481267132        3.83067768375613        1.64520393300622
C           -3.24947345335640        3.58773929184754        1.54413591603747
C           -3.73076870972953        2.41067496879023        1.00147973136699
C           -2.82364118135355        1.46849607940887        0.53845174780096
C           -2.94616055541683        0.16003297231320       -0.04984658696311
C           -3.99044426071722       -0.67706985325970       -0.39834902103463
C           -3.70440344219366       -1.92084941125653       -0.98848204304707
C           -2.39756318438024       -2.32825450438706       -1.25135269059456
C           -1.34214306556365       -1.50980015011810       -0.90865810415105
C           -1.61794507518687       -0.28980853920595       -0.29664988840514
C           -4.95309707758850       -2.60931015680984       -1.24853015849825
C           -5.21548036924035       -3.85141468153986       -1.80720560256716
C           -6.53338771563836       -4.25804801457007       -1.92974822751794
C           -7.57385684231716       -3.44441117210593       -1.50455463218649
C           -7.31943939550664       -2.19925003937362       -0.94463582904629
C           -6.00983051067764       -1.79321516070754       -0.82163008022217
C           -5.47839870228747       -0.49485729532941       -0.25158526391270
C           -5.98139368339015       -0.28250883822682        1.15537449680867
C           -5.70345596137446       -1.01903247127747        2.28500585154739
C           -6.31740279816546       -0.65675589703703        3.47662443214352
C           -7.19638948198722        0.41449170852946        3.52643824725690
C           -7.47950116083132        1.15697280753485        2.39114947281449
C           -6.86576594649636        0.80590556422867        1.20034930089604
C           -6.92506338468399        1.40668113976697       -0.12441315172996
C           -7.61491753797558        2.51063559051196       -0.59704942019491
C           -7.44274646011668        2.88264189225596       -1.92080191301825
C           -6.59788106945279        2.16932365835583       -2.75752426971658
C           -5.90790532546260        1.05747137025669       -2.29283243550756
C           -6.07582906680483        0.68587053502585       -0.97773196280959
C            1.32785781346035       -0.54311557603688        0.57648565621940
C            2.69417355801363       -0.62963581679275        0.52015780586151
N            5.42350183182720       -0.91010721569869        0.40333636731284
C            6.70943563605969       -1.14454978301511        0.42334747222040
C            7.20607093423728       -2.42491743793376        0.92415511250045
C            8.57614263947053       -2.65986689400107        1.01124009409991
C            9.04431868846504       -3.87128716895378        1.48183714107635
C            8.15165531718436       -4.85826828517676        1.86917175856474
C            6.78680823063775       -4.63041251416680        1.78517676089156
C            6.31413511512837       -3.42069650910620        1.31541754359479
N            7.56791616395153       -0.23686908571721        0.00108578902678
C            7.92373503299948        3.20346009139798       -1.32474841427997
C            8.94835082430976        4.03409777350322       -1.72743177578555
H           11.05740002813934        4.24058992867488       -2.05611287037760
H           11.55666358398875        1.92585214328740       -1.34509268192309
H            9.73060190020574        0.43685678484230       -0.62799229698287
H            5.42997164098784        2.17003013110344       -0.92641792643138
H            3.34392869979819        2.31740684553173       -1.04102435907643
H            0.91673693931473        2.44875158483159       -0.95504213489539
H            0.10224096992167        3.09105736854906        1.28445669151337
H           -1.53816922825523        4.75249156857826        2.09000803604577
H           -3.94632009347432        4.32902466110633        1.90551154032928
H           -4.79060673427170        2.23222119051167        0.94455791799737
H           -2.21455102612378       -3.28042830893508       -1.72516166535964
H           -0.32395168691597       -1.79904606155451       -1.11827788881195
H           -4.40975364492913       -4.48887531971667       -2.13949170374716
H           -6.75626081661127       -5.22260443316092       -2.36219473393940
H           -8.59378625195631       -3.78332410727506       -1.61010820343656
H           -8.12906772215944       -1.56514362753638       -0.61339315039298
H           -5.02182298810377       -1.85618784715425        2.24472776617235
H           -6.10879413658104       -1.21750761134694        4.37577569051123
H           -7.66458754288883        0.67506724753547        4.46446007052721
H           -8.16193918367919        1.99285873578201        2.43571125778477
H           -8.27136073705603        3.07142944750598        0.05180304652850
H           -7.97201538861939        3.74184950161402       -2.30634037335719
H           -6.47639805624057        2.48121634859046       -3.78436156954615
H           -5.25299314274062        0.49864217564431       -2.94543919115545
H            0.74911856340689       -1.32473715050461        1.04713398834655
H            3.20496514362569       -1.48609063188925        0.93251795922948
H            9.25865665989088       -1.88065619851951        0.70813956226756
H           10.10758593493239       -4.04962857032081        1.54820657522253
H            8.51936240040826       -5.80516480527703        2.23647916042165
H            6.09209222257479       -5.40053610792240        2.08710468277915
H            5.25446052039758       -3.22937595650293        1.24206909074880
H            6.91488267278368        3.58654335491655       -1.31637290694165
H            8.72461347999823        5.04625615564837       -2.03343937017086

 projected vibrational frequencies (cm⁻¹)
eigval :       -0.00    -0.00    -0.00     0.00     0.00     0.00
eigval :        6.71     9.52    12.88    14.00    23.60    24.57
eigval :       29.66    41.36    44.31    50.55    56.41    58.12
eigval :       70.41    76.49    80.36    90.13    97.63   115.87
eigval :      118.27   125.13   133.12   144.34   161.01   164.34
eigval :      167.71   199.40   206.88   216.94   226.50   229.69
eigval :      235.49   263.51   266.79   281.52   298.04   302.06
eigval :      314.28   325.26   347.61   365.77   366.78   368.83
eigval :      380.12   386.50   388.12   402.34   403.16   404.19
eigval :      413.00   414.35   426.46   436.16   440.90   452.89
eigval :      461.99   472.83   479.80   503.41   505.18   507.66
eigval :      536.70   538.43   542.60   547.92   563.84   579.03
eigval :      581.52   582.82   586.59   588.86   590.18   592.64
eigval :      598.39   599.78   608.92   627.13   632.45   639.39
eigval :      642.49   650.97   664.35   665.68   675.68   683.49
eigval :      683.94   692.83   700.99   710.64   736.29   746.00
eigval :      747.18   756.60   764.56   768.97   771.02   774.56
eigval :      785.88   795.70   808.51   817.69   823.95   834.10
eigval :      837.51   842.59   853.73   865.42   873.75   876.37
eigval :      877.95   878.73   879.40   884.47   895.40   898.26
eigval :      899.77   904.52   909.70   910.26   910.92   911.39
eigval :      917.18   918.04   919.92   922.08   922.61   926.21
eigval :      927.24   927.63   927.99   928.75   932.31   937.29
eigval :      976.99   983.58   994.11  1007.96  1008.24  1035.44
eigval :     1054.04  1061.45  1068.19  1073.75  1074.71  1075.10
eigval :     1076.30  1079.03  1081.35  1084.25  1112.10  1119.69
eigval :     1123.09  1135.39  1137.37  1143.26  1145.96  1167.57
eigval :     1169.24  1175.98  1177.72  1178.21  1179.43  1180.99
eigval :     1181.83  1184.50  1198.07  1199.53  1202.21  1208.64
eigval :     1209.39  1226.00  1234.35  1244.73  1247.16  1253.63
eigval :     1261.45  1265.88  1270.12  1276.02  1283.16  1285.61
eigval :     1295.19  1296.04  1298.43  1326.77  1326.92  1328.33
eigval :     1330.96  1340.78  1344.49  1355.75  1357.59  1366.90
eigval :     1375.45  1389.84  1391.83  1405.18  1421.03  1423.61
eigval :     1428.27  1431.07  1433.84  1436.96  1438.31  1452.62
eigval :     1458.36  1462.54  1465.20  1466.15  1471.60  1477.41
eigval :     1480.51  1487.53  1501.96  1556.10  1564.59  1567.91
eigval :     1570.91  1583.47  1584.75  1585.04  1588.98  1589.93
eigval :     1594.52  1595.31  1596.90  1602.85  1604.84  1607.22
eigval :     3069.31  3071.39  3074.19  3074.70  3074.89  3075.38
eigval :     3076.82  3077.81  3078.11  3078.52  3078.90  3080.57
eigval :     3081.21  3084.75  3085.88  3086.69  3086.77  3089.71
eigval :     3089.94  3090.15  3090.78  3092.73  3093.48  3094.07
eigval :     3094.63  3095.36  3097.71  3098.04  3098.17  3099.18
eigval :     3100.34  3121.11  3142.12

   temp. (K)  partition function   enthalpy   heat capacity  entropy
                                   cal/mol     cal/K/mol   cal/K/mol   J/K/mol
 298.15  VIB  0.521E+21            25487.237    161.528    159.714
         ROT  0.160E+09              888.752      2.981     40.523
         INT  0.835E+29            26375.989    164.509    200.237
         TR   0.184E+29             1481.254      4.968     45.548
         TOT                       27857.2428   169.4768   245.7848  1028.3635

       T/K    H(0)-H(T)+PV         H(T)/Eh          T*S/Eh         G(T)/Eh
   ------------------------------------------------------------------------
    298.15    0.443933E-01    0.720928E+00    0.116780E+00    0.604148E+00
   ------------------------------------------------------------------------

         :::::::::::::::::::::::::::::::::::::::::::::::::::::
         ::                  THERMODYNAMIC                  ::
         :::::::::::::::::::::::::::::::::::::::::::::::::::::
         :: total free energy        -138.481039292918 Eh   ::
         ::.................................................::
         :: total energy             -139.085187227746 Eh   ::
         :: zero point energy           0.676534868436 Eh   ::
         :: G(RRHO) w/o ZPVE           -0.072386933608 Eh   ::
         :: G(RRHO) contrib.            0.604147934828 Eh   ::
         :::::::::::::::::::::::::::::::::::::::::::::::::::::

           -------------------------------------------------
          | TOTAL ENERGY             -139.085187227746 Eh   |
          | TOTAL ENTHALPY           -138.364259017145 Eh   |
          | TOTAL FREE ENERGY        -138.481039292918 Eh   |
          | GRADIENT NORM               0.000042411935 Eh/α |
           -------------------------------------------------

 * finished run on 2025/09/09 at 09:17:38.722
