   * xtb version 6.7.1 (edcfbbe) compiled by 'albert@albert-system' on 2024-07-22

   ID    Z sym.   atoms
    1    6 C      1-11, 13-45, 47-53, 55, 56
    2    7 N      12, 46, 54
    3    1 H      57-89

          program call               : xtb data2507/gas/SFI34pPM/SFI34pPM.xyz --gfn 2 --ohess vtight --parallel 40 --molden --ceasefiles --namespace data2507/gas/SFI34pPM/SFI34pPM_gas_S0_preOpt
          :  Hamiltonian                  GFN2-xTB          :
 * total energy  :  -139.1388297 Eh     change       -0.5518388E-08 Eh
 * total energy  :  -139.1533964 Eh     change       -0.1456674E-01 Eh
 * total energy  :  -139.1571364 Eh     change       -0.3739960E-02 Eh
 * total energy  :  -139.1581632 Eh     change       -0.1026834E-02 Eh
 * total energy  :  -139.1588253 Eh     change       -0.6620914E-03 Eh
 * total energy  :  -139.1590453 Eh     change       -0.2200058E-03 Eh
 * total energy  :  -139.1591638 Eh     change       -0.1185192E-03 Eh
 * total energy  :  -139.1592345 Eh     change       -0.7062681E-04 Eh
 * total energy  :  -139.1592822 Eh     change       -0.4775582E-04 Eh
 * total energy  :  -139.1593347 Eh     change       -0.5243724E-04 Eh
 * total energy  :  -139.1595101 Eh     change       -0.1831622E-06 Eh
 * total energy  :  -139.1595102 Eh     change       -0.1215895E-06 Eh
 * total energy  :  -139.1595103 Eh     change       -0.1208637E-06 Eh
 * total energy  :  -139.1595105 Eh     change       -0.1692329E-06 Eh
 * total energy  :  -139.1595108 Eh     change       -0.2885573E-06 Eh
 * total energy  :  -139.1595111 Eh     change       -0.3626202E-06 Eh
 * total energy  :  -139.1595115 Eh     change       -0.3396986E-06 Eh
 * total energy  :  -139.1595119 Eh     change       -0.3736447E-06 Eh
 * total energy  :  -139.1595119 Eh     change       -0.3047518E-08 Eh
   *** GEOMETRY OPTIMIZATION CONVERGED AFTER 68 ITERATIONS ***

 final structure:
================
89
 xtb: 6.7.1 (edcfbbe)
C            9.63236143999328        4.43079427480161        0.82417786622581
C           10.06895089430158        3.13052177287777        1.02099764496024
C            9.21215977347740        2.07093760748072        0.79571620565615
C            7.90193876424555        2.29794724674175        0.37845743068487
C            7.01337993458580        1.14990906585773        0.15610917449280
C            5.62692819791593        1.23812976790069        0.27908685611742
C            4.89155583253976        0.07605820986047        0.04791574356470
C            3.42815525989362        0.03103889950051        0.14662665877304
C            2.63972676470898        1.16226852761996       -0.05290193729229
C            1.26565142488887        1.08789882123522        0.04900157368730
C            0.64902457296418       -0.12413989912714        0.35062938785635
N           -0.74391582157958       -0.19863166625396        0.46194750013517
C           -1.43736957610444       -0.74067562341052        1.52576694258054
C           -0.94437478657812       -1.28332848425144        2.70338248346944
C           -1.85655043975092       -1.73661685636810        3.63619077534250
C           -3.22682853349003       -1.64411544184118        3.40835452878145
C           -3.72217631826193       -1.08185829790078        2.24884158314747
C           -2.82689387294377       -0.61846724898205        1.29336002379274
C           -2.97154537504663        0.02544571012655        0.01458293305433
C           -4.03474812107239        0.41050871441904       -0.78659288613604
C           -3.77435734344332        1.00815066708782       -2.02783324669275
C           -2.47633264562620        1.21206283272057       -2.48752111274539
C           -1.40340619218630        0.83808095664288       -1.70372431335194
C           -1.65567511464035        0.26949200948541       -0.46139017711829
C           -5.03957802074616        1.31765459776381       -2.67081502403219
C           -5.32744762290503        1.90742746379835       -3.89105639346899
C           -6.65496634364041        2.07946984654162       -4.24817225430492
C           -7.67862111356579        1.67200773852811       -3.40608536912688
C           -7.39766091151695        1.07987404631923       -2.18198015883663
C           -6.07868119971563        0.90829063811232       -1.82621967998626
C           -5.51965538097012        0.29472118630495       -0.55879807799417
C           -6.05437343144518       -1.10311509072493       -0.36707440287977
C           -5.82909198266911       -2.22063960056724       -1.13920959544279
C           -6.46676222358838       -3.40369436097345       -0.79011390090109
C           -7.31754587861290       -3.45696027823177        0.30349248938415
C           -7.54764386614664       -2.33391393111889        1.08202484499593
C           -6.90982908196905       -1.15201343747965        0.74415659575616
C           -6.91437695954918        0.15751696462402        1.38012082125260
C           -7.55839843832667        0.61957915224467        2.51572171489358
C           -7.33729259424007        1.92737388849475        2.91707170356357
C           -6.48929651896415        2.75866063769472        2.20120122306545
C           -5.84545079615325        2.30461406755981        1.05780898879039
C           -6.06155405482862        1.00521821159912        0.65692449478818
C            1.43115239818087       -1.26171054331841        0.54070225872629
C            2.80318154622886       -1.18133715633012        0.43719203488945
N            5.49966495089052       -1.06735574994325       -0.25866927089922
C            6.82486956047413       -1.06569857320056       -0.34566990297177
C            7.48342706080335       -2.33228178733209       -0.67904784802135
C            8.87160513273745       -2.39633351719184       -0.77985791939679
C            9.49002539019615       -3.59181351330353       -1.09089831880663
C            8.73221132249753       -4.73246606052111       -1.30484440911331
C            7.35070975065234       -4.67400728499972       -1.20939493432570
C            6.72664524177055       -3.48141172260233       -0.89859569031522
N            7.59917136778482       -0.00381059431847       -0.15306343509041
C            7.47367724264613        3.60747756293760        0.17489928776562
C            8.33622894025012        4.66507124002905        0.39571826178840
H           10.30162863584034        5.26020986634120        0.99936397557146
H           11.08077097179857        2.94471132129230        1.35030776363111
H            9.53669961565162        1.05266361171180        0.94375179650280
H            5.14916522876823        2.15389628000682        0.58388675590721
H            3.09764627997688        2.10730230905411       -0.30389152732221
H            0.66082711129430        1.97162088084087       -0.08991451960116
H            0.11723834721820       -1.33964120246850        2.89143882500314
H           -1.49923085189823       -2.16673096957241        4.56019813582887
H           -3.91323711358711       -2.01026562194655        4.15709079555851
H           -4.78408396619246       -1.00169513350972        2.09400792817795
H           -2.30996968246241        1.65682643812513       -3.45683021584429
H           -0.39110663674758        0.97090351997012       -2.05404252495227
H           -4.53486199423402        2.22702662816501       -4.55138762674459
H           -6.89725667322988        2.53766103188707       -5.19621545982196
H           -8.70621295663575        1.81663260638006       -3.70552919959361
H           -8.19427918406885        0.76164286944408       -1.52491838646888
H           -5.16942136160530       -2.17730601017759       -1.99363638421722
H           -6.29925258567054       -4.29352217402606       -1.37901351782428
H           -7.80536050513220       -4.38803721338406        0.55318667921911
H           -8.20820631545727       -2.38110595302983        1.93527105845567
H           -8.21702954760092       -0.02534183808287        3.07862660074044
H           -7.83014311223175        2.30442844614616        3.80146249430056
H           -6.32912290781361        3.77294931771877        2.53627395052308
H           -5.18839490613155        2.95316521668070        0.49675151670461
H            0.95227130347208       -2.20608711985223        0.75193437880093
H            3.41798345967029       -2.05656880326061        0.57693556333591
H            9.44594128485019       -1.49835471330456       -0.61446079129352
H           10.56666948588758       -3.63777775155182       -1.16829659324132
H            9.21808036169385       -5.66638242269003       -1.54773702312562
H            6.76069913935910       -5.56304088561737       -1.37923492319745
H            5.65238344088955       -3.41770210588768       -0.82471198848462
H            6.47234490455511        3.80276912726112       -0.17987122493380
H            7.99681852541422        5.67734384073450        0.23055591567481

          :  Hamiltonian                  GFN2-xTB          :
         :: gradient norm              0.000040377080 Eh/a0 ::
         :: HOMO-LUMO gap              2.125183942825 eV    ::
         :: SCC energy              -141.808211912106 Eh    ::
         :: -> dispersion             -0.131607507810 Eh    ::
         :: repulsion energy           2.648700055999 Eh    ::

    * Orbital Energies and Occupations

         #    Occupation            Energy/Eh            Energy/eV
      -------------------------------------------------------------
         1        2.0000           -0.6775304             -18.4365
       ...           ...                  ...                  ...
       118        2.0000           -0.4077536             -11.0955
       119        2.0000           -0.4051073             -11.0235
       120        2.0000           -0.4043660             -11.0034
       121        2.0000           -0.4040375             -10.9944
       122        2.0000           -0.3948235             -10.7437
       123        2.0000           -0.3943298             -10.7303
       124        2.0000           -0.3931171             -10.6973
       125        2.0000           -0.3916574             -10.6575
       126        2.0000           -0.3888251             -10.5805
       127        2.0000           -0.3780597             -10.2875
       128        2.0000           -0.3763157             -10.2401
       129        2.0000           -0.3583029              -9.7499
       130        2.0000           -0.3570981              -9.7171 (HOMO)
       131                         -0.2789990              -7.5919 (LUMO)
       132                         -0.2702970              -7.3552
       133                         -0.2499798              -6.8023
       134                         -0.2468794              -6.7179
       135                         -0.2440714              -6.6415
       136                         -0.2391448              -6.5075
       137                         -0.2357631              -6.4154
       138                         -0.2283957              -6.2150
       139                         -0.2227761              -6.0620
       140                         -0.2224946              -6.0544
       141                         -0.2214213              -6.0252
       ...                                ...                  ...
       257                          0.7625589              20.7503
      -------------------------------------------------------------
                  HL-Gap            0.0780991 Eh            2.1252 eV

     #   Z          covCN         q      C6AA      α(0)
     1   6 C        2.920    -0.026    28.662     8.779
     2   6 C        2.918    -0.027    28.684     8.783
     3   6 C        2.926    -0.024    28.596     8.770
     4   6 C        2.980     0.005    27.914     8.667
     5   6 C        2.968     0.110    25.565     8.294
     6   6 C        2.912    -0.067    29.656     8.930
     7   6 C        2.968     0.110    25.577     8.296
     8   6 C        2.980     0.001    27.997     8.679
     9   6 C        2.922    -0.031    28.766     8.795
    10   6 C        2.921    -0.043    29.068     8.841
    11   6 C        2.913     0.067    26.502     8.442
    12   7 N        2.801    -0.041    22.029     6.971
    13   6 C        3.076     0.047    26.876     8.500
    14   6 C        2.910    -0.051    29.276     8.872
    15   6 C        2.924    -0.033    28.814     8.803
    16   6 C        2.920    -0.040    28.996     8.830
    17   6 C        2.913    -0.034    28.850     8.808
    18   6 C        3.062    -0.015    28.322     8.727
    19   6 C        3.057    -0.021    28.473     8.751
    20   6 C        3.042     0.002    27.950     8.671
    21   6 C        3.038    -0.010    28.240     8.716
    22   6 C        2.918    -0.038    28.940     8.822
    23   6 C        2.911    -0.055    29.355     8.884
    24   6 C        3.074     0.045    26.923     8.507
    25   6 C        3.036     0.002    27.954     8.672
    26   6 C        2.915    -0.035    28.883     8.813
    27   6 C        2.921    -0.033    28.823     8.804
    28   6 C        2.923    -0.033    28.829     8.805
    29   6 C        2.914    -0.033    28.829     8.804
    30   6 C        3.062     0.005    27.842     8.653
    31   6 C        3.981     0.012    20.297     6.401
    32   6 C        3.057     0.009    27.769     8.642
    33   6 C        2.914    -0.032    28.800     8.800
    34   6 C        2.923    -0.031    28.776     8.797
    35   6 C        2.921    -0.032    28.808     8.802
    36   6 C        2.914    -0.034    28.846     8.807
    37   6 C        3.037     0.001    27.963     8.674
    38   6 C        3.036     0.001    27.962     8.673
    39   6 C        2.914    -0.034    28.846     8.807
    40   6 C        2.921    -0.032    28.809     8.802
    41   6 C        2.923    -0.031    28.779     8.797
    42   6 C        2.914    -0.032    28.802     8.800
    43   6 C        3.057     0.009    27.772     8.642
    44   6 C        2.920    -0.041    29.030     8.836
    45   6 C        2.926    -0.024    28.601     8.770
    46   7 N        1.850    -0.271    27.897     7.828
    47   6 C        2.945     0.182    24.115     8.054
    48   6 C        2.985     0.002    27.984     8.677
    49   6 C        2.924    -0.026    28.664     8.780
    50   6 C        2.918    -0.028    28.713     8.787
    51   6 C        2.920    -0.026    28.652     8.778
    52   6 C        2.918    -0.029    28.714     8.787
    53   6 C        2.924    -0.027    28.666     8.780
    54   7 N        1.850    -0.270    27.865     7.824
    55   6 C        2.923    -0.031    28.766     8.795
    56   6 C        2.919    -0.029    28.718     8.788
    57   1 H        0.926     0.034     2.528     2.486
    58   1 H        0.926     0.035     2.512     2.478
    59   1 H        0.926     0.052     2.291     2.367
    60   1 H        0.926     0.032     2.553     2.498
    61   1 H        0.926     0.038     2.481     2.463
    62   1 H        0.926     0.043     2.408     2.426
    63   1 H        0.926     0.028     2.617     2.530
    64   1 H        0.926     0.030     2.590     2.517
    65   1 H        0.926     0.028     2.614     2.528
    66   1 H        0.926     0.036     2.509     2.477
    67   1 H        0.926     0.032     2.554     2.499
    68   1 H        0.926     0.029     2.599     2.521
    69   1 H        0.926     0.030     2.592     2.518
    70   1 H        0.926     0.029     2.600     2.521
    71   1 H        0.926     0.029     2.598     2.520
    72   1 H        0.926     0.026     2.641     2.541
    73   1 H        0.926     0.028     2.614     2.528
    74   1 H        0.926     0.030     2.582     2.513
    75   1 H        0.926     0.030     2.586     2.515
    76   1 H        0.926     0.030     2.580     2.512
    77   1 H        0.926     0.031     2.579     2.511
    78   1 H        0.926     0.030     2.588     2.516
    79   1 H        0.926     0.030     2.586     2.515
    80   1 H        0.926     0.028     2.620     2.531
    81   1 H        0.926     0.045     2.377     2.411
    82   1 H        0.926     0.059     2.213     2.326
    83   1 H        0.926     0.054     2.271     2.357
    84   1 H        0.926     0.034     2.533     2.489
    85   1 H        0.926     0.033     2.539     2.492
    86   1 H        0.926     0.034     2.535     2.490
    87   1 H        0.926     0.053     2.282     2.362
    88   1 H        0.926     0.031     2.567     2.506
    89   1 H        0.926     0.033     2.543     2.494

molecular dipole:
                 x           y           z       tot (Debye)
 q only:        0.476       0.101       0.185
   full:        0.341       0.503       0.243       1.665

 projected vibrational frequencies (cm⁻¹)
eigval :       -0.00    -0.00    -0.00     0.00     0.00     0.00
eigval :        7.00     9.03    13.99    24.22    25.70    27.32
eigval :       32.92    41.90    44.83    48.17    56.43    56.71
eigval :       72.89    76.69    83.26    90.35    97.60   117.12
eigval :      119.78   126.02   133.33   143.07   152.70   164.42
eigval :      180.27   204.39   215.39   223.40   228.07   233.70
eigval :      236.20   265.53   269.95   282.39   299.96   302.84
eigval :      318.33   327.28   347.58   365.96   367.60   368.52
eigval :      378.65   378.94   387.89   405.04   407.33   414.31
eigval :      415.47   429.13   437.53   440.68   450.23   457.41
eigval :      466.93   481.88   493.24   503.69   506.86   508.52
eigval :      537.73   545.88   547.99   567.37   583.58   585.64
eigval :      587.30   588.59   592.87   599.86   603.88   608.87
eigval :      613.17   618.24   625.45   632.37   644.42   647.46
eigval :      663.87   673.06   673.20   683.20   686.48   693.78
eigval :      700.79   701.74   710.54   736.16   737.04   748.31
eigval :      757.76   764.74   769.88   772.42   775.73   780.14
eigval :      785.67   818.39   827.00   833.94   837.88   838.99
eigval :      846.81   864.97   874.70   876.67   877.13   878.37
eigval :      878.37   878.74   886.27   896.24   900.09   901.47
eigval :      904.25   909.72   910.21   910.25   910.79   919.96
eigval :      921.64   925.52   926.35   926.82   927.76   928.53
eigval :      931.12   933.04   933.40   934.24   935.45   970.84
eigval :      989.28  1005.30  1008.57  1011.56  1026.26  1056.43
eigval :     1073.80  1075.89  1076.24  1077.62  1079.02  1079.51
eigval :     1082.53  1089.07  1104.70  1111.22  1121.17  1125.10
eigval :     1135.24  1142.86  1143.25  1148.11  1169.78  1171.00
eigval :     1177.35  1178.36  1179.49  1180.90  1181.62  1182.10
eigval :     1186.79  1196.41  1198.76  1201.23  1206.10  1209.93
eigval :     1221.31  1227.53  1240.56  1246.29  1251.02  1254.11
eigval :     1261.75  1264.56  1270.15  1277.39  1279.09  1285.94
eigval :     1297.57  1307.00  1321.76  1323.72  1328.53  1328.64
eigval :     1340.86  1349.35  1360.31  1364.47  1366.90  1371.92
eigval :     1391.73  1397.91  1411.95  1414.77  1427.55  1428.55
eigval :     1431.56  1432.28  1439.20  1442.90  1457.42  1462.75
eigval :     1469.20  1471.19  1471.82  1478.60  1483.10  1495.27
eigval :     1518.59  1532.94  1563.50  1576.95  1583.60  1583.98
eigval :     1585.39  1586.07  1594.39  1594.78  1596.47  1597.08
eigval :     1597.63  1597.73  1602.08  1604.56  1605.29  1614.59
eigval :     3071.69  3071.82  3072.43  3073.18  3073.22  3075.45
eigval :     3076.78  3077.54  3077.64  3077.74  3077.85  3082.38
eigval :     3083.03  3083.47  3084.64  3085.06  3085.28  3085.73
eigval :     3087.64  3090.68  3091.25  3091.34  3092.18  3092.62
eigval :     3094.40  3094.73  3096.34  3104.01  3106.43  3106.92
eigval :     3107.94  3108.57  3143.90

   temp. (K)  partition function   enthalpy   heat capacity  entropy
                                   cal/mol     cal/K/mol   cal/K/mol   J/K/mol
 298.15  VIB  0.159E+21            25181.265    159.757    157.450
         ROT  0.161E+09              888.752      2.981     40.530
         INT  0.256E+29            26070.018    162.737    197.979
         TR   0.184E+29             1481.254      4.968     45.548
         TOT                       27551.2716   167.7056   243.5270  1018.9171

       T/K    H(0)-H(T)+PV         H(T)/Eh          T*S/Eh         G(T)/Eh
   ------------------------------------------------------------------------
    298.15    0.439057E-01    0.724345E+00    0.115708E+00    0.608637E+00
   ------------------------------------------------------------------------

         :::::::::::::::::::::::::::::::::::::::::::::::::::::
         ::                  THERMODYNAMIC                  ::
         :::::::::::::::::::::::::::::::::::::::::::::::::::::
         :: total free energy        -138.550874671552 Eh   ::
         ::.................................................::
         :: total energy             -139.159511856105 Eh   ::
         :: zero point energy           0.680438994181 Eh   ::
         :: G(RRHO) w/o ZPVE           -0.071801809628 Eh   ::
         :: G(RRHO) contrib.            0.608637184553 Eh   ::
         :::::::::::::::::::::::::::::::::::::::::::::::::::::

           -------------------------------------------------
          | TOTAL ENERGY             -139.159511856105 Eh   |
          | TOTAL ENTHALPY           -138.435167115861 Eh   |
          | TOTAL FREE ENERGY        -138.550874671552 Eh   |
          | GRADIENT NORM               0.000040374807 Eh/α |
          | HOMO-LUMO GAP               2.125183469476 eV   |
           -------------------------------------------------

 * finished run on 2025/09/09 at 09:11:39.951
