   * xtb version 6.7.1 (edcfbbe) compiled by 'albert@albert-system' on 2024-07-22

   ID    Z sym.   atoms
    1    6 C      1-11, 13-45, 47-53, 55, 56
    2    7 N      12, 46, 54
    3    1 H      57-89

          program call               : xtb data2507/gas/SFI34pPM/SFI34pPM_gas_T1_crest.xyz --gfn 2 --spinpol --tblite --uhf 2 --ohess vtight --parallel 40 --molden --ceasefiles --namespace data2507/gas/SFI34pPM/SFI34pPM_gas_T1_finalOpt
 * total energy  :  -139.0850494 Eh     change       -0.5187928E-08 Eh
 * total energy  :  -139.0851293 Eh     change       -0.7996575E-04 Eh
 * total energy  :  -139.0851664 Eh     change       -0.3709999E-04 Eh
 * total energy  :  -139.0851711 Eh     change       -0.4652454E-05 Eh
 * total energy  :  -139.0851762 Eh     change       -0.5079265E-05 Eh
 * total energy  :  -139.0851807 Eh     change       -0.4492641E-05 Eh
 * total energy  :  -139.0851852 Eh     change       -0.4512437E-05 Eh
 * total energy  :  -139.0851881 Eh     change       -0.2944070E-05 Eh
 * total energy  :  -139.0851903 Eh     change       -0.2173829E-05 Eh
 * total energy  :  -139.0851926 Eh     change       -0.2294679E-05 Eh
 * total energy  :  -139.0852287 Eh     change       -0.2733864E-06 Eh
 * total energy  :  -139.0852289 Eh     change       -0.2263218E-06 Eh
 * total energy  :  -139.0852292 Eh     change       -0.2355739E-06 Eh
 * total energy  :  -139.0852294 Eh     change       -0.2400150E-06 Eh
 * total energy  :  -139.0852296 Eh     change       -0.1541448E-06 Eh
 * total energy  :  -139.0852297 Eh     change       -0.1825352E-06 Eh
 * total energy  :  -139.0852300 Eh     change       -0.2582104E-06 Eh
 * total energy  :  -139.0852301 Eh     change       -0.1143043E-06 Eh
 * total energy  :  -139.0852302 Eh     change       -0.6883994E-07 Eh
   *** GEOMETRY OPTIMIZATION CONVERGED AFTER 40 ITERATIONS ***

 final structure:
================
89
 xtb: 6.7.1 (edcfbbe)
C           10.22466097498818        3.73966535878871       -1.44133812224910
C           10.50906187104300        2.40578709502456       -1.18901574542278
C            9.50044926845966        1.53172055379738       -0.84849755317325
C            8.16942994850038        1.96564254418722       -0.75072216570258
C            7.14532807552824        1.00751239720238       -0.39004759642037
C            5.78865319358835        1.27573031564932       -0.37496214316876
C            4.90068936879041        0.25250397429853        0.00029675132815
C            3.47857315870272        0.38430161198698        0.05975378054238
C            2.79110558376142        1.57118136051484       -0.26418327779018
C            1.42199116818447        1.64208514377196       -0.18828291556618
C            0.67282320100449        0.53408310744182        0.21473559740619
N           -0.72553975215576        0.61470683060027        0.29285053854741
C           -1.43621596620388        1.57793370875111        0.97478563681459
C           -0.95995407193303        2.62961459942457        1.74568519953952
C           -1.88669124139110        3.45654594603638        2.35015166146638
C           -3.25341045235750        3.23831085880109        2.19884943297520
C           -3.73253669249462        2.17817857575899        1.45167429908358
C           -2.82343168333668        1.33165888485496        0.83369772589558
C           -2.94300925200203        0.15028642816601        0.01919343716746
C           -3.98557817397437       -0.60186521511297       -0.49075662051230
C           -3.69608747988360       -1.72005164768013       -1.29261988065306
C           -2.38718744167439       -2.08470095806331       -1.60351188533636
C           -1.33347037022823       -1.34829954421453       -1.10488041752376
C           -1.61335335163080       -0.25493712657159       -0.28939160374639
C           -4.94398149162651       -2.33529963040126       -1.69896601209477
C           -5.20343641316451       -3.45077916003395       -2.48136560166344
C           -6.52143468870838       -3.81133927396022       -2.70525766722173
C           -7.56482946717293       -3.07609114391932       -2.16110527586885
C           -7.31332624455952       -1.95784811426237       -1.37692391993083
C           -6.00363764743720       -1.59776396883980       -1.15300095378643
C           -5.47497554887608       -0.43215316890806       -0.34367285215059
C           -6.01179140105551       -0.47418612784295        1.06614351793729
C           -5.77108181631243       -1.40970569824508        2.04730577406124
C           -6.41388545019008       -1.26454687325494        3.26956351822347
C           -7.28448891905847       -0.20891586756043        3.49398938251941
C           -7.53014846893485        0.73361890870182        2.50829144433221
C           -6.88755563335819        0.59930873695270        1.28887661445500
C           -6.90660874543379        1.43389854636785        0.09618660402371
C           -7.57248694720496        2.61607725175339       -0.18138790405589
C           -7.36160310776654        3.22265627140855       -1.40936296565704
C           -6.50232369027484        2.66290659892020       -2.34266247826869
C           -5.83635603405737        1.47433713719970       -2.07439699204031
C           -6.04279471156992        0.86971747569082       -0.85473604291537
C            1.33579416786643       -0.65276854196642        0.54129620166019
C            2.70189463113389       -0.72474011340695        0.46243903883372
N            5.43368139769970       -0.96404847613337        0.32256151590311
C            6.71946989906535       -1.19731219540404        0.28880296754782
C            7.22606586270241       -2.52420416425244        0.63451917729156
C            8.59715835445277       -2.76869259430323        0.65065247282108
C            9.07503748197056       -4.02314840357258        0.97642189021110
C            8.19112129789340       -5.04404850957599        1.28860400722964
C            6.82533899073699       -4.80695734986874        1.27478739937874
C            6.34301722554357       -3.55426605943441        0.94978373093818
N            7.56969530704926       -0.24674584795245       -0.04740902400032
C            7.89914437318468        3.31638739996034       -1.00519885298663
C            8.91469048153235        4.18522467980347       -1.34544930263457
H           11.01457789938414        4.42580810042716       -1.70790638741326
H           11.52671241642632        2.04887047264432       -1.25977742077543
H            9.71683564966103        0.49200859285844       -0.65481137331427
H            5.41481383259126        2.24610578808644       -0.65175229737833
H            3.33566835562446        2.44398137985286       -0.58792570244462
H            0.90929436010905        2.55298025682605       -0.46204296872449
H            0.09960776446141        2.78744428653581        1.87666059735180
H           -1.54465091520118        4.28402533204522        2.95374184469566
H           -3.95182652191225        3.90470624470531        2.68241328515458
H           -4.79219662245408        2.01484477439335        1.35770030294615
H           -2.20127422275871       -2.93774833714160       -2.23783662254187
H           -0.31340960397609       -1.60213294098806       -1.34857114209268
H           -4.39542734950664       -4.02671456722612       -2.90725982721487
H           -6.74206594014075       -4.67737831503159       -3.31217524192100
H           -8.58478638359921       -3.37677183073540       -2.34962085801170
H           -8.12525119891423       -1.38474959169639       -0.95307749649659
H           -5.09624059577218       -2.23454679868308        1.87041760724577
H           -6.23483801457233       -1.98410737055190        4.05480582796915
H           -7.77586153864904       -0.11920413975627        4.45185276188681
H           -8.20640181199188        1.55609837881391        2.68892546849489
H           -8.23986093725364        3.05782721622383        0.54379051222117
H           -7.87147596758382        4.14606661545432       -1.64249114808397
H           -6.35037504948270        3.15667076075498       -3.29110490922638
H           -5.17001293916944        1.03547401764657       -2.80274777208689
H            0.76131440380286       -1.50353856753988        0.87835365436178
H            3.21707810616090       -1.63655232339747        0.72249318608873
H            9.27288075111107       -1.96294990608553        0.40769019600864
H           10.13908119092312       -4.20867760405337        0.98820480964485
H            8.56637698740925       -6.02446498630499        1.54296941511508
H            6.13742439705697       -5.60336990178103        1.51846621378084
H            5.28245203670923       -3.35479874723924        0.93386589446674
H            6.89187365204946        3.69619067092936       -0.92939222478437
H            8.68540478450160        5.22399532514351       -1.53659974080979

 projected vibrational frequencies (cm⁻¹)
eigval :       -0.00    -0.00     0.00     0.00     0.00     0.00
eigval :       -3.59     6.08     9.34    13.17    20.94    24.10
eigval :       29.19    41.02    43.88    50.09    56.43    58.31
eigval :       69.43    76.25    79.77    89.02    96.97   115.58
eigval :      118.42   124.50   132.58   143.95   161.65   164.79
eigval :      165.75   199.04   206.72   217.22   225.70   229.31
eigval :      235.41   263.65   266.50   281.27   297.40   302.56
eigval :      314.05   324.70   346.93   365.17   366.24   369.01
eigval :      379.24   386.05   387.77   402.48   403.84   404.69
eigval :      412.49   414.22   425.63   436.87   440.82   452.76
eigval :      461.53   472.63   479.66   503.30   505.15   507.52
eigval :      536.97   538.29   542.21   547.77   563.77   578.80
eigval :      581.79   582.79   586.51   588.54   590.34   592.58
eigval :      598.06   599.64   608.88   627.31   632.49   638.99
eigval :      641.94   650.69   664.00   665.72   675.45   683.31
eigval :      683.75   692.74   700.94   710.62   736.28   745.94
eigval :      746.57   756.46   764.01   768.55   770.54   774.11
eigval :      785.47   794.51   807.14   817.79   823.37   833.96
eigval :      837.55   841.35   852.70   864.91   872.82   875.90
eigval :      877.56   878.30   878.55   884.34   895.11   897.87
eigval :      899.32   903.74   908.77   909.84   910.45   910.88
eigval :      916.52   917.44   919.00   920.98   922.52   925.71
eigval :      926.70   926.86   927.61   928.00   931.54   936.46
eigval :      976.99   984.16   994.17  1007.92  1008.22  1036.49
eigval :     1053.09  1061.86  1068.75  1073.44  1074.37  1075.00
eigval :     1076.10  1078.57  1080.72  1084.17  1111.46  1119.91
eigval :     1123.12  1134.84  1136.66  1142.83  1145.39  1168.36
eigval :     1168.75  1175.15  1177.10  1177.44  1178.91  1180.28
eigval :     1180.98  1183.66  1197.55  1197.96  1201.81  1207.52
eigval :     1209.13  1225.66  1234.08  1244.21  1247.31  1253.35
eigval :     1261.05  1265.29  1269.69  1275.65  1283.05  1285.28
eigval :     1295.06  1296.08  1298.05  1326.63  1326.91  1328.31
eigval :     1331.14  1340.88  1344.38  1355.56  1357.65  1366.59
eigval :     1375.04  1389.92  1392.37  1405.20  1421.00  1423.63
eigval :     1428.32  1430.56  1433.87  1436.88  1438.04  1452.85
eigval :     1458.45  1462.62  1465.85  1466.10  1471.37  1477.42
eigval :     1480.63  1487.24  1502.14  1556.29  1564.78  1567.86
eigval :     1571.13  1583.55  1584.91  1585.22  1589.04  1590.00
eigval :     1594.59  1595.71  1596.97  1602.94  1604.97  1607.13
eigval :     3069.04  3071.13  3073.80  3074.32  3074.51  3075.05
eigval :     3076.41  3077.43  3077.73  3078.17  3078.39  3080.23
eigval :     3080.77  3084.33  3085.46  3085.98  3086.48  3089.34
eigval :     3089.48  3089.63  3090.63  3092.46  3093.28  3093.57
eigval :     3094.43  3095.30  3097.53  3097.66  3098.34  3099.06
eigval :     3100.08  3121.28  3141.63

   temp. (K)  partition function   enthalpy   heat capacity  entropy
                                   cal/mol     cal/K/mol   cal/K/mol   J/K/mol
 298.15  VIB  0.274E+22            25526.403    161.523    161.408
         ROT  0.160E+09              888.752      2.981     40.525
         INT  0.439E+30            26415.155    164.504    201.933
         TR   0.184E+29             1481.254      4.968     45.548
         TOT                       27896.4088   169.4718   247.4809  1035.4602

       T/K    H(0)-H(T)+PV         H(T)/Eh          T*S/Eh         G(T)/Eh
   ------------------------------------------------------------------------
    298.15    0.444558E-01    0.720806E+00    0.117586E+00    0.603220E+00
   ------------------------------------------------------------------------

         :::::::::::::::::::::::::::::::::::::::::::::::::::::
         ::                  THERMODYNAMIC                  ::
         :::::::::::::::::::::::::::::::::::::::::::::::::::::
         :: total free energy        -138.482010452187 Eh   ::
         ::.................................................::
         :: total energy             -139.085230238673 Eh   ::
         :: zero point energy           0.676350204118 Eh   ::
         :: G(RRHO) w/o ZPVE           -0.073130417632 Eh   ::
         :: G(RRHO) contrib.            0.603219786486 Eh   ::
         :::::::::::::::::::::::::::::::::::::::::::::::::::::

           -------------------------------------------------
          | TOTAL ENERGY             -139.085230238673 Eh   |
          | TOTAL ENTHALPY           -138.364424277339 Eh   |
          | TOTAL FREE ENERGY        -138.482010452187 Eh   |
          | GRADIENT NORM               0.000071170863 Eh/α |
           -------------------------------------------------

 * finished run on 2025/09/09 at 09:24:33.731
