   * xtb version 6.7.1 (edcfbbe) compiled by 'albert@albert-system' on 2024-07-22

   ID    Z sym.   atoms
    1    6 C      1, 2, 4-8, 10-28, 30-44
    2    7 N      3, 9, 29
    3    1 H      45-71

          program call               : xtb data2507/toluene/CBPPY/CBPPY_toluene_S0_crest.xyz --gfn 2 --gbsa toluene --ohess vtight --parallel 40 --molden --ceasefiles --namespace data2507/toluene/CBPPY/CBPPY_toluene_S0_finalOpt
      * Solvation model:               GBSA
        Solvent                        toluene
        Solvent mass                       9.2140E+01 g/mol
          :  Hamiltonian                  GFN2-xTB          :
 * total energy  :  -110.4428247 Eh     change       -0.1299298E-08 Eh
 * total energy  :  -110.4428713 Eh     change       -0.4653902E-04 Eh
 * total energy  :  -110.4429113 Eh     change       -0.4003555E-04 Eh
 * total energy  :  -110.4429361 Eh     change       -0.2478728E-04 Eh
 * total energy  :  -110.4429556 Eh     change       -0.1953344E-04 Eh
 * total energy  :  -110.4429878 Eh     change       -0.3215955E-04 Eh
 * total energy  :  -110.4430049 Eh     change       -0.1707822E-04 Eh
 * total energy  :  -110.4430367 Eh     change       -0.3180190E-04 Eh
 * total energy  :  -110.4430578 Eh     change       -0.2115893E-04 Eh
 * total energy  :  -110.4430710 Eh     change       -0.1316654E-04 Eh
 * total energy  :  -110.4432041 Eh     change       -0.3709237E-06 Eh
 * total energy  :  -110.4432044 Eh     change       -0.2626387E-06 Eh
 * total energy  :  -110.4432046 Eh     change       -0.1693326E-06 Eh
 * total energy  :  -110.4432047 Eh     change       -0.1270157E-06 Eh
 * total energy  :  -110.4432048 Eh     change       -0.1512669E-06 Eh
 * total energy  :  -110.4432050 Eh     change       -0.2119467E-06 Eh
 * total energy  :  -110.4432053 Eh     change       -0.2787276E-06 Eh
 * total energy  :  -110.4432055 Eh     change       -0.1969934E-06 Eh
 * total energy  :  -110.4432056 Eh     change       -0.8335455E-07 Eh
   *** GEOMETRY OPTIMIZATION CONVERGED AFTER 43 ITERATIONS ***

 final structure:
================
71
 xtb: 6.7.1 (edcfbbe)
C            0.78065302920743        3.23227957781386        1.91124372752170
C            0.37228688206903        4.35878292548468        1.21174629602489
N           -0.54994593148794        4.32471623329972        0.26371545970138
C           -1.10231768417500        3.16185268070332       -0.02883199034115
C           -0.76780917238329        1.96134335006137        0.59788878568986
C           -1.43692877644001        0.70250727052891        0.23199091614200
C           -2.82542736928980        0.67038616074963        0.19576681795586
C           -3.50641668663829       -0.50649588145527       -0.09324223121598
N           -4.90753727000676       -0.51728734361491       -0.13003052200962
C           -5.70249007860691        0.36205401029612       -0.83884692801521
C           -5.33599210168260        1.39002198120787       -1.69608588473174
C           -6.34348204868836        2.11148901656677       -2.30771426666269
C           -7.68718554337740        1.81795081859258       -2.08308481696725
C           -8.05784431606525        0.78011535262691       -1.25103646128244
C           -7.06268072545743        0.03935980571341       -0.62578327360062
C           -7.07959067893971       -1.09071001557911        0.26122880528279
C           -8.09833220191426       -1.83945207473538        0.83694808623099
C           -7.76085386216297       -2.87545419254171        1.68526548250955
C           -6.42738630111981       -3.15957742831128        1.97368248665520
C           -5.39652184135003       -2.42981068699563        1.41273061278005
C           -5.72869101219440       -1.40294041651919        0.54012564973162
C           -2.78433511674211       -1.67088595173164       -0.34146723653226
C           -1.40482319253447       -1.64262102400191       -0.30475515361529
C           -0.71012542835728       -0.46714587281645       -0.03188567870437
C            0.76193715943133       -0.47361400692500       -0.06733454652981
C            1.48121151543555       -1.43596203317355        0.63742572097285
C            2.86175121498027       -1.44716584278065        0.61208006787203
C            3.55448462276396       -0.50538064613252       -0.14394323205597
N            4.95668458611201       -0.51039298589438       -0.16932165035027
C            5.77109460419823        0.57997792809480        0.06684608335359
C            5.43007593519991        1.88215420849286        0.40551777795486
C            6.45521112468201        2.78408173160801        0.61838690283335
C            7.79203111983830        2.40585369432350        0.50816929411822
C            8.13807493263896        1.10716350343981        0.19154406407086
C            7.12500775358233        0.18220686147280       -0.02755225385409
C            7.11739343898877       -1.21858712379086       -0.34544392066311
C            8.12027731735171       -2.15080568685447       -0.58004680166222
C            7.75996025330505       -3.44662008814781       -0.89247618061225
C            6.41889805143171       -3.81437413819698       -0.98504919812094
C            5.40373036878576       -2.90516886718685       -0.75609194727718
C            5.75930585073895       -1.60632522203574       -0.41945661472011
C            2.84152835756900        0.44332862750524       -0.87292644706239
C            1.46225164433368        0.46132141448740       -0.82682531710477
C            0.19988469628355        2.01574679609698        1.59968288368737
H            1.53078941402285        3.30746723954034        2.68335580417854
H            0.79467669458554        5.33408028141684        1.41631814004430
H           -1.84264506689672        3.18516537023414       -0.81906570766161
H           -3.38458617587617        1.56493219848044        0.42796828660822
H           -4.29768201354661        1.61319646654514       -1.89001918989983
H           -6.08363449849341        2.91860698133160       -2.97725382033073
H           -8.44593095167677        2.40734915559948       -2.57681557548902
H           -9.09911573247282        0.54344318269284       -1.09019430035702
H           -9.13225413432147       -1.60991799847312        0.62615640356887
H           -8.53833820305298       -3.47080038901549        2.14134671014504
H           -6.19449263211507       -3.96604030471695        2.65390840963685
H           -4.36740720888116       -2.64763612413133        1.65554971946374
H           -3.30700954489626       -2.58458391718499       -0.58043112540708
H           -0.84746408386821       -2.54222427511584       -0.52062591820045
H            0.95189739181013       -2.16323933581633        1.23572367131040
H            3.41091924179122       -2.17607529127071        1.18910758391221
H            4.39824942994822        2.18269759272383        0.50729890089336
H            6.21478708421461        3.80453541494377        0.87960709069937
H            8.56488527399299        3.14064947413003        0.68040878450859
H            9.17403780956220        0.81108710693444        0.11920395231267
H            9.15935499338461       -1.86227406295872       -0.52333387988191
H            8.52474451136955       -4.18691793557417       -1.07678076010934
H            6.16745951365592       -4.83220192654119       -1.24609992845894
H            4.36834095252383       -3.19658343113871       -0.84822430413470
H            3.37387933385988        1.15681456660495       -1.48397959887384
H            0.91918944659167        1.19569796001777       -1.40340596902462
H            0.48022956476286        1.11794566927228        2.13103965183796

          :  Hamiltonian                  GFN2-xTB          :
         :: gradient norm              0.000038909965 Eh/a0 ::
         :: HOMO-LUMO gap              2.646797451384 eV    ::
         :: SCC energy              -112.527334323036 Eh    ::
         :: -> dispersion             -0.100007417164 Eh    ::
         :: -> Gsolv                  -0.045601137344 Eh    ::
         :: repulsion energy           2.084128716936 Eh    ::

    * Orbital Energies and Occupations

         #    Occupation            Energy/Eh            Energy/eV
      -------------------------------------------------------------
         1        2.0000           -0.6773106             -18.4306
       ...           ...                  ...                  ...
        91        2.0000           -0.4195016             -11.4152
        92        2.0000           -0.4187604             -11.3951
        93        2.0000           -0.4171316             -11.3507
        94        2.0000           -0.4154906             -11.3061
        95        2.0000           -0.4086806             -11.1208
        96        2.0000           -0.4059340             -11.0460
        97        2.0000           -0.4057915             -11.0421
        98        2.0000           -0.3987488             -10.8505
        99        2.0000           -0.3793061             -10.3214
       100        2.0000           -0.3793021             -10.3213
       101        2.0000           -0.3736463             -10.1674
       102        2.0000           -0.3650990              -9.9348
       103        2.0000           -0.3610752              -9.8254 (HOMO)
       104                         -0.2638071              -7.1786 (LUMO)
       105                         -0.2547395              -6.9318
       106                         -0.2491593              -6.7800
       107                         -0.2460299              -6.6948
       108                         -0.2437480              -6.6327
       109                         -0.2339325              -6.3656
       110                         -0.2245582              -6.1105
       111                         -0.2226957              -6.0599
       112                         -0.2226822              -6.0595
       113                         -0.2190931              -5.9618
       114                         -0.1932737              -5.2592
       ...                                ...                  ...
       203                          0.7436900              20.2368
      -------------------------------------------------------------
                  HL-Gap            0.0972681 Eh            2.6468 eV

     #   Z          covCN         q      C6AA      α(0)
     1   6 C        2.912    -0.039    28.973     8.826
     2   6 C        2.913     0.058    26.690     8.471
     3   7 N        1.835    -0.238    27.067     7.710
     4   6 C        2.917     0.057    26.730     8.478
     5   6 C        2.973     0.005    27.908     8.665
     6   6 C        2.978     0.006    27.881     8.661
     7   6 C        2.928    -0.048    29.188     8.860
     8   6 C        2.911     0.064    26.567     8.452
     9   7 N        2.802    -0.045    22.114     6.984
    10   6 C        3.075     0.047    26.869     8.499
    11   6 C        2.910    -0.051    29.276     8.872
    12   6 C        2.924    -0.035    28.864     8.810
    13   6 C        2.920    -0.042    29.051     8.839
    14   6 C        2.912    -0.035    28.862     8.809
    15   6 C        3.067    -0.018    28.397     8.738
    16   6 C        3.067    -0.018    28.395     8.738
    17   6 C        2.912    -0.035    28.862     8.810
    18   6 C        2.919    -0.042    29.055     8.839
    19   6 C        2.924    -0.035    28.870     8.811
    20   6 C        2.910    -0.052    29.292     8.875
    21   6 C        3.074     0.047    26.868     8.499
    22   6 C        2.920    -0.044    29.087     8.844
    23   6 C        2.924    -0.033    28.817     8.803
    24   6 C        2.978     0.005    27.908     8.666
    25   6 C        2.976     0.010    27.789     8.647
    26   6 C        2.924    -0.034    28.838     8.807
    27   6 C        2.920    -0.043    29.067     8.841
    28   6 C        2.912     0.063    26.587     8.455
    29   7 N        2.801    -0.046    22.125     6.986
    30   6 C        3.075     0.047    26.865     8.498
    31   6 C        2.910    -0.052    29.284     8.873
    32   6 C        2.924    -0.035    28.872     8.812
    33   6 C        2.919    -0.043    29.057     8.840
    34   6 C        2.912    -0.035    28.867     8.810
    35   6 C        3.067    -0.019    28.401     8.739
    36   6 C        3.067    -0.019    28.402     8.739
    37   6 C        2.912    -0.035    28.866     8.810
    38   6 C        2.920    -0.043    29.058     8.840
    39   6 C        2.924    -0.035    28.872     8.812
    40   6 C        2.910    -0.052    29.290     8.874
    41   6 C        3.075     0.047    26.863     8.498
    42   6 C        2.921    -0.043    29.057     8.840
    43   6 C        2.924    -0.031    28.780     8.798
    44   6 C        2.933    -0.014    28.365     8.734
    45   1 H        0.926     0.043     2.413     2.429
    46   1 H        0.925     0.038     2.474     2.460
    47   1 H        0.925     0.036     2.499     2.472
    48   1 H        0.926     0.043     2.413     2.429
    49   1 H        0.926     0.028     2.615     2.529
    50   1 H        0.926     0.031     2.578     2.511
    51   1 H        0.926     0.028     2.610     2.526
    52   1 H        0.926     0.031     2.578     2.511
    53   1 H        0.926     0.030     2.581     2.512
    54   1 H        0.926     0.028     2.615     2.529
    55   1 H        0.926     0.030     2.580     2.512
    56   1 H        0.926     0.031     2.578     2.511
    57   1 H        0.926     0.047     2.358     2.402
    58   1 H        0.926     0.047     2.362     2.403
    59   1 H        0.926     0.044     2.400     2.423
    60   1 H        0.926     0.045     2.389     2.417
    61   1 H        0.926     0.028     2.614     2.528
    62   1 H        0.926     0.030     2.589     2.516
    63   1 H        0.926     0.028     2.616     2.529
    64   1 H        0.926     0.030     2.582     2.513
    65   1 H        0.926     0.030     2.586     2.515
    66   1 H        0.926     0.028     2.618     2.530
    67   1 H        0.926     0.030     2.583     2.513
    68   1 H        0.926     0.030     2.579     2.512
    69   1 H        0.926     0.042     2.427     2.436
    70   1 H        0.926     0.034     2.530     2.488
    71   1 H        0.926     0.041     2.430     2.438

molecular dipole:
                 x           y           z       tot (Debye)
 q only:        0.099      -0.622       0.278
   full:        0.203      -0.870       0.444       2.535

 projected vibrational frequencies (cm⁻¹)
eigval :       -0.00    -0.00     0.00     0.00     0.00     0.00
eigval :       14.84    16.14    18.21    27.32    36.15    40.45
eigval :       48.40    63.23    74.06    85.12    91.04   101.82
eigval :      105.86   110.77   113.36   146.68   148.59   167.61
eigval :      180.05   201.32   216.49   233.47   252.39   271.18
eigval :      272.50   275.11   287.25   298.85   326.20   360.27
eigval :      369.88   381.21   383.67   393.91   398.45   401.22
eigval :      420.51   424.33   425.89   434.01   436.54   461.44
eigval :      497.20   510.43   517.76   518.94   530.05   534.27
eigval :      542.38   542.87   543.02   565.14   582.77   588.21
eigval :      592.22   598.83   610.80   614.24   618.58   636.62
eigval :      670.49   673.64   675.84   686.49   693.36   699.50
eigval :      709.94   710.10   712.91   747.85   754.48   759.04
eigval :      767.74   770.57   779.01   782.36   786.16   805.27
eigval :      818.15   840.25   865.84   869.68   872.29   873.72
eigval :      878.05   890.89   897.08   897.48   901.02   901.12
eigval :      901.59   903.78   907.20   912.12   917.70   919.63
eigval :      922.00   924.47   924.92   926.60   927.53   929.40
eigval :      932.57   956.57   999.12  1004.10  1011.22  1011.84
eigval :     1033.89  1068.89  1069.11  1072.98  1073.43  1086.83
eigval :     1094.98  1116.12  1118.23  1133.75  1137.55  1150.24
eigval :     1150.84  1154.00  1174.54  1175.72  1179.23  1181.22
eigval :     1181.77  1187.18  1194.15  1200.33  1232.79  1235.06
eigval :     1235.74  1241.86  1243.75  1263.18  1265.25  1267.68
eigval :     1277.49  1287.00  1298.90  1300.25  1301.44  1303.40
eigval :     1310.77  1312.70  1354.00  1355.84  1357.87  1360.43
eigval :     1361.19  1372.27  1393.54  1399.73  1408.99  1426.00
eigval :     1427.08  1427.45  1432.21  1457.45  1473.83  1473.97
eigval :     1477.38  1486.65  1486.82  1503.82  1548.39  1559.29
eigval :     1561.29  1570.96  1572.83  1573.52  1583.44  1587.11
eigval :     1587.57  1595.61  1597.09  1597.30  1612.72  1613.11
eigval :     3046.81  3054.13  3070.60  3070.85  3070.92  3071.56
eigval :     3076.42  3076.57  3077.12  3077.27  3077.38  3078.53
eigval :     3080.76  3082.58  3084.10  3084.79  3084.99  3085.70
eigval :     3087.62  3090.79  3091.15  3091.90  3092.45  3093.16
eigval :     3093.34  3094.81  3097.06

   temp. (K)  partition function   enthalpy   heat capacity  entropy
                                   cal/mol     cal/K/mol   cal/K/mol   J/K/mol
 298.15  VIB  0.323E+15            19353.572    126.015    118.860
         ROT  0.722E+08              888.752      2.981     38.940
         INT  0.233E+23            20242.324    128.996    157.800
         TR   0.129E+29             1481.254      4.968     44.842
         TOT                       21723.5783   133.9643   202.6414   847.8518

       T/K    H(0)-H(T)+PV         H(T)/Eh          T*S/Eh         G(T)/Eh
   ------------------------------------------------------------------------
    298.15    0.346187E-01    0.579955E+00    0.962815E-01    0.483674E+00
   ------------------------------------------------------------------------

         :::::::::::::::::::::::::::::::::::::::::::::::::::::
         ::                  THERMODYNAMIC                  ::
         :::::::::::::::::::::::::::::::::::::::::::::::::::::
         :: total free energy        -109.959531595263 Eh   ::
         ::.................................................::
         :: total energy             -110.443205607360 Eh   ::
         :: zero point energy           0.545336771144 Eh   ::
         :: G(RRHO) w/o ZPVE           -0.061662759048 Eh   ::
         :: G(RRHO) contrib.            0.483674012097 Eh   ::
         :::::::::::::::::::::::::::::::::::::::::::::::::::::

           -------------------------------------------------
          | TOTAL ENERGY             -110.443205607360 Eh   |
          | TOTAL ENTHALPY           -109.863250110541 Eh   |
          | TOTAL FREE ENERGY        -109.959531595263 Eh   |
          | GRADIENT NORM               0.000038918285 Eh/α |
          | HOMO-LUMO GAP               2.646798396011 eV   |
           -------------------------------------------------

 * finished run on 2025/08/22 at 08:27:05.755
