   * xtb version 6.7.1 (edcfbbe) compiled by 'albert@albert-system' on 2024-07-22

   ID    Z sym.   atoms
    1    6 C      1, 2, 4-8, 10-28, 30-44
    2    7 N      3, 9, 29
    3    1 H      45-71

          program call               : xtb data2507/toluene/CBPPY/CBPPY_toluene_T1_crest.xyz --gfn 2 --uhf 2 --gbsa toluene --ohess vtight --parallel 40 --molden --ceasefiles --namespace data2507/toluene/CBPPY/CBPPY_toluene_T1_finalOpt
      * Solvation model:               GBSA
        Solvent                        toluene
        Solvent mass                       9.2140E+01 g/mol
          :  Hamiltonian                  GFN2-xTB          :
 * total energy  :  -110.3502930 Eh     change       -0.3410477E-08 Eh
 * total energy  :  -110.3503383 Eh     change       -0.4538064E-04 Eh
 * total energy  :  -110.3503587 Eh     change       -0.2038299E-04 Eh
 * total energy  :  -110.3503669 Eh     change       -0.8183405E-05 Eh
 * total energy  :  -110.3503753 Eh     change       -0.8339712E-05 Eh
 * total energy  :  -110.3503860 Eh     change       -0.1072222E-04 Eh
 * total energy  :  -110.3503967 Eh     change       -0.1069952E-04 Eh
 * total energy  :  -110.3504092 Eh     change       -0.1251659E-04 Eh
 * total energy  :  -110.3504257 Eh     change       -0.1646607E-04 Eh
 * total energy  :  -110.3504453 Eh     change       -0.1962069E-04 Eh
 * total energy  :  -110.3505443 Eh     change       -0.4540453E-06 Eh
 * total energy  :  -110.3505447 Eh     change       -0.4549552E-06 Eh
 * total energy  :  -110.3505452 Eh     change       -0.4312589E-06 Eh
 * total energy  :  -110.3505456 Eh     change       -0.4542214E-06 Eh
 * total energy  :  -110.3505461 Eh     change       -0.4645501E-06 Eh
 * total energy  :  -110.3505466 Eh     change       -0.4913728E-06 Eh
 * total energy  :  -110.3505470 Eh     change       -0.4497402E-06 Eh
 * total energy  :  -110.3505474 Eh     change       -0.3716004E-06 Eh
 * total energy  :  -110.3505474 Eh     change       -0.3092723E-08 Eh
   *** GEOMETRY OPTIMIZATION CONVERGED AFTER 44 ITERATIONS ***

 final structure:
================
71
 xtb: 6.7.1 (edcfbbe)
C            0.80549314042277        3.40474990914734        1.76661606611095
C            0.25155619977211        4.52384726706772        1.15570664792577
N           -0.76994386441107        4.43033495655180        0.30734846391116
C           -1.28743199367444        3.25464147990713        0.05425338415224
C           -0.83027626040213        2.04459128800426        0.61852334497639
C           -1.43690883911500        0.78041693045693        0.29549120259565
C           -2.81263809252198        0.71667139786237        0.09563627318649
C           -3.49650256008287       -0.48592666478610        0.07293042081294
N           -4.87626632738152       -0.51771275255184       -0.09983107661756
C           -5.58456763462358        0.18370473229696       -1.05801183098835
C           -5.11865016725925        1.00349945002758       -2.07712214717051
C           -6.04909236133111        1.56716107955388       -2.93056201219501
C           -7.41217834924671        1.31680650940621       -2.78631174405245
C           -7.88031682011058        0.47589847618143       -1.79333350161421
C           -6.96488996394573       -0.10027488690722       -0.92436291096261
C           -7.08777891775756       -1.01509869687898        0.17831110346303
C           -8.17002451092386       -1.62748101488862        0.79341095911139
C           -7.93664547411167       -2.44675973746006        1.88291044427589
C           -6.64605832533636       -2.63989397088340        2.37077459036073
C           -5.55235137431460       -2.03860191734778        1.77537018199540
C           -5.77562975258823       -1.24326636570581        0.65903751923783
C           -2.77258528198018       -1.69922423335822        0.26664392203311
C           -1.41977979464497       -1.66884107314061        0.40113414068162
C           -0.67466439463889       -0.46260408603891        0.33075021403943
C            0.73664780157054       -0.49370914006680        0.19952374569107
C            1.52311396547249       -1.55753306990309        0.72706749848253
C            2.88349966741624       -1.57006431472126        0.62110514068143
C            3.56623074687648       -0.52887336702999       -0.04042324748511
N            4.95205974789932       -0.54083395724798       -0.14020069143551
C            5.79109019178784        0.53386564063177        0.09483039446167
C            5.48550497644524        1.81751055598000        0.52717171690217
C            6.53063220503164        2.70243895195650        0.71847630015180
C            7.85324970360225        2.32391691992590        0.49752824751735
C            8.16727765580689        1.03814671807605        0.09754918311475
C            7.13465037623977        0.13299370041708       -0.10118344107048
C            7.09601510072251       -1.25336449756477       -0.47963040674904
C            8.07515006901565       -2.17622105356352       -0.81839384233005
C            7.68562146868263       -3.45370904474633       -1.17650964048829
C            6.33829661975372       -3.80612184695814       -1.21937898136050
C            5.34535155473533       -2.90317932385832       -0.88639030968624
C            5.73105540283611       -1.62885836358545       -0.49160860893085
C            2.81140552700438        0.51384514363738       -0.60305156260882
C            1.45040180601164        0.53453218303537       -0.48849943092947
C            0.26641853757853        2.16468505905907        1.50538403184312
H            1.63074691008715        3.51600416010775        2.45423604993048
H            0.62107235320972        5.52226650284399        1.34218520183519
H           -2.08474266004913        3.25234378189846       -0.67854928668799
H           -3.38409107125636        1.63343147698223        0.07004716808575
H           -4.06323797285410        1.18538277363326       -2.21008320162943
H           -5.71122388286857        2.21218081044203       -3.72821153727384
H           -8.10909695628577        1.77881882710141       -3.46982469510815
H           -8.93490307027436        0.26635577478418       -1.69684754039567
H           -9.17311546101607       -1.46052007880358        0.43100139909990
H           -8.76569872459883       -2.93445767738454        2.37402108229578
H           -6.49669257348283       -3.26628985124192        3.23785147008900
H           -4.56065761173126       -2.17239465999162        2.17899430317635
H           -3.30441990397205       -2.63726903300273        0.23149125716749
H           -0.88526462021385       -2.60407914467356        0.46597311307845
H            1.03802424817278       -2.34133290815683        1.28819292569256
H            3.45691596746701       -2.35644037634120        1.08947564589834
H            4.46706259721556        2.11645317666324        0.72022745053646
H            6.31642829154894        3.70800175970890        1.04940875223631
H            8.64236480278451        3.04441664183079        0.65404887741882
H            9.19378943432343        0.73984167961357       -0.05302490910658
H            9.11795378573790       -1.89715191457550       -0.80808610967033
H            8.43258361814644       -4.18746754445189       -1.44099157055685
H            6.06234136027086       -4.80437148440576       -1.52571481873120
H            4.30444525247062       -3.18015498740664       -0.94952306041024
H            3.31712574524395        1.28016825557222       -1.17239491183629
H            0.89237188965748        1.30462278318972       -0.99795360050656
H            0.64004796007513        1.28912089445045        2.01534714362259

          :  Hamiltonian                  GFN2-xTB          :
         :: gradient norm              0.000038832509 Eh/a0 ::
         :: HOMO-LUMO gap              0.577588885027 eV    ::
         :: SCC energy              -112.415651027207 Eh    ::
         :: -> dispersion             -0.100246557651 Eh    ::
         :: -> Gsolv                  -0.045374995126 Eh    ::
         :: repulsion energy           2.065103619918 Eh    ::

    * Orbital Energies and Occupations

         #    Occupation            Energy/Eh            Energy/eV
      -------------------------------------------------------------
         1        2.0000           -0.6830651             -18.5871
       ...           ...                  ...                  ...
        92        2.0000           -0.4199805             -11.4283
        93        2.0000           -0.4120066             -11.2113
        94        2.0000           -0.4114360             -11.1957
        95        2.0000           -0.4107352             -11.1767
        96        2.0000           -0.4092587             -11.1365
        97        2.0000           -0.3975028             -10.8166
        98        2.0000           -0.3846622             -10.4672
        99        2.0000           -0.3842998             -10.4573
       100        2.0000           -0.3825882             -10.4108
       101        2.0000           -0.3702142             -10.0740
       102        1.9991           -0.3669079              -9.9841
       103        1.0009           -0.3535889              -9.6216
       104        1.0000           -0.2724895              -7.4148 (HOMO)
       105        0.0000           -0.2512636              -6.8372 (LUMO)
       106        0.0000           -0.2506417              -6.8203
       107                         -0.2445687              -6.6551
       108                         -0.2383270              -6.4852
       109                         -0.2285426              -6.2190
       110                         -0.2281360              -6.2079
       111                         -0.2216049              -6.0302
       112                         -0.2155577              -5.8656
       113                         -0.2038873              -5.5481
       114                         -0.1974876              -5.3739
       115                         -0.1920900              -5.2270
       ...                                ...                  ...
       203                          0.7384915              20.0954
      -------------------------------------------------------------
                  HL-Gap            0.0212260 Eh            0.5776 eV

     #   Z          covCN         q      C6AA      α(0)
     1   6 C        2.908    -0.041    29.022     8.834
     2   6 C        2.905     0.040    27.093     8.535
     3   7 N        1.834    -0.236    27.031     7.705
     4   6 C        2.908     0.053    26.810     8.490
     5   6 C        2.970    -0.006    28.166     8.705
     6   6 C        2.969    -0.011    28.278     8.723
     7   6 C        2.921    -0.049    29.222     8.865
     8   6 C        2.907     0.047    26.946     8.512
     9   7 N        2.799    -0.020    21.627     6.907
    10   6 C        3.073     0.046    26.903     8.504
    11   6 C        2.909    -0.045    29.114     8.848
    12   6 C        2.923    -0.034    28.837     8.806
    13   6 C        2.920    -0.037    28.925     8.819
    14   6 C        2.912    -0.032    28.801     8.800
    15   6 C        3.064    -0.015    28.313     8.725
    16   6 C        3.065    -0.015    28.310     8.725
    17   6 C        2.912    -0.032    28.799     8.800
    18   6 C        2.920    -0.037    28.926     8.820
    19   6 C        2.923    -0.034    28.844     8.807
    20   6 C        2.909    -0.045    29.124     8.849
    21   6 C        3.072     0.046    26.893     8.503
    22   6 C        2.912    -0.052    29.289     8.874
    23   6 C        2.915    -0.035    28.877     8.812
    24   6 C        2.969    -0.009    28.235     8.716
    25   6 C        2.968     0.005    27.898     8.664
    26   6 C        2.917    -0.039    28.980     8.828
    27   6 C        2.913    -0.044    29.096     8.845
    28   6 C        2.911     0.047    26.945     8.512
    29   7 N        2.798    -0.019    21.609     6.904
    30   6 C        3.072     0.045    26.911     8.506
    31   6 C        2.909    -0.045    29.119     8.848
    32   6 C        2.923    -0.034    28.843     8.807
    33   6 C        2.920    -0.037    28.928     8.820
    34   6 C        2.912    -0.032    28.803     8.800
    35   6 C        3.064    -0.015    28.313     8.725
    36   6 C        3.064    -0.015    28.311     8.725
    37   6 C        2.912    -0.032    28.801     8.800
    38   6 C        2.920    -0.037    28.927     8.820
    39   6 C        2.923    -0.034    28.845     8.808
    40   6 C        2.909    -0.046    29.130     8.850
    41   6 C        3.072     0.045    26.912     8.506
    42   6 C        2.912    -0.043    29.066     8.840
    43   6 C        2.918    -0.036    28.893     8.814
    44   6 C        2.929    -0.026    28.647     8.777
    45   1 H        0.926     0.030     2.587     2.515
    46   1 H        0.926     0.027     2.631     2.536
    47   1 H        0.925     0.030     2.593     2.518
    48   1 H        0.926     0.034     2.534     2.490
    49   1 H        0.926     0.035     2.513     2.479
    50   1 H        0.926     0.036     2.509     2.477
    51   1 H        0.926     0.035     2.518     2.481
    52   1 H        0.926     0.037     2.488     2.467
    53   1 H        0.926     0.037     2.492     2.469
    54   1 H        0.926     0.035     2.521     2.483
    55   1 H        0.926     0.036     2.506     2.476
    56   1 H        0.926     0.038     2.471     2.458
    57   1 H        0.926     0.038     2.482     2.463
    58   1 H        0.926     0.039     2.466     2.456
    59   1 H        0.926     0.038     2.482     2.464
    60   1 H        0.926     0.039     2.463     2.454
    61   1 H        0.926     0.036     2.506     2.475
    62   1 H        0.926     0.035     2.520     2.483
    63   1 H        0.926     0.034     2.524     2.484
    64   1 H        0.926     0.037     2.490     2.468
    65   1 H        0.926     0.037     2.494     2.470
    66   1 H        0.926     0.035     2.522     2.484
    67   1 H        0.926     0.036     2.505     2.475
    68   1 H        0.926     0.038     2.473     2.459
    69   1 H        0.926     0.035     2.523     2.484
    70   1 H        0.926     0.029     2.597     2.520
    71   1 H        0.926     0.031     2.572     2.508

molecular dipole:
                 x           y           z       tot (Debye)
 q only:        0.263      -1.238      -0.004
   full:        0.384      -1.432       0.144       3.787

 projected vibrational frequencies (cm⁻¹)
eigval :       -0.00    -0.00    -0.00    -0.00     0.00     0.00
eigval :       12.01    17.76    19.99    29.34    35.23    41.66
eigval :       53.16    71.25    80.13    93.43   100.70   103.60
eigval :      107.38   122.45   127.23   144.53   149.71   175.03
eigval :      182.59   200.66   226.90   233.36   254.86   270.68
eigval :      270.76   280.33   293.20   302.83   317.96   340.22
eigval :      371.23   377.53   386.94   392.73   395.85   398.66
eigval :      408.16   417.32   420.10   433.51   436.61   444.38
eigval :      470.19   485.20   513.45   515.55   519.70   529.60
eigval :      536.09   537.24   542.08   551.67   574.80   579.98
eigval :      584.20   589.16   596.15   601.18   610.80   616.11
eigval :      648.75   665.40   668.45   672.37   673.15   674.77
eigval :      689.82   706.49   708.41   732.06   753.13   755.62
eigval :      761.37   765.23   768.43   776.71   778.11   795.82
eigval :      797.24   807.77   833.07   856.60   862.90   868.26
eigval :      870.95   871.32   872.44   886.27   894.07   895.43
eigval :      896.73   897.88   902.15   905.75   907.02   910.03
eigval :      912.26   914.26   916.84   921.87   922.69   925.69
eigval :      928.15   937.95   963.37   974.51   994.82  1009.57
eigval :     1010.09  1030.76  1067.70  1068.23  1071.32  1071.98
eigval :     1084.71  1108.97  1111.54  1134.38  1135.94  1143.60
eigval :     1146.09  1152.66  1169.07  1169.66  1175.99  1176.35
eigval :     1178.11  1181.81  1188.15  1206.28  1217.57  1229.16
eigval :     1229.31  1235.22  1240.61  1256.27  1260.57  1264.54
eigval :     1281.93  1284.44  1289.56  1291.91  1295.71  1304.98
eigval :     1318.80  1335.56  1343.90  1347.17  1348.09  1356.27
eigval :     1358.92  1360.22  1379.31  1390.87  1403.87  1408.69
eigval :     1414.19  1415.88  1416.25  1423.51  1432.25  1453.98
eigval :     1457.59  1461.54  1465.31  1468.84  1471.60  1480.76
eigval :     1481.97  1508.18  1545.36  1565.33  1565.64  1568.35
eigval :     1574.98  1576.04  1580.72  1581.00  1595.25  1596.66
eigval :     3041.05  3064.42  3071.73  3075.83  3076.46  3076.75
eigval :     3076.81  3077.12  3077.74  3079.55  3082.43  3082.44
eigval :     3083.26  3083.33  3084.06  3084.77  3090.53  3091.06
eigval :     3091.86  3092.28  3093.49  3096.28  3096.50  3097.48
eigval :     3097.92  3099.02  3100.64

   temp. (K)  partition function   enthalpy   heat capacity  entropy
                                   cal/mol     cal/K/mol   cal/K/mol   J/K/mol
 298.15  VIB  0.193E+15            19480.358    128.083    118.773
         ROT  0.731E+08              888.752      2.981     38.965
         INT  0.141E+23            20369.111    131.064    157.738
         TR   0.129E+29             1481.254      4.968     44.842
         TOT                       21850.3645   136.0317   202.5798   847.5938

       T/K    H(0)-H(T)+PV         H(T)/Eh          T*S/Eh         G(T)/Eh
   ------------------------------------------------------------------------
    298.15    0.348208E-01    0.576409E+00    0.962522E-01    0.480157E+00
   ------------------------------------------------------------------------

         :::::::::::::::::::::::::::::::::::::::::::::::::::::
         ::                  THERMODYNAMIC                  ::
         :::::::::::::::::::::::::::::::::::::::::::::::::::::
         :: total free energy        -109.870390323477 Eh   ::
         ::.................................................::
         :: total energy             -110.350547406112 Eh   ::
         :: zero point energy           0.541588501815 Eh   ::
         :: G(RRHO) w/o ZPVE           -0.061431419181 Eh   ::
         :: G(RRHO) contrib.            0.480157082634 Eh   ::
         :::::::::::::::::::::::::::::::::::::::::::::::::::::

           -------------------------------------------------
          | TOTAL ENERGY             -110.350547406112 Eh   |
          | TOTAL ENTHALPY           -109.774138132027 Eh   |
          | TOTAL FREE ENERGY        -109.870390323477 Eh   |
          | GRADIENT NORM               0.000038854172 Eh/α |
          | HOMO-LUMO GAP               0.577587755763 eV   |
           -------------------------------------------------

 * finished run on 2025/08/22 at 08:30:40.908
