   * xtb version 6.7.1 (edcfbbe) compiled by 'albert@albert-system' on 2024-07-22

   ID    Z sym.   atoms
    1    6 C      1, 2, 4-8, 10-28, 30-44
    2    7 N      3, 9, 29
    3    1 H      45-71

          program call               : xtb data2507/toluene/CBPPY/CBPPY_toluene_S0_finalOpt.xtbopt.xyz --gfn 2 --uhf 2 --gbsa toluene --ohess vtight --parallel 40 --molden --ceasefiles --namespace data2507/toluene/CBPPY/CBPPY_toluene_T1_preOpt
      * Solvation model:               GBSA
        Solvent                        toluene
        Solvent mass                       9.2140E+01 g/mol
          :  Hamiltonian                  GFN2-xTB          :
 * total energy  :  -110.3379928 Eh     change       -0.9375486E-07 Eh
 * total energy  :  -110.3424620 Eh     change       -0.4469157E-02 Eh
 * total energy  :  -110.3458002 Eh     change       -0.3338199E-02 Eh
 * total energy  :  -110.3469120 Eh     change       -0.1111834E-02 Eh
 * total energy  :  -110.3484597 Eh     change       -0.1547702E-02 Eh
 * total energy  :  -110.3490977 Eh     change       -0.6380069E-03 Eh
 * total energy  :  -110.3493811 Eh     change       -0.2833798E-03 Eh
 * total energy  :  -110.3495024 Eh     change       -0.1213396E-03 Eh
 * total energy  :  -110.3495805 Eh     change       -0.7803799E-04 Eh
 * total energy  :  -110.3496448 Eh     change       -0.6434233E-04 Eh
 * total energy  :  -110.3505335 Eh     change       -0.7060523E-06 Eh
 * total energy  :  -110.3505340 Eh     change       -0.5695706E-06 Eh
 * total energy  :  -110.3505345 Eh     change       -0.4192001E-06 Eh
 * total energy  :  -110.3505347 Eh     change       -0.2740549E-06 Eh
 * total energy  :  -110.3505350 Eh     change       -0.2259520E-06 Eh
 * total energy  :  -110.3505351 Eh     change       -0.1886768E-06 Eh
 * total energy  :  -110.3505353 Eh     change       -0.1999434E-06 Eh
 * total energy  :  -110.3505355 Eh     change       -0.2033653E-06 Eh
 * total energy  :  -110.3505355 Eh     change       -0.3960167E-08 Eh
   *** GEOMETRY OPTIMIZATION CONVERGED AFTER 68 ITERATIONS ***

 final structure:
================
71
 xtb: 6.7.1 (edcfbbe)
C            0.80247461540845        3.33163387519681        1.92857056614876
C            0.23602596657593        4.47576561370181        1.37850521337589
N           -0.79311855117950        4.41698930244967        0.53626582614878
C           -1.30634955227913        3.25196566418554        0.23113496762029
C           -0.83705986508172        2.01843809894843        0.73154936108670
C           -1.44064004201073        0.76834272324046        0.35353694202885
C           -2.81738674688479        0.70834140957549        0.15789192850667
C           -3.49674627398648       -0.49445243597139        0.08183596283456
N           -4.87681030324357       -0.52367354753418       -0.08861136970507
C           -5.58956703469218        0.22016175191104       -1.01079723397277
C           -5.12828942620162        1.08793232193148       -1.99156524474446
C           -6.06230959354719        1.68783682088181       -2.81590411660693
C           -7.42437830124631        1.42726527199522       -2.68025783583070
C           -7.88778070406088        0.53944400228076       -1.72664488182385
C           -6.96857397201630       -0.07460351011989       -0.88811882164167
C           -7.08590756128815       -1.04204618285725        0.16934908272085
C           -8.16486594736069       -1.68758565516914        0.75557182343741
C           -7.92645578418473       -2.55820559235071        1.80336008281167
C           -6.63415582213250       -2.77072530338642        2.27841423855861
C           -5.54365698626125       -2.13733177928512        1.71108414793938
C           -5.77189017580945       -1.28881804689005        0.63565457202215
C           -2.76754572043347       -1.71292592485785        0.21384975056571
C           -1.41422913505222       -1.68341005826583        0.34323270710487
C           -0.67412116990150       -0.47234498007277        0.32638319572819
C            0.73667859592580       -0.49300219158349        0.18646866751204
C            1.52809237188610       -1.57759256244900        0.66127326783467
C            2.88766174573971       -1.58352641387268        0.54489558587341
C            3.56407647053318       -0.51265873879920       -0.07399959608914
N            4.94927254334216       -0.51878661221004       -0.18445551164465
C            5.78981262700258        0.54226033607378        0.10062149959571
C            5.48656442776039        1.80080739893531        0.60261267260334
C            6.53281363546290        2.67445303331205        0.83509220351757
C            7.85403756946650        2.30860300042514        0.58614959169312
C            8.16569095367044        1.04645991278168        0.11521888128569
C            7.13200563156689        0.15262604062364       -0.12508544531343
C            7.09060267350935       -1.21225333184428       -0.57497749772866
C            8.06690460267501       -2.11665443023459       -0.96741821989729
C            7.67441582904989       -3.37454885141547       -1.38662024658057
C            6.32679034867191       -3.72477474433391       -1.43723381885533
C            5.33655619790290       -2.83997280420240       -1.05179079626043
C            5.72558002858477       -1.58708194214821       -0.59640829411891
C            2.80442424983318        0.55367526175394       -0.58292130110853
C            1.44405835105642        0.56678307241692       -0.45868857586745
C            0.26786286168930        2.10242150773357        1.61265283555277
H            1.63365201038847        3.41448593619812        2.61307434410521
H            0.60117287748689        5.46632416037968        1.61005589791793
H           -2.11037466070510        3.28063145520696       -0.49371363032967
H           -3.39263632846102        1.62281959347712        0.17812135017095
H           -4.07363910670827        1.27854022360926       -2.11834175912610
H           -5.72806594572298        2.36995964569384       -3.58367264157929
H           -8.12427988020128        1.91887740315817       -3.33963631162588
H           -8.94157933740455        0.32283953856715       -1.63720266042579
H           -9.16911263924551       -1.50692733833264        0.40299398273291
H           -8.75272870016270       -3.07225347521148        2.27173987289453
H           -6.48075695699460       -3.43908397404611        3.11282249468861
H           -4.55071914206258       -2.28839197026979        2.10536594210899
H           -3.29609761506932       -2.65026254844502        0.13657254239919
H           -0.87577467834082       -2.61847859887357        0.36069430357225
H            1.04787203120356       -2.38589383249288        1.19092152586256
H            3.46569189795971       -2.38925275950336        0.97298693757088
H            4.46903716017177        2.08809398813991        0.81717784145029
H            6.32083575828145        3.66027529460786        1.22206032337628
H            8.64412732761477        3.01976827560461        0.77669864562446
H            9.19136538765985        0.75728790267970       -0.05736172768986
H            9.10987942426692       -1.83856198058746       -0.95076178956946
H            8.41931858924277       -4.09390233394538       -1.69319703550108
H            6.04840782903069       -4.70636405610151       -1.79144617894359
H            4.29500545331989       -3.11328907724037       -1.12057763687953
H            3.30558270498912        1.34649488541992       -1.11911993312713
H            0.88149523323145        1.35833864903772       -0.92874743729115
H            0.65165279200718        1.20577402771496        2.07632632608316

          :  Hamiltonian                  GFN2-xTB          :
         :: gradient norm              0.000031784518 Eh/a0 ::
         :: HOMO-LUMO gap              0.578298879487 eV    ::
         :: SCC energy              -112.415699720934 Eh    ::
         :: -> dispersion             -0.100237680124 Eh    ::
         :: -> Gsolv                  -0.045370271554 Eh    ::
         :: repulsion energy           2.065164172323 Eh    ::

    * Orbital Energies and Occupations

         #    Occupation            Energy/Eh            Energy/eV
      -------------------------------------------------------------
         1        2.0000           -0.6830654             -18.5872
       ...           ...                  ...                  ...
        92        2.0000           -0.4199985             -11.4287
        93        2.0000           -0.4120532             -11.2125
        94        2.0000           -0.4114308             -11.1956
        95        2.0000           -0.4107513             -11.1771
        96        2.0000           -0.4092937             -11.1374
        97        2.0000           -0.3974730             -10.8158
        98        2.0000           -0.3846651             -10.4673
        99        2.0000           -0.3843159             -10.4578
       100        2.0000           -0.3825206             -10.4089
       101        2.0000           -0.3702016             -10.0737
       102        1.9991           -0.3668971              -9.9838
       103        1.0009           -0.3536363              -9.6229
       104        1.0000           -0.2725097              -7.4154 (HOMO)
       105        0.0000           -0.2512577              -6.8371 (LUMO)
       106        0.0000           -0.2506510              -6.8206
       107                         -0.2445566              -6.6547
       108                         -0.2382959              -6.4844
       109                         -0.2285255              -6.2185
       110                         -0.2281566              -6.2085
       111                         -0.2216489              -6.0314
       112                         -0.2155318              -5.8649
       113                         -0.2038021              -5.5457
       114                         -0.1974699              -5.3734
       115                         -0.1920877              -5.2270
       ...                                ...                  ...
       203                          0.7384650              20.0947
      -------------------------------------------------------------
                  HL-Gap            0.0212520 Eh            0.5783 eV

     #   Z          covCN         q      C6AA      α(0)
     1   6 C        2.908    -0.041    29.021     8.833
     2   6 C        2.904     0.040    27.096     8.535
     3   7 N        1.834    -0.236    27.026     7.704
     4   6 C        2.908     0.053    26.811     8.490
     5   6 C        2.970    -0.006    28.169     8.706
     6   6 C        2.969    -0.011    28.279     8.723
     7   6 C        2.921    -0.049    29.224     8.865
     8   6 C        2.907     0.047    26.944     8.511
     9   7 N        2.799    -0.020    21.626     6.907
    10   6 C        3.073     0.046    26.903     8.504
    11   6 C        2.909    -0.045    29.114     8.848
    12   6 C        2.923    -0.034    28.837     8.806
    13   6 C        2.920    -0.037    28.924     8.819
    14   6 C        2.912    -0.032    28.801     8.800
    15   6 C        3.064    -0.015    28.313     8.725
    16   6 C        3.065    -0.015    28.310     8.725
    17   6 C        2.912    -0.032    28.798     8.800
    18   6 C        2.920    -0.037    28.926     8.820
    19   6 C        2.923    -0.034    28.844     8.807
    20   6 C        2.909    -0.045    29.123     8.849
    21   6 C        3.072     0.046    26.893     8.503
    22   6 C        2.912    -0.052    29.291     8.875
    23   6 C        2.915    -0.035    28.876     8.812
    24   6 C        2.969    -0.009    28.235     8.716
    25   6 C        2.968     0.005    27.897     8.664
    26   6 C        2.917    -0.039    28.979     8.828
    27   6 C        2.913    -0.044    29.095     8.845
    28   6 C        2.911     0.047    26.944     8.512
    29   7 N        2.798    -0.019    21.613     6.905
    30   6 C        3.072     0.045    26.909     8.506
    31   6 C        2.909    -0.045    29.119     8.848
    32   6 C        2.923    -0.034    28.842     8.807
    33   6 C        2.920    -0.037    28.929     8.820
    34   6 C        2.912    -0.032    28.803     8.800
    35   6 C        3.064    -0.015    28.314     8.726
    36   6 C        3.064    -0.015    28.311     8.725
    37   6 C        2.912    -0.032    28.801     8.800
    38   6 C        2.920    -0.037    28.928     8.820
    39   6 C        2.923    -0.034    28.844     8.807
    40   6 C        2.909    -0.046    29.130     8.850
    41   6 C        3.072     0.045    26.910     8.506
    42   6 C        2.912    -0.043    29.064     8.840
    43   6 C        2.918    -0.036    28.891     8.814
    44   6 C        2.929    -0.026    28.649     8.778
    45   1 H        0.926     0.030     2.587     2.515
    46   1 H        0.926     0.027     2.631     2.537
    47   1 H        0.925     0.030     2.592     2.518
    48   1 H        0.926     0.034     2.534     2.489
    49   1 H        0.926     0.035     2.512     2.479
    50   1 H        0.926     0.036     2.509     2.477
    51   1 H        0.926     0.035     2.518     2.481
    52   1 H        0.926     0.037     2.488     2.466
    53   1 H        0.926     0.037     2.492     2.469
    54   1 H        0.926     0.035     2.521     2.483
    55   1 H        0.926     0.036     2.506     2.476
    56   1 H        0.926     0.038     2.471     2.458
    57   1 H        0.926     0.038     2.481     2.463
    58   1 H        0.926     0.039     2.465     2.455
    59   1 H        0.926     0.038     2.481     2.463
    60   1 H        0.926     0.039     2.464     2.455
    61   1 H        0.926     0.036     2.507     2.476
    62   1 H        0.926     0.035     2.520     2.483
    63   1 H        0.926     0.034     2.524     2.484
    64   1 H        0.926     0.037     2.490     2.468
    65   1 H        0.926     0.037     2.494     2.470
    66   1 H        0.926     0.035     2.523     2.484
    67   1 H        0.926     0.036     2.506     2.475
    68   1 H        0.926     0.038     2.474     2.460
    69   1 H        0.926     0.035     2.523     2.484
    70   1 H        0.926     0.029     2.596     2.520
    71   1 H        0.926     0.031     2.572     2.508

molecular dipole:
                 x           y           z       tot (Debye)
 q only:        0.261      -1.239      -0.067
   full:        0.385      -1.439       0.070       3.791

 projected vibrational frequencies (cm⁻¹)
eigval :       -0.00    -0.00    -0.00    -0.00     0.00     0.00
eigval :       10.16    16.50    18.92    28.31    34.18    40.95
eigval :       52.49    68.24    79.96    92.39   100.65   102.63
eigval :      107.47   122.52   126.55   143.53   148.93   174.51
eigval :      181.26   200.13   226.41   232.66   253.69   269.67
eigval :      270.30   280.26   292.57   302.76   317.34   339.93
eigval :      371.27   377.17   386.50   393.19   395.26   398.11
eigval :      407.58   417.10   419.90   433.06   436.38   443.96
eigval :      469.04   485.66   513.80   515.52   520.52   528.99
eigval :      536.31   536.52   541.38   551.81   574.72   580.02
eigval :      584.40   589.09   596.00   601.22   610.57   616.28
eigval :      649.01   664.42   667.44   672.35   672.90   673.95
eigval :      689.53   707.38   708.20   732.09   753.24   755.51
eigval :      755.95   766.09   766.24   775.71   776.13   796.19
eigval :      797.12   810.00   837.58   855.18   862.39   868.93
eigval :      870.36   870.88   871.93   887.02   894.00   895.18
eigval :      896.02   899.04   901.18   904.48   905.26   906.28
eigval :      910.44   914.83   917.61   918.03   921.38   922.81
eigval :      930.25   938.03   963.20   974.62   995.22  1009.60
eigval :     1010.07  1030.83  1067.43  1068.18  1070.62  1071.41
eigval :     1085.06  1109.35  1111.55  1134.82  1136.28  1143.77
eigval :     1145.61  1152.40  1169.49  1170.51  1176.14  1177.61
eigval :     1177.97  1181.76  1188.75  1206.43  1217.25  1229.31
eigval :     1229.36  1234.65  1240.37  1257.12  1260.83  1264.96
eigval :     1281.96  1284.96  1289.76  1291.76  1295.83  1305.33
eigval :     1318.89  1335.73  1344.12  1347.26  1348.14  1356.32
eigval :     1359.00  1360.37  1379.16  1390.84  1403.87  1409.12
eigval :     1414.06  1415.97  1416.31  1423.39  1432.22  1454.29
eigval :     1457.61  1461.84  1465.76  1468.86  1471.61  1480.96
eigval :     1482.03  1508.06  1545.44  1565.37  1565.82  1568.38
eigval :     1575.26  1576.33  1580.81  1581.03  1595.26  1596.59
eigval :     3041.19  3063.64  3070.23  3076.10  3076.60  3076.78
eigval :     3076.88  3077.02  3078.47  3079.03  3082.24  3082.60
eigval :     3082.79  3083.08  3083.61  3084.68  3090.37  3091.11
eigval :     3091.55  3092.40  3093.40  3096.24  3096.68  3097.18
eigval :     3097.69  3098.94  3100.16

   temp. (K)  partition function   enthalpy   heat capacity  entropy
                                   cal/mol     cal/K/mol   cal/K/mol   J/K/mol
 298.15  VIB  0.307E+15            19512.908    128.037    119.281
         ROT  0.731E+08              888.752      2.981     38.966
         INT  0.225E+23            20401.660    131.018    158.247
         TR   0.129E+29             1481.254      4.968     44.842
         TOT                       21882.9139   135.9859   203.0891   849.7250

       T/K    H(0)-H(T)+PV         H(T)/Eh          T*S/Eh         G(T)/Eh
   ------------------------------------------------------------------------
    298.15    0.348726E-01    0.576358E+00    0.964942E-01    0.479864E+00
   ------------------------------------------------------------------------

         :::::::::::::::::::::::::::::::::::::::::::::::::::::
         ::                  THERMODYNAMIC                  ::
         :::::::::::::::::::::::::::::::::::::::::::::::::::::
         :: total free energy        -109.870671652180 Eh   ::
         ::.................................................::
         :: total energy             -110.350535547007 Eh   ::
         :: zero point energy           0.541485457097 Eh   ::
         :: G(RRHO) w/o ZPVE           -0.061621562270 Eh   ::
         :: G(RRHO) contrib.            0.479863894826 Eh   ::
         :::::::::::::::::::::::::::::::::::::::::::::::::::::

           -------------------------------------------------
          | TOTAL ENERGY             -110.350535547007 Eh   |
          | TOTAL ENTHALPY           -109.774177446938 Eh   |
          | TOTAL FREE ENERGY        -109.870671652180 Eh   |
          | GRADIENT NORM               0.000032217113 Eh/α |
          | HOMO-LUMO GAP               0.578297267943 eV   |
           -------------------------------------------------

 * finished run on 2025/08/22 at 08:27:13.357
