   * xtb version 6.7.1 (edcfbbe) compiled by 'albert@albert-system' on 2024-07-22

   ID    Z sym.   atoms
    1    6 C      1, 2, 4-8, 10-28, 30-44
    2    7 N      3, 9, 29
    3    1 H      45-71

          program call               : xtb data2507/toluene/CBPPY/CBPPY.xyz --gfn 2 --gbsa toluene --ohess vtight --parallel 40 --molden --ceasefiles --namespace data2507/toluene/CBPPY/CBPPY_toluene_S0_preOpt
      * Solvation model:               GBSA
        Solvent                        toluene
        Solvent mass                       9.2140E+01 g/mol
          :  Hamiltonian                  GFN2-xTB          :
 * total energy  :  -110.4220554 Eh     change       -0.5615973E-08 Eh
 * total energy  :  -110.4361027 Eh     change       -0.1404736E-01 Eh
 * total energy  :  -110.4388674 Eh     change       -0.2764641E-02 Eh
 * total energy  :  -110.4394439 Eh     change       -0.5764876E-03 Eh
 * total energy  :  -110.4401586 Eh     change       -0.7147214E-03 Eh
 * total energy  :  -110.4405710 Eh     change       -0.4124366E-03 Eh
 * total energy  :  -110.4409237 Eh     change       -0.3526565E-03 Eh
 * total energy  :  -110.4412266 Eh     change       -0.3029202E-03 Eh
 * total energy  :  -110.4414612 Eh     change       -0.2346285E-03 Eh
 * total energy  :  -110.4416693 Eh     change       -0.2081029E-03 Eh
 * total energy  :  -110.4426326 Eh     change       -0.9298207E-06 Eh
 * total energy  :  -110.4426328 Eh     change       -0.2430862E-06 Eh
 * total energy  :  -110.4426336 Eh     change       -0.7931533E-06 Eh
 * total energy  :  -110.4426341 Eh     change       -0.4762298E-06 Eh
 * total energy  :  -110.4426344 Eh     change       -0.3185579E-06 Eh
 * total energy  :  -110.4426349 Eh     change       -0.4592995E-06 Eh
 * total energy  :  -110.4426354 Eh     change       -0.5415842E-06 Eh
 * total energy  :  -110.4426357 Eh     change       -0.2664185E-06 Eh
 * total energy  :  -110.4426357 Eh     change       -0.6439859E-07 Eh
   *** GEOMETRY OPTIMIZATION CONVERGED AFTER 75 ITERATIONS ***

 final structure:
================
71
 xtb: 6.7.1 (edcfbbe)
C            0.75680736976770        2.78198056442244        2.56791696537318
C            0.32896084028406        4.03102886160593        2.14144785073752
N           -0.61055219447085        4.19798987719266        1.22508065149821
C           -1.16109697419784        3.12306497246788        0.69188145358191
C           -0.80952814936432        1.81697382551894        1.03336280937708
C           -1.47449954775658        0.66450223293915        0.40433883931341
C           -2.86307264425416        0.63452701325243        0.35971854785126
C           -3.53824749994464       -0.45214632468759       -0.18377113888506
N           -4.93931189353621       -0.45981418751373       -0.22915061114947
C           -5.73501938458055        0.54614120664982       -0.74182397781555
C           -5.36960437135701        1.74016703390958       -1.34731029260505
C           -6.37729100086770        2.56774336831503       -1.80465648646533
C           -7.72019803280797        2.21851127979225       -1.67489538866570
C           -8.08940159736477        1.02108861540209       -1.09474804447515
C           -7.09396340715829        0.17214996318030       -0.62755870315102
C           -7.10949825999994       -1.12415670671834       -0.00851828978982
C           -8.12725248855392       -1.98894470549452        0.37376762524993
C           -7.78927003338822       -3.18180984775601        0.98175631716867
C           -6.45666888460724       -3.51029490748069        1.22321775550366
C           -5.42680946148713       -2.66731875706332        0.85084678048747
C           -5.75899978465161       -1.47782728431648        0.21755493871975
C           -2.81060334823617       -1.53028491780156       -0.68082274381767
C           -1.43136256520082       -1.50487145396086       -0.63608823338424
C           -0.74241538188714       -0.41510791971847       -0.11020755406267
C            0.73007468819051       -0.40858241144890       -0.14812877613993
C            1.45264856637753       -1.49917996823218        0.33017677145892
C            2.83268863938927       -1.50813386258331        0.28488258110311
C            3.52111228281039       -0.42027874708839       -0.24488407695083
N            4.92339348934542       -0.42459957342720       -0.28574955868533
C            5.76076258153348       -0.68759025218619        0.78030264789357
C            5.44798525075298       -0.94780622471822        2.10738737483049
C            6.49203099136777       -1.15485821354475        2.98872717476435
C            7.81998219561453       -1.09838634605478        2.56967672757954
C            8.13819487712532       -0.81679494345400        1.25584422603990
C            7.10576841094704       -0.60478562719810        0.35086170199180
C            7.06776255902903       -0.28015146976191       -1.04789513438739
C            8.04953706593874       -0.08630645123159       -2.01145824004933
C            7.66038738874067        0.20086642543377       -3.30476749730744
C            6.31144227862582        0.28055148191063       -3.64590051276459
C            5.31673603935715        0.09129199413454       -2.70552773899571
C            5.70167394780578       -0.17460637201254       -1.39875057097249
C            2.80576005508133        0.66868320635685       -0.73616704741856
C            1.42612005659791        0.66970527002107       -0.69015778709357
C            0.17554505514128        1.65888686832627        2.00697862626856
H            1.52173875517913        2.69239847609528        3.32357702613787
H            0.74973777938213        4.94108594665708        2.54901826869936
H           -1.91475147261803        3.31339258273955       -0.06233119312709
H           -3.42687522179603        1.45313426229573        0.78243779883743
H           -4.33184090593156        2.01123366605579       -1.46911103588251
H           -6.11818504388219        3.50420617232224       -2.27707879849705
H           -8.47916789992038        2.89328644218286       -2.04297708645784
H           -9.12950790078033        0.74377347820646       -1.00892554036318
H           -9.16072881087294       -1.72760989670241        0.20137621064722
H           -8.56593809131375       -3.86880115145117        1.28465178934183
H           -6.22377157062592       -4.44362683407225        1.71512369115513
H           -4.39872585280016       -2.92413454397168        1.05695426117604
H           -3.32890339718229       -2.37097820885780       -1.11633933434197
H           -0.86942366037021       -2.33180263576892       -1.04458943298569
H            0.92579121943431       -2.34258693872103        0.75228148056945
H            3.38485931267479       -2.36177738487888        0.64887471012574
H            4.42305197887594       -0.97877893531905        2.44532364065625
H            6.27434089125765       -1.36246950814153        4.02647612825361
H            8.60843621348020       -1.26897771974798        3.28815127559371
H            9.16759066432094       -0.75812514216836        0.93485476479050
H            9.09467021676991       -0.16335337410404       -1.75077264848141
H            8.40826152170940        0.35743190054717       -4.06837229834048
H            6.03720854176570        0.49230940606833       -4.66927953837207
H            4.27475009407964        0.13940874251756       -2.98392130418397
H            3.33676168221839        1.51653038065209       -1.14240544606015
H            0.88025739795644        1.51450290998576       -1.08381143731413
H            0.46965383483777        0.66911232220000        2.32402508665497

          :  Hamiltonian                  GFN2-xTB          :
         :: gradient norm              0.000093032992 Eh/a0 ::
         :: HOMO-LUMO gap              2.646354025585 eV    ::
         :: SCC energy              -112.526841363270 Eh    ::
         :: -> dispersion             -0.099612940972 Eh    ::
         :: -> Gsolv                  -0.045609656979 Eh    ::
         :: repulsion energy           2.084205622661 Eh    ::

    * Orbital Energies and Occupations

         #    Occupation            Energy/Eh            Energy/eV
      -------------------------------------------------------------
         1        2.0000           -0.6772791             -18.4297
       ...           ...                  ...                  ...
        91        2.0000           -0.4191701             -11.4062
        92        2.0000           -0.4189379             -11.3999
        93        2.0000           -0.4176875             -11.3659
        94        2.0000           -0.4157094             -11.3120
        95        2.0000           -0.4087490             -11.1226
        96        2.0000           -0.4058861             -11.0447
        97        2.0000           -0.4057673             -11.0415
        98        2.0000           -0.3982604             -10.8372
        99        2.0000           -0.3792815             -10.3208
       100        2.0000           -0.3792143             -10.3189
       101        2.0000           -0.3733774             -10.1601
       102        2.0000           -0.3649892              -9.9319
       103        2.0000           -0.3611727              -9.8280 (HOMO)
       104                         -0.2639211              -7.1817 (LUMO)
       105                         -0.2544980              -6.9252
       106                         -0.2490114              -6.7759
       107                         -0.2459947              -6.6939
       108                         -0.2438015              -6.6342
       109                         -0.2340783              -6.3696
       110                         -0.2244656              -6.1080
       111                         -0.2226674              -6.0591
       112                         -0.2226057              -6.0574
       113                         -0.2188238              -5.9545
       114                         -0.1932317              -5.2581
       ...                                ...                  ...
       203                          0.7437946              20.2397
      -------------------------------------------------------------
                  HL-Gap            0.0972517 Eh            2.6464 eV

     #   Z          covCN         q      C6AA      α(0)
     1   6 C        2.912    -0.039    28.970     8.826
     2   6 C        2.913     0.059    26.688     8.471
     3   7 N        1.835    -0.238    27.064     7.709
     4   6 C        2.918     0.056    26.734     8.479
     5   6 C        2.973     0.005    27.912     8.666
     6   6 C        2.978     0.006    27.878     8.661
     7   6 C        2.928    -0.048    29.189     8.860
     8   6 C        2.911     0.064    26.566     8.452
     9   7 N        2.802    -0.045    22.116     6.985
    10   6 C        3.075     0.047    26.869     8.499
    11   6 C        2.910    -0.051    29.276     8.872
    12   6 C        2.924    -0.035    28.863     8.810
    13   6 C        2.920    -0.042    29.051     8.839
    14   6 C        2.912    -0.035    28.862     8.809
    15   6 C        3.067    -0.018    28.397     8.738
    16   6 C        3.067    -0.018    28.395     8.738
    17   6 C        2.912    -0.035    28.863     8.810
    18   6 C        2.920    -0.042    29.055     8.839
    19   6 C        2.924    -0.035    28.870     8.811
    20   6 C        2.910    -0.052    29.291     8.875
    21   6 C        3.074     0.047    26.868     8.499
    22   6 C        2.920    -0.044    29.085     8.844
    23   6 C        2.925    -0.033    28.816     8.803
    24   6 C        2.978     0.005    27.909     8.666
    25   6 C        2.976     0.010    27.783     8.646
    26   6 C        2.924    -0.034    28.838     8.806
    27   6 C        2.920    -0.043    29.059     8.840
    28   6 C        2.913     0.063    26.587     8.455
    29   7 N        2.802    -0.046    22.132     6.987
    30   6 C        3.075     0.047    26.864     8.498
    31   6 C        2.910    -0.052    29.293     8.875
    32   6 C        2.924    -0.035    28.876     8.812
    33   6 C        2.920    -0.043    29.062     8.840
    34   6 C        2.912    -0.035    28.866     8.810
    35   6 C        3.067    -0.019    28.403     8.739
    36   6 C        3.067    -0.019    28.406     8.739
    37   6 C        2.912    -0.035    28.868     8.810
    38   6 C        2.920    -0.043    29.059     8.840
    39   6 C        2.924    -0.035    28.871     8.812
    40   6 C        2.909    -0.052    29.290     8.874
    41   6 C        3.075     0.047    26.862     8.498
    42   6 C        2.920    -0.042    29.054     8.839
    43   6 C        2.924    -0.031    28.777     8.797
    44   6 C        2.933    -0.014    28.360     8.734
    45   1 H        0.926     0.043     2.410     2.427
    46   1 H        0.925     0.038     2.474     2.460
    47   1 H        0.925     0.036     2.498     2.472
    48   1 H        0.926     0.043     2.409     2.427
    49   1 H        0.926     0.028     2.615     2.529
    50   1 H        0.926     0.031     2.578     2.511
    51   1 H        0.926     0.028     2.610     2.526
    52   1 H        0.926     0.031     2.578     2.511
    53   1 H        0.926     0.030     2.581     2.513
    54   1 H        0.926     0.028     2.615     2.529
    55   1 H        0.926     0.030     2.581     2.512
    56   1 H        0.926     0.031     2.579     2.511
    57   1 H        0.926     0.047     2.359     2.402
    58   1 H        0.926     0.047     2.360     2.403
    59   1 H        0.926     0.044     2.398     2.422
    60   1 H        0.926     0.045     2.389     2.417
    61   1 H        0.926     0.030     2.593     2.518
    62   1 H        0.926     0.030     2.587     2.515
    63   1 H        0.926     0.028     2.621     2.532
    64   1 H        0.926     0.030     2.588     2.516
    65   1 H        0.926     0.030     2.585     2.514
    66   1 H        0.926     0.028     2.619     2.531
    67   1 H        0.926     0.030     2.589     2.516
    68   1 H        0.926     0.029     2.594     2.519
    69   1 H        0.926     0.042     2.427     2.436
    70   1 H        0.926     0.034     2.529     2.487
    71   1 H        0.926     0.041     2.432     2.439

molecular dipole:
                 x           y           z       tot (Debye)
 q only:        0.082      -0.645       0.150
   full:        0.198      -0.926       0.250       2.490

 projected vibrational frequencies (cm⁻¹)
eigval :       -0.00    -0.00     0.00     0.00     0.00     0.00
eigval :       10.23    11.64    16.66    24.64    31.98    38.33
eigval :       48.96    58.16    75.11    82.98    89.58   100.71
eigval :      104.31   104.83   109.44   142.26   145.18   172.79
eigval :      180.09   195.90   212.40   233.07   257.41   269.23
eigval :      271.70   272.21   285.94   295.52   327.37   363.13
eigval :      365.73   379.68   380.21   392.17   394.49   409.18
eigval :      418.14   422.82   424.29   433.13   436.10   462.11
eigval :      496.52   510.34   517.40   518.62   527.73   533.97
eigval :      539.06   541.71   542.21   565.10   582.94   587.80
eigval :      593.75   595.99   611.04   616.04   619.89   635.72
eigval :      670.30   673.08   675.51   685.98   692.92   699.46
eigval :      708.28   709.88   712.08   747.45   754.42   758.78
eigval :      767.38   768.33   778.73   779.48   786.68   805.14
eigval :      818.69   841.13   864.94   866.82   871.07   872.80
eigval :      878.75   890.59   896.81   897.14   899.51   900.63
eigval :      901.32   902.54   905.35   915.19   917.73   919.68
eigval :      920.98   921.79   924.06   924.84   927.72   928.57
eigval :      932.35   956.54   998.99  1004.17  1010.99  1011.66
eigval :     1033.59  1067.98  1068.50  1071.99  1072.06  1087.03
eigval :     1094.86  1115.62  1117.71  1133.14  1137.73  1149.24
eigval :     1149.84  1153.85  1173.99  1174.09  1179.16  1179.63
eigval :     1180.79  1185.47  1195.29  1199.57  1232.94  1234.28
eigval :     1234.89  1241.22  1244.87  1263.81  1264.84  1267.06
eigval :     1277.82  1286.56  1298.32  1299.91  1301.05  1302.63
eigval :     1310.59  1312.50  1353.80  1355.62  1357.62  1360.46
eigval :     1360.91  1371.89  1393.53  1399.51  1408.51  1425.97
eigval :     1426.86  1427.24  1432.16  1457.47  1473.49  1473.99
eigval :     1477.23  1486.33  1486.60  1503.46  1547.98  1559.33
eigval :     1561.46  1571.15  1572.74  1573.32  1583.74  1587.17
eigval :     1587.52  1596.09  1597.10  1597.37  1612.76  1613.13
eigval :     3046.65  3056.10  3070.36  3070.86  3071.33  3072.04
eigval :     3075.78  3076.92  3077.06  3077.58  3077.80  3078.65
eigval :     3081.16  3083.18  3083.72  3084.65  3085.60  3085.65
eigval :     3087.93  3090.46  3091.41  3091.51  3093.19  3093.71
eigval :     3094.35  3094.45  3097.28

   temp. (K)  partition function   enthalpy   heat capacity  entropy
                                   cal/mol     cal/K/mol   cal/K/mol   J/K/mol
 298.15  VIB  0.114E+16            19435.449    125.901    120.239
         ROT  0.725E+08              888.752      2.981     38.948
         INT  0.824E+23            20324.201    128.882    159.187
         TR   0.129E+29             1481.254      4.968     44.842
         TOT                       21805.4552   133.8500   204.0290   853.6574

       T/K    H(0)-H(T)+PV         H(T)/Eh          T*S/Eh         G(T)/Eh
   ------------------------------------------------------------------------
    298.15    0.347492E-01    0.579824E+00    0.969408E-01    0.482883E+00
   ------------------------------------------------------------------------

         :::::::::::::::::::::::::::::::::::::::::::::::::::::
         ::                  THERMODYNAMIC                  ::
         :::::::::::::::::::::::::::::::::::::::::::::::::::::
         :: total free energy        -109.959752550582 Eh   ::
         ::.................................................::
         :: total energy             -110.442635742029 Eh   ::
         :: zero point energy           0.545074756779 Eh   ::
         :: G(RRHO) w/o ZPVE           -0.062191565331 Eh   ::
         :: G(RRHO) contrib.            0.482883191448 Eh   ::
         :::::::::::::::::::::::::::::::::::::::::::::::::::::

           -------------------------------------------------
          | TOTAL ENERGY             -110.442635742029 Eh   |
          | TOTAL ENTHALPY           -109.862811780477 Eh   |
          | TOTAL FREE ENERGY        -109.959752550582 Eh   |
          | GRADIENT NORM               0.000093019505 Eh/α |
          | HOMO-LUMO GAP               2.646352603085 eV   |
           -------------------------------------------------

 * finished run on 2025/08/22 at 08:24:02.351
