   * xtb version 6.7.1 (edcfbbe) compiled by 'albert@albert-system' on 2024-07-22

   ID    Z sym.   atoms
    1    6 C      1-9, 11-25, 27-44
    2   15 P      10, 26
    3    1 H      45-92

          program call               : xtb data2507/toluene/LiPr/LiPr.xyz --gfn 2 --gbsa toluene --ohess vtight --parallel 40 --molden --ceasefiles --namespace data2507/toluene/LiPr/LiPr_toluene_S0_preOpt
      * Solvation model:               GBSA
        Solvent                        toluene
        Solvent mass                       9.2140E+01 g/mol
          :  Hamiltonian                  GFN2-xTB          :
 * total energy  :  -119.4429862 Eh     change       -0.2160647E-08 Eh
 * total energy  :  -119.4627840 Eh     change       -0.1979774E-01 Eh
 * total energy  :  -119.4699366 Eh     change       -0.7152618E-02 Eh
 * total energy  :  -119.4732673 Eh     change       -0.3330658E-02 Eh
 * total energy  :  -119.4757307 Eh     change       -0.2463483E-02 Eh
 * total energy  :  -119.4769700 Eh     change       -0.1239277E-02 Eh
 * total energy  :  -119.4775651 Eh     change       -0.5950774E-03 Eh
 * total energy  :  -119.4779572 Eh     change       -0.3921262E-03 Eh
 * total energy  :  -119.4782727 Eh     change       -0.3154493E-03 Eh
 * total energy  :  -119.4785477 Eh     change       -0.2750369E-03 Eh
 * total energy  :  -119.4822804 Eh     change       -0.8434073E-06 Eh
 * total energy  :  -119.4822812 Eh     change       -0.8258103E-06 Eh
 * total energy  :  -119.4822821 Eh     change       -0.8284420E-06 Eh
 * total energy  :  -119.4822829 Eh     change       -0.8236495E-06 Eh
 * total energy  :  -119.4822837 Eh     change       -0.8389251E-06 Eh
 * total energy  :  -119.4822846 Eh     change       -0.8484878E-06 Eh
 * total energy  :  -119.4822854 Eh     change       -0.8772154E-06 Eh
 * total energy  :  -119.4822863 Eh     change       -0.9005100E-06 Eh
 * total energy  :  -119.4822864 Eh     change       -0.6856538E-08 Eh
   *** GEOMETRY OPTIMIZATION CONVERGED AFTER 580 ITERATIONS ***

 final structure:
================
92
 xtb: 6.7.1 (edcfbbe)
C            5.42885983129587        1.30584551254819       -1.47342854254950
C            4.96498581203226        2.02834631663009       -0.20703242375132
C            4.92202419589481        1.09423211335863        1.00048280145447
C            3.64219474364154        2.73417703855295       -0.41101921115786
C            3.65889686601184        4.12374365368783       -0.32451675128158
C            2.52542366943833        4.89045924061191       -0.51368879957978
C            1.32597158709262        4.26230262755389       -0.79215344743845
C            1.28330421361122        2.88412830122286       -0.86680864609958
C            2.42045469720083        2.09798356749100       -0.67819735547699
P            2.28423346379610        0.26345391423879       -0.91174954613483
C            1.73751653418906       -0.29961308294081        0.75511177255715
C            1.21091751165788        0.63082222384256        1.65100962124138
C            0.96940940148625        0.30862249850811        2.97029199301532
C            1.26609095721095       -0.96541282426655        3.42080015314967
C            1.78619002696916       -1.89412038992796        2.53987975083888
C            2.04484629145381       -1.59277624388577        1.20496489505163
C            2.69484846827803       -2.68809709653827        0.38239544386140
C            2.01258629583494       -2.95270744142621       -0.95550745988339
C            4.18911741104950       -2.42263009832938        0.17558062157725
C            0.81554542233651        0.26731650551068       -2.04293972942476
C            1.26972937038711        0.56511209749314       -3.33177915188000
C            0.42207501750927        0.62990362028202       -4.41723862487201
C           -0.92550950673802        0.37071415959989       -4.23018180901312
C           -1.39122287563764        0.06134427666144       -2.96742548214806
C           -0.54719142784136       -0.00351947220622       -1.85686735268693
P           -1.27333362566221       -0.32435907559599       -0.18454141628426
C           -1.59993234169882       -2.13582599133716       -0.26744186118908
C           -1.32201891063512       -2.88757093659346       -1.40663260262166
C           -1.57386174692685       -4.24729681171029       -1.44307859822752
C           -2.10311534440351       -4.87530477697327       -0.32980010361717
C           -2.37692571264374       -4.13678486674296        0.80721200481802
C           -2.13291555848403       -2.77024483482201        0.86326476834701
C           -2.48092594661545       -1.99769385252977        2.11150596143992
C           -1.83427407849384       -2.60453507892404        3.35654590997652
C           -3.99919618261344       -1.91348040358569        2.28731073410294
C           -3.01806037959385        0.23447715305927       -0.48010832149171
C           -3.96952658665632       -0.62846293680996       -1.02631018402757
C           -5.28027754789267       -0.23137753136984       -1.20748281143217
C           -5.66906551721681        1.04128519101514       -0.82623706863256
C           -4.73851949826812        1.89891744332815       -0.27283262668931
C           -3.41138530866038        1.52024827033342       -0.09582748365347
C           -2.43927806779832        2.49649366798788        0.51582936908280
C           -2.81207988738315        2.78753283481626        1.97072165931323
C           -2.36545845930771        3.79114435974043       -0.29386890413452
H            5.48563816412594        2.00655415472927       -2.30465431698080
H            4.74229811800019        0.50690957424179       -1.74231295566995
H            6.41506064422322        0.87473588217112       -1.31491217614609
H            5.71125737370783        2.80331175386748        0.00841751492745
H            4.17665638803873        0.31660118920544        0.86202085537273
H            5.89242002915490        0.62418586299366        1.14584108492809
H            4.66792347708918        1.65221086428272        1.90023770563323
H            4.59591997850479        4.62049149113927       -0.11104176835295
H            2.58023938763791        5.96763252092731       -0.44853318035587
H            0.42943090076980        4.84118317553402       -0.95588942867027
H            0.33873175935660        2.40448142819479       -1.08187872067291
H            1.00060472376855        1.63325104167261        1.30678697404771
H            0.56563398453286        1.04940120078673        3.64490281614544
H            1.10053446901159       -1.23391588664150        4.45425700952402
H            2.02036050040360       -2.88645632872918        2.90328325829235
H            2.60748306793480       -3.60981916200885        0.97175393744437
H            2.12941131318780       -2.11072346431227       -1.63564239952083
H            0.95205178450458       -3.13503689481459       -0.80654655189025
H            2.45216778559368       -3.83030473941464       -1.42652449537157
H            4.65593071797050       -3.29147487710866       -0.28419366330779
H            4.33851846534864       -1.56907556558686       -0.48027365037636
H            4.68005488406372       -2.22781821010323        1.12667818980517
H            2.32750330858262        0.76150015782579       -3.46879283211830
H            0.80601418630143        0.87420511446539       -5.39717063518738
H           -1.61393629580932        0.40904913623033       -5.06236486828376
H           -2.44643428957365       -0.13170556065541       -2.83752049320510
H           -0.91172176368234       -2.40415020648983       -2.28268089242979
H           -1.35551666305926       -4.81040078149170       -2.33936286985378
H           -2.30566302093843       -5.93660601351485       -0.34781314508624
H           -2.79725085416183       -4.63610898692686        1.66772300979305
H           -2.08980110665263       -0.97735095159990        1.99174241567973
H           -1.99795754768453       -1.95309082652501        4.21239668208861
H           -2.26020709424351       -3.57826034870129        3.58557558975097
H           -0.76388265408921       -2.71696271363931        3.20624014847923
H           -4.24229153003299       -1.33143983366990        3.17385880428837
H           -4.46014089366145       -1.43731540147514        1.42472842048697
H           -4.42631860532533       -2.90768476522175        2.40031232494311
H           -3.68440187050057       -1.63051160314170       -1.31565099268281
H           -5.99488956794693       -0.91753183573329       -1.63993609993251
H           -6.69290094615928        1.36099165262742       -0.95714854340777
H           -5.05261783322848        2.88706425339786        0.02967284178403
H           -1.44555010730329        2.02971492298153        0.50896937894087
H           -3.78441763025154        3.27112261414721        2.03232674629642
H           -2.85131822467383        1.86267934874189        2.54197827587333
H           -2.07164359320761        3.44424836800133        2.42250177479051
H           -3.32424287823833        4.30408460876568       -0.30017754994205
H           -1.62729706434699        4.45817705152355        0.14510865818740
H           -2.08259165433759        3.58316374773773       -1.32450433231507

          :  Hamiltonian                  GFN2-xTB          :
         :: gradient norm              0.000284941429 Eh/a0 ::
         :: HOMO-LUMO gap              2.833415015211 eV    ::
         :: SCC energy              -121.559555298730 Eh    ::
         :: -> dispersion             -0.140226270896 Eh    ::
         :: -> Gsolv                  -0.038798869550 Eh    ::
         :: repulsion energy           2.077268944392 Eh    ::

    * Orbital Energies and Occupations

         #    Occupation            Energy/Eh            Energy/eV
      -------------------------------------------------------------
         1        2.0000           -0.6627698             -18.0349
       ...           ...                  ...                  ...
       101        2.0000           -0.4064986             -11.0614
       102        2.0000           -0.4040434             -10.9946
       103        2.0000           -0.4019675             -10.9381
       104        2.0000           -0.4002524             -10.8914
       105        2.0000           -0.3978855             -10.8270
       106        2.0000           -0.3971095             -10.8059
       107        2.0000           -0.3953742             -10.7587
       108        2.0000           -0.3947173             -10.7408
       109        2.0000           -0.3930586             -10.6957
       110        2.0000           -0.3921795             -10.6717
       111        2.0000           -0.3890255             -10.5859
       112        2.0000           -0.3583508              -9.7512
       113        2.0000           -0.3506425              -9.5415 (HOMO)
       114                         -0.2465164              -6.7081 (LUMO)
       115                         -0.2406776              -6.5492
       116                         -0.2357699              -6.4156
       117                         -0.2331878              -6.3454
       118                         -0.2255863              -6.1385
       119                         -0.2236406              -6.0856
       120                         -0.2228062              -6.0629
       121                         -0.2207334              -6.0065
       122                         -0.2194758              -5.9722
       123                         -0.2164227              -5.8892
       124                         -0.1541490              -4.1946
       ...                                ...                  ...
       234                          1.0936001              29.7584
      -------------------------------------------------------------
                  HL-Gap            0.1041261 Eh            2.8334 eV

     #   Z          covCN         q      C6AA      α(0)
     1   6 C        3.754    -0.100    22.463     6.758
     2   6 C        3.856    -0.011    20.731     6.476
     3   6 C        3.755    -0.099    22.448     6.756
     4   6 C        3.009     0.010    27.788     8.647
     5   6 C        2.929    -0.041    29.008     8.833
     6   6 C        2.917    -0.032    28.800     8.800
     7   6 C        2.918    -0.037    28.917     8.818
     8   6 C        2.988    -0.028    28.684     8.785
     9   6 C        2.914     0.020    27.569     8.610
    10  15 P        3.235    -0.184   168.654    23.329
    11   6 C        2.918     0.030    27.338     8.574
    12   6 C        2.989    -0.022    28.544     8.764
    13   6 C        2.918    -0.032    28.802     8.801
    14   6 C        2.918    -0.029    28.716     8.787
    15   6 C        2.929    -0.039    28.972     8.827
    16   6 C        3.022     0.010    27.776     8.645
    17   6 C        3.856    -0.010    20.715     6.473
    18   6 C        3.755    -0.095    22.375     6.745
    19   6 C        3.755    -0.101    22.487     6.762
    20   6 C        2.955     0.023    27.502     8.602
    21   6 C        3.132    -0.029    28.499     8.739
    22   6 C        2.916    -0.031    28.765     8.795
    23   6 C        2.919    -0.033    28.818     8.803
    24   6 C        2.985    -0.030    28.733     8.793
    25   6 C        2.922     0.021    27.539     8.606
    26  15 P        3.126    -0.174   168.224    23.299
    27   6 C        2.918     0.015    27.676     8.627
    28   6 C        2.969    -0.029    28.728     8.792
    29   6 C        2.918    -0.037    28.909     8.817
    30   6 C        2.917    -0.033    28.831     8.805
    31   6 C        2.925    -0.036    28.906     8.817
    32   6 C        3.043     0.009    27.774     8.644
    33   6 C        3.858    -0.009    20.708     6.472
    34   6 C        3.756    -0.101    22.486     6.761
    35   6 C        3.756    -0.097    22.398     6.748
    36   6 C        2.916     0.010    27.794     8.645
    37   6 C        2.970    -0.030    28.734     8.793
    38   6 C        2.918    -0.037    28.927     8.820
    39   6 C        2.918    -0.032    28.809     8.802
    40   6 C        2.925    -0.036    28.898     8.816
    41   6 C        3.029     0.010    27.764     8.643
    42   6 C        3.857    -0.010    20.720     6.474
    43   6 C        3.756    -0.098    22.433     6.753
    44   6 C        3.756    -0.096    22.385     6.746
    45   1 H        0.925     0.030     2.593     2.518
    46   1 H        0.925     0.051     2.305     2.374
    47   1 H        0.925     0.038     2.470     2.458
    48   1 H        0.924     0.029     2.599     2.521
    49   1 H        0.925     0.057     2.239     2.340
    50   1 H        0.925     0.038     2.473     2.459
    51   1 H        0.925     0.027     2.625     2.534
    52   1 H        0.925     0.028     2.619     2.531
    53   1 H        0.926     0.028     2.616     2.529
    54   1 H        0.926     0.030     2.592     2.518
    55   1 H        0.926     0.036     2.505     2.475
    56   1 H        0.926     0.041     2.439     2.442
    57   1 H        0.926     0.031     2.577     2.510
    58   1 H        0.926     0.031     2.574     2.509
    59   1 H        0.925     0.025     2.665     2.553
    60   1 H        0.924     0.027     2.626     2.534
    61   1 H        0.925     0.050     2.315     2.379
    62   1 H        0.925     0.030     2.582     2.513
    63   1 H        0.925     0.033     2.543     2.494
    64   1 H        0.925     0.037     2.486     2.466
    65   1 H        0.925     0.054     2.272     2.357
    66   1 H        0.925     0.033     2.541     2.493
    67   1 H        0.925     0.039     2.467     2.456
    68   1 H        0.926     0.031     2.576     2.510
    69   1 H        0.926     0.028     2.613     2.528
    70   1 H        0.926     0.037     2.490     2.468
    71   1 H        0.925     0.030     2.584     2.514
    72   1 H        0.926     0.026     2.639     2.540
    73   1 H        0.926     0.028     2.615     2.529
    74   1 H        0.926     0.033     2.541     2.493
    75   1 H        0.925     0.048     2.349     2.397
    76   1 H        0.925     0.037     2.491     2.468
    77   1 H        0.925     0.039     2.467     2.456
    78   1 H        0.925     0.037     2.494     2.470
    79   1 H        0.925     0.037     2.489     2.467
    80   1 H        0.925     0.029     2.599     2.521
    81   1 H        0.925     0.037     2.491     2.468
    82   1 H        0.925     0.029     2.599     2.521
    83   1 H        0.926     0.025     2.660     2.550
    84   1 H        0.926     0.028     2.608     2.526
    85   1 H        0.926     0.034     2.526     2.486
    86   1 H        0.924     0.051     2.311     2.377
    87   1 H        0.925     0.038     2.482     2.464
    88   1 H        0.925     0.035     2.520     2.483
    89   1 H        0.925     0.039     2.462     2.454
    90   1 H        0.925     0.037     2.488     2.467
    91   1 H        0.925     0.039     2.458     2.452
    92   1 H        0.925     0.027     2.626     2.534

molecular dipole:
                 x           y           z       tot (Debye)
 q only:        0.198       0.125       0.488
   full:       -0.373       0.166       0.229       1.189

 projected vibrational frequencies (cm⁻¹)
eigval :       -0.00    -0.00     0.00     0.00     0.00     0.00
eigval :       14.03    22.31    26.26    36.00    38.65    42.62
eigval :       45.83    50.17    52.86    60.96    65.32    68.22
eigval :       74.35    80.29    95.76   100.50   101.68   117.46
eigval :      119.23   122.82   132.26   134.19   141.04   151.80
eigval :      161.32   163.96   178.89   190.52   192.60   196.20
eigval :      205.66   212.24   215.35   221.53   224.39   225.18
eigval :      232.56   243.77   250.17   257.96   262.49   265.24
eigval :      277.08   286.62   297.00   307.96   317.78   319.98
eigval :      323.23   325.41   330.85   339.82   380.11   392.66
eigval :      394.02   402.05   410.77   432.58   443.46   458.32
eigval :      461.82   466.89   478.91   486.01   493.50   500.92
eigval :      510.02   514.55   523.69   525.13   527.13   528.11
eigval :      558.35   563.23   563.73   566.15   622.71   650.95
eigval :      656.37   662.66   668.41   676.06   690.59   692.61
eigval :      693.23   695.58   712.30   761.88   762.31   764.59
eigval :      765.97   767.47   773.96   777.53   778.25   779.64
eigval :      873.91   879.08   885.03   886.00   887.25   913.74
eigval :      915.60   918.67   919.55   920.86   927.93   929.12
eigval :      929.68   932.87   933.53   937.20   937.86   938.08
eigval :      939.77   940.70   943.90   944.84   947.47   984.29
eigval :      985.19   986.05   986.37   991.47  1015.28  1017.31
eigval :     1020.80  1024.45  1067.21  1071.48  1083.35  1088.02
eigval :     1093.17  1109.35  1109.48  1111.16  1113.41  1122.98
eigval :     1131.58  1134.21  1139.46  1140.81  1142.19  1145.58
eigval :     1147.79  1149.43  1151.82  1164.78  1166.01  1176.04
eigval :     1176.89  1179.67  1184.59  1185.39  1186.34  1187.92
eigval :     1220.96  1223.05  1223.35  1226.91  1246.87  1251.91
eigval :     1258.75  1263.37  1265.58  1286.73  1294.01  1295.39
eigval :     1296.59  1298.27  1304.22  1305.76  1314.93  1321.83
eigval :     1330.23  1332.78  1359.34  1364.55  1388.86  1394.08
eigval :     1395.72  1399.63  1400.14  1407.28  1411.29  1413.91
eigval :     1414.60  1417.29  1418.68  1420.72  1423.53  1430.11
eigval :     1451.05  1455.56  1456.40  1457.58  1474.87  1485.31
eigval :     1486.67  1488.02  1489.23  1490.43  1491.60  1493.27
eigval :     1494.92  1496.08  1499.96  1500.87  1501.69  1504.92
eigval :     1506.61  1507.55  1548.42  1563.83  1566.77  1567.62
eigval :     1568.75  1573.55  1584.74  1585.86  1586.99  1587.17
eigval :     2876.91  2896.91  2905.27  2908.36  3010.31  3018.71
eigval :     3018.86  3019.95  3022.19  3022.41  3023.31  3023.49
eigval :     3025.20  3025.24  3026.41  3027.37  3027.50  3029.42
eigval :     3030.02  3031.55  3032.01  3036.53  3037.01  3038.19
eigval :     3038.99  3042.67  3048.38  3052.03  3055.22  3056.76
eigval :     3058.50  3062.55  3063.41  3066.20  3069.08  3069.27
eigval :     3069.52  3070.49  3073.87  3075.23  3075.49  3076.86
eigval :     3077.19  3084.08  3084.58  3085.56  3086.20  3088.65

   temp. (K)  partition function   enthalpy   heat capacity  entropy
                                   cal/mol     cal/K/mol   cal/K/mol   J/K/mol
 298.15  VIB  0.808E+20            26936.832    163.356    168.634
         ROT  0.420E+08              888.752      2.981     37.866
         INT  0.340E+28            27825.584    166.337    206.499
         TR   0.147E+29             1481.254      4.968     45.111
         TOT                       29306.8379   171.3053   251.6103  1052.7373

       T/K    H(0)-H(T)+PV         H(T)/Eh          T*S/Eh         G(T)/Eh
   ------------------------------------------------------------------------
    298.15    0.467034E-01    0.812489E+00    0.119548E+00    0.692941E+00
   ------------------------------------------------------------------------

         :::::::::::::::::::::::::::::::::::::::::::::::::::::
         ::                  THERMODYNAMIC                  ::
         :::::::::::::::::::::::::::::::::::::::::::::::::::::
         :: total free energy        -118.789345676665 Eh   ::
         ::.................................................::
         :: total energy             -119.482286352981 Eh   ::
         :: zero point energy           0.765785412082 Eh   ::
         :: G(RRHO) w/o ZPVE           -0.072844735766 Eh   ::
         :: G(RRHO) contrib.            0.692940676316 Eh   ::
         :::::::::::::::::::::::::::::::::::::::::::::::::::::

           -------------------------------------------------
          | TOTAL ENERGY             -119.482286352981 Eh   |
          | TOTAL ENTHALPY           -118.669797521923 Eh   |
          | TOTAL FREE ENERGY        -118.789345676665 Eh   |
          | GRADIENT NORM               0.000284943573 Eh/α |
          | HOMO-LUMO GAP               2.833415405177 eV   |
           -------------------------------------------------

 * finished run on 2025/09/12 at 22:17:18.224
