   * xtb version 6.7.1 (edcfbbe) compiled by 'albert@albert-system' on 2024-07-22

   ID    Z sym.   atoms
    1    6 C      1-9, 11-25, 27-44
    2   15 P      10, 26
    3    1 H      45-92

          program call               : xtb data2507/toluene/LiPr/LiPr_toluene_S0_finalOpt.xtbopt.xyz --gfn 2 --uhf 2 --gbsa toluene --ohess vtight --parallel 40 --molden --ceasefiles --namespace data2507/toluene/LiPr/LiPr_toluene_T1_preOpt
      * Solvation model:               GBSA
        Solvent                        toluene
        Solvent mass                       9.2140E+01 g/mol
          :  Hamiltonian                  GFN2-xTB          :
 * total energy  :  -119.3821826 Eh     change       -0.9827659E-08 Eh
 * total energy  :  -119.3884776 Eh     change       -0.6294976E-02 Eh
 * total energy  :  -119.3901642 Eh     change       -0.1686593E-02 Eh
 * total energy  :  -119.3905258 Eh     change       -0.3616388E-03 Eh
 * total energy  :  -119.3908491 Eh     change       -0.3232446E-03 Eh
 * total energy  :  -119.3910171 Eh     change       -0.1680217E-03 Eh
 * total energy  :  -119.3911966 Eh     change       -0.1795281E-03 Eh
 * total energy  :  -119.3913327 Eh     change       -0.1360314E-03 Eh
 * total energy  :  -119.3914413 Eh     change       -0.1086175E-03 Eh
 * total energy  :  -119.3915596 Eh     change       -0.1182952E-03 Eh
 * total energy  :  -119.3933974 Eh     change       -0.4639333E-06 Eh
 * total energy  :  -119.3933979 Eh     change       -0.5163200E-06 Eh
 * total energy  :  -119.3933984 Eh     change       -0.4863724E-06 Eh
 * total energy  :  -119.3933989 Eh     change       -0.4801951E-06 Eh
 * total energy  :  -119.3933993 Eh     change       -0.4536649E-06 Eh
 * total energy  :  -119.3933998 Eh     change       -0.4998922E-06 Eh
 * total energy  :  -119.3934003 Eh     change       -0.4536770E-06 Eh
 * total energy  :  -119.3934007 Eh     change       -0.4476259E-06 Eh
 * total energy  :  -119.3934007 Eh     change       -0.6235013E-08 Eh
   *** GEOMETRY OPTIMIZATION CONVERGED AFTER 94 ITERATIONS ***

 final structure:
================
92
 xtb: 6.7.1 (edcfbbe)
C            4.86162210628829       -1.25760126949297        2.15668696965849
C            4.75807829315007       -0.92023117774299        0.66929705612083
C            6.07195146186438       -1.22075842734205       -0.05518767384753
C            4.34428324358740        0.51341520230815        0.44894531326830
C            5.14383918918278        1.55206168715778        0.90595621711994
C            4.79945723758915        2.87470187680236        0.68902440638515
C            3.63537804357178        3.17892839150457        0.00167560218443
C            2.82509525515969        2.15985833001449       -0.45900133243254
C            3.15477277349901        0.82599286591887       -0.22603718549717
P            2.17322357844805       -0.52622114243153       -0.99707757150931
C            1.25422776829623       -1.21196308327040        0.41409207986438
C            1.31321400235112       -0.59874399241979        1.67008032938035
C            0.75882150131586       -1.20499729257087        2.77736262217750
C            0.15714676442480       -2.44753067886148        2.64762933109373
C            0.10192880797269       -3.06791715605419        1.41093967293077
C            0.65170427714954       -2.47886134596541        0.28194930142639
C            0.72567743579907       -3.20953218575454       -1.03446590342492
C            2.06425892602785       -3.95208268640544       -1.12272088619739
C           -0.42211648977326       -4.19110001514513       -1.26207898951419
C            0.97595699623527        0.34021256480544       -2.03432834316848
C            1.51494955556930        0.77652905722751       -3.24514750054416
C            0.76523647944333        1.45838331798607       -4.17620328221858
C           -0.59625388310924        1.69806910354572       -3.89782447846544
C           -1.15471636414942        1.25509495136213       -2.73486558089174
C           -0.42384666717191        0.49321953094925       -1.78206404212004
P           -1.24400414802791        0.17638342630939       -0.22217175462614
C           -2.52916419269439       -1.08058431086659       -0.60957051556055
C           -2.61710824401819       -1.57773043661193       -1.90987399392687
C           -3.59042916468465       -2.49406761782447       -2.25402803995999
C           -4.46735646688361       -2.95831562503159       -1.28505793050640
C           -4.34756773705673       -2.51232513784112        0.01911904200287
C           -3.37757279162719       -1.58806895416671        0.38675148664728
C           -3.25813417397760       -1.14809262015536        1.82337359457930
C           -3.22721197002663       -2.34439748081047        2.77783444451560
C           -4.40176962118506       -0.21049613381534        2.21748520996969
C           -2.27285516141772        1.63813287242177        0.13682129283939
C           -3.54001979114515        1.73932978683575       -0.46737279651002
C           -4.25252630078393        2.91650596550830       -0.41498598369936
C           -3.72783768250717        4.01810455469807        0.24733286525372
C           -2.47963352097961        3.92454872010680        0.85170151759901
C           -1.73803357233969        2.75903591417659        0.80219052765117
C           -0.41077058121411        2.63507279608766        1.50053104780465
C           -0.62920001144727        2.18565465421746        2.94700377517984
C            0.42175640395316        3.91382773443221        1.45818119889220
H            3.91458958744941       -1.06429419792491        2.65554109000877
H            5.63506301249930       -0.66310188101440        2.63701078978159
H            5.10886389746110       -2.30955535951471        2.28293040034164
H            3.97862672460580       -1.56121941961249        0.23406659101828
H            6.32568714688588       -2.27345120678376        0.04994293255208
H            5.97982376542665       -0.99072336954649       -1.11513486294664
H            6.88621313275426       -0.62818272327487        0.35487318953243
H            6.05878374108000        1.32653102868294        1.43416807024515
H            5.44099412500753        3.66660316793140        1.04808698777138
H            3.36113537238330        4.20848550789998       -0.17831059673900
H            1.91968384120101        2.39658060316636       -1.00081273219426
H            1.80781378092925        0.35717014862019        1.76835313609468
H            0.81248463562782       -0.72350104948330        3.74264277595763
H           -0.25104983300322       -2.94137134755605        3.51680734260877
H           -0.35233706414179       -4.04372035979421        1.33341540298103
H            0.69985416599307       -2.45381238764856       -1.83287325395948
H            2.89637331145858       -3.25217967415544       -1.06925334610275
H            2.13002082171562       -4.49209539995868       -2.06444502710236
H            2.15584917399557       -4.66277223400111       -0.30364949740538
H           -0.30507912278432       -5.07795413695632       -0.64337143111985
H           -1.37955540157469       -3.72791788562360       -1.03952043640109
H           -0.42921612400674       -4.50960974268997       -2.30228795207812
H            2.56811123817784        0.59320992161074       -3.42937577521645
H            1.20651651249431        1.81249689626437       -5.09512099331596
H           -1.20600768156719        2.22481233145944       -4.61900367785146
H           -2.20202782940078        1.44552935686146       -2.53859556920346
H           -1.92633595166293       -1.22012914680946       -2.66055928064071
H           -3.66364280132091       -2.84513131345038       -3.27322069637404
H           -5.23231034866569       -3.67615127248734       -1.54300387548886
H           -5.02451904668845       -2.89538647747357        0.76787248208742
H           -2.30478460843392       -0.60495473259908        1.91452276492466
H           -4.21363303288865       -2.79260873442817        2.86918928751322
H           -2.53379773879578       -3.10017058999907        2.42095812415776
H           -2.91357577395642       -2.01884794121310        3.76701729240493
H           -5.36100664353535       -0.70691064706892        2.08526168482932
H           -4.30298021847848        0.07746073867042        3.26203805438566
H           -4.39448574926559        0.69067421855790        1.60993871784762
H           -3.96201434044898        0.88029499229298       -0.97246392069319
H           -5.22393106962776        2.97593526476793       -0.88674504461429
H           -4.28700848475061        4.94055118917466        0.29928162839417
H           -2.09036233967948        4.78414615382021        1.37601962811479
H            0.14542462584675        1.84133363954221        0.97502139190284
H           -1.23569294374562        2.91591233966187        3.47944915082497
H           -1.14133819349654        1.22640497880891        2.97107148103876
H            0.32530795189693        2.08598451259795        3.45887928195923
H            0.00369596263603        4.67603543196610        2.11170930864575
H            1.43609451878003        3.70453450975210        1.79143691917483
H            0.46615887381798        4.30877352375808        0.44527820981911

          :  Hamiltonian                  GFN2-xTB          :
         :: gradient norm              0.000046782631 Eh/a0 ::
         :: HOMO-LUMO gap              0.250265914420 eV    ::
         :: SCC energy              -121.467954962285 Eh    ::
         :: -> dispersion             -0.141872810051 Eh    ::
         :: -> Gsolv                  -0.039532328255 Eh    ::
         :: repulsion energy           2.074554243443 Eh    ::

    * Orbital Energies and Occupations

         #    Occupation            Energy/Eh            Energy/eV
      -------------------------------------------------------------
         1        2.0000           -0.6673182             -18.1587
       ...           ...                  ...                  ...
       102        2.0000           -0.4067506             -11.0682
       103        2.0000           -0.4035950             -10.9824
       104        2.0000           -0.4018297             -10.9343
       105        2.0000           -0.3995326             -10.8718
       106        2.0000           -0.3978572             -10.8262
       107        2.0000           -0.3956499             -10.7662
       108        2.0000           -0.3950870             -10.7509
       109        2.0000           -0.3938342             -10.7168
       110        2.0000           -0.3912136             -10.6455
       111        2.0000           -0.3861885             -10.5087
       112        1.9983           -0.3582272              -9.7479
       113        1.0017           -0.3460750              -9.4172
       114        0.9922           -0.2520534              -6.8587 (HOMO)
       115        0.0078           -0.2428562              -6.6085 (LUMO)
       116        0.0000           -0.2363145              -6.4304
       117        0.0000           -0.2326892              -6.3318
       118                         -0.2254569              -6.1350
       119                         -0.2238241              -6.0906
       120                         -0.2224585              -6.0534
       121                         -0.2217046              -6.0329
       122                         -0.2176495              -5.9225
       123                         -0.2157469              -5.8708
       124                         -0.1448551              -3.9417
       125                         -0.1435220              -3.9054
       ...                                ...                  ...
       234                          1.1390425              30.9949
      -------------------------------------------------------------
                  HL-Gap            0.0091972 Eh            0.2503 eV

     #   Z          covCN         q      C6AA      α(0)
     1   6 C        3.755    -0.101    22.477     6.760
     2   6 C        3.858    -0.010    20.713     6.473
     3   6 C        3.756    -0.100    22.468     6.758
     4   6 C        3.036     0.010    27.769     8.643
     5   6 C        2.923    -0.036    28.891     8.815
     6   6 C        2.918    -0.034    28.842     8.807
     7   6 C        2.918    -0.035    28.863     8.810
     8   6 C        2.979    -0.026    28.642     8.779
     9   6 C        2.919     0.012    27.755     8.639
    10  15 P        3.270    -0.159   167.494    23.248
    11   6 C        2.941     0.029    27.351     8.577
    12   6 C        2.985    -0.018    28.458     8.751
    13   6 C        2.916    -0.032    28.790     8.799
    14   6 C        2.919    -0.024    28.613     8.772
    15   6 C        2.921    -0.033    28.827     8.805
    16   6 C        3.047     0.017    27.577     8.613
    17   6 C        3.860    -0.007    20.663     6.465
    18   6 C        3.758    -0.098    22.429     6.752
    19   6 C        3.755    -0.101    22.493     6.762
    20   6 C        2.949     0.006    27.889     8.662
    21   6 C        3.079    -0.028    28.600     8.768
    22   6 C        2.913    -0.059    29.477     8.903
    23   6 C        2.913    -0.042    29.051     8.838
    24   6 C        3.027    -0.031    28.753     8.796
    25   6 C        2.934    -0.007    28.198     8.709
    26  15 P        3.231    -0.121   165.699    23.123
    27   6 C        2.919     0.013    27.721     8.634
    28   6 C        2.991    -0.025    28.629     8.777
    29   6 C        2.918    -0.035    28.861     8.810
    30   6 C        2.917    -0.032    28.808     8.801
    31   6 C        2.924    -0.036    28.888     8.814
    32   6 C        3.022     0.011    27.749     8.641
    33   6 C        3.855    -0.007    20.662     6.465
    34   6 C        3.756    -0.103    22.523     6.767
    35   6 C        3.756    -0.099    22.447     6.755
    36   6 C        2.918     0.002    27.986     8.675
    37   6 C        2.992    -0.032    28.791     8.802
    38   6 C        2.915    -0.038    28.949     8.823
    39   6 C        2.917    -0.044    29.097     8.846
    40   6 C        2.921    -0.041    29.007     8.832
    41   6 C        3.027     0.005    27.875     8.660
    42   6 C        3.857    -0.008    20.685     6.468
    43   6 C        3.757    -0.096    22.380     6.745
    44   6 C        3.755    -0.097    22.414     6.751
    45   1 H        0.925     0.034     2.526     2.486
    46   1 H        0.925     0.041     2.442     2.444
    47   1 H        0.925     0.039     2.463     2.454
    48   1 H        0.925     0.049     2.328     2.386
    49   1 H        0.925     0.040     2.446     2.446
    50   1 H        0.925     0.033     2.549     2.497
    51   1 H        0.925     0.040     2.451     2.448
    52   1 H        0.926     0.035     2.517     2.481
    53   1 H        0.926     0.029     2.599     2.521
    54   1 H        0.926     0.028     2.610     2.527
    55   1 H        0.925     0.031     2.572     2.508
    56   1 H        0.926     0.040     2.443     2.444
    57   1 H        0.926     0.037     2.484     2.465
    58   1 H        0.926     0.041     2.436     2.441
    59   1 H        0.926     0.041     2.440     2.443
    60   1 H        0.923     0.048     2.349     2.397
    61   1 H        0.925     0.045     2.387     2.416
    62   1 H        0.925     0.043     2.406     2.426
    63   1 H        0.925     0.040     2.455     2.450
    64   1 H        0.925     0.041     2.440     2.443
    65   1 H        0.925     0.034     2.530     2.487
    66   1 H        0.925     0.036     2.505     2.475
    67   1 H        0.925     0.023     2.685     2.562
    68   1 H        0.926     0.011     2.872     2.650
    69   1 H        0.925     0.015     2.816     2.624
    70   1 H        0.925     0.021     2.711     2.575
    71   1 H        0.926     0.038     2.473     2.459
    72   1 H        0.926     0.031     2.567     2.506
    73   1 H        0.926     0.033     2.545     2.495
    74   1 H        0.926     0.039     2.460     2.453
    75   1 H        0.923     0.043     2.415     2.430
    76   1 H        0.925     0.041     2.433     2.439
    77   1 H        0.925     0.039     2.458     2.452
    78   1 H        0.925     0.038     2.469     2.457
    79   1 H        0.925     0.037     2.483     2.464
    80   1 H        0.925     0.039     2.457     2.451
    81   1 H        0.925     0.034     2.535     2.490
    82   1 H        0.925     0.022     2.710     2.574
    83   1 H        0.925     0.021     2.717     2.578
    84   1 H        0.926     0.022     2.707     2.573
    85   1 H        0.926     0.031     2.566     2.505
    86   1 H        0.923     0.048     2.346     2.395
    87   1 H        0.925     0.037     2.486     2.466
    88   1 H        0.925     0.038     2.479     2.462
    89   1 H        0.925     0.039     2.457     2.451
    90   1 H        0.925     0.039     2.466     2.456
    91   1 H        0.925     0.036     2.502     2.474
    92   1 H        0.925     0.030     2.589     2.516

molecular dipole:
                 x           y           z       tot (Debye)
 q only:        0.396      -1.427       1.716
   full:        0.072      -0.998       1.489       4.559

 projected vibrational frequencies (cm⁻¹)
eigval :       -0.00    -0.00    -0.00    -0.00     0.00     0.00
eigval :       12.71    19.98    30.41    31.58    35.33    42.10
eigval :       44.06    49.43    51.30    54.55    58.34    63.45
eigval :       69.48    71.37    86.77    94.15   103.35   112.29
eigval :      114.59   119.75   126.50   128.78   131.22   140.60
eigval :      145.84   154.66   168.10   171.26   186.47   194.31
eigval :      198.64   204.72   209.16   213.25   215.03   229.33
eigval :      235.22   241.74   246.79   251.97   254.07   266.72
eigval :      269.66   280.01   298.17   301.02   313.89   315.16
eigval :      321.47   333.71   343.50   346.49   349.72   364.58
eigval :      381.46   385.19   392.86   397.30   408.33   411.82
eigval :      435.68   446.21   452.17   474.70   480.96   483.71
eigval :      487.98   490.92   515.55   517.27   518.10   523.54
eigval :      557.04   560.09   561.82   563.21   579.73   624.37
eigval :      648.04   656.39   658.47   664.99   668.34   672.45
eigval :      678.06   685.38   717.25   718.47   754.99   759.36
eigval :      762.36   763.13   763.81   767.56   772.78   774.99
eigval :      814.29   861.82   875.50   879.59   882.03   883.16
eigval :      886.32   888.40   908.91   913.86   916.01   917.17
eigval :      918.51   926.07   926.47   935.20   936.52   937.04
eigval :      937.64   939.90   943.00   943.26   944.03   983.00
eigval :      984.38   985.20   985.56   987.04   994.69  1003.79
eigval :     1013.52  1018.70  1036.37  1065.49  1067.55  1069.85
eigval :     1070.83  1071.55  1099.52  1102.01  1102.27  1103.65
eigval :     1105.46  1115.77  1122.95  1124.21  1129.18  1132.82
eigval :     1134.71  1135.63  1138.19  1158.12  1169.04  1170.15
eigval :     1171.23  1174.17  1178.30  1179.28  1181.19  1182.70
eigval :     1200.63  1204.96  1210.66  1213.60  1214.47  1257.87
eigval :     1258.57  1259.43  1260.21  1276.72  1283.88  1285.25
eigval :     1289.43  1296.75  1297.70  1301.84  1306.38  1306.56
eigval :     1330.28  1331.62  1333.20  1334.09  1342.95  1391.31
eigval :     1395.61  1397.12  1398.21  1399.72  1400.12  1406.03
eigval :     1408.60  1413.21  1415.22  1415.98  1416.48  1419.66
eigval :     1428.13  1433.38  1435.32  1439.15  1444.56  1484.99
eigval :     1486.98  1487.67  1487.84  1488.97  1490.81  1491.75
eigval :     1492.71  1493.55  1497.50  1500.92  1501.16  1501.75
eigval :     1503.37  1504.94  1506.27  1508.97  1520.46  1530.45
eigval :     1536.41  1546.61  1549.82  1555.17  1561.16  1570.22
eigval :     2832.25  2853.77  2873.07  2880.16  3015.11  3016.60
eigval :     3022.19  3022.58  3023.02  3024.35  3024.47  3025.06
eigval :     3025.70  3026.16  3027.64  3027.91  3028.47  3029.14
eigval :     3031.14  3033.10  3033.37  3035.35  3035.54  3037.37
eigval :     3037.85  3039.34  3046.35  3049.58  3050.43  3054.39
eigval :     3056.25  3059.93  3061.53  3062.25  3065.81  3067.49
eigval :     3068.84  3072.02  3075.03  3076.27  3077.56  3080.13
eigval :     3083.61  3084.26  3086.34  3089.67  3090.02  3097.15

   temp. (K)  partition function   enthalpy   heat capacity  entropy
                                   cal/mol     cal/K/mol   cal/K/mol   J/K/mol
 298.15  VIB  0.523E+21            27554.764    165.398    173.277
         ROT  0.412E+08              888.752      2.981     37.825
         INT  0.215E+29            28443.517    168.379    211.102
         TR   0.147E+29             1481.254      4.968     45.111
         TOT                       29924.7705   173.3467   256.2132  1071.9960

       T/K    H(0)-H(T)+PV         H(T)/Eh          T*S/Eh         G(T)/Eh
   ------------------------------------------------------------------------
    298.15    0.476882E-01    0.807656E+00    0.121735E+00    0.685921E+00
   ------------------------------------------------------------------------

         :::::::::::::::::::::::::::::::::::::::::::::::::::::
         ::                  THERMODYNAMIC                  ::
         :::::::::::::::::::::::::::::::::::::::::::::::::::::
         :: total free energy        -118.707479888188 Eh   ::
         ::.................................................::
         :: total energy             -119.393400718690 Eh   ::
         :: zero point energy           0.759967829686 Eh   ::
         :: G(RRHO) w/o ZPVE           -0.074046999184 Eh   ::
         :: G(RRHO) contrib.            0.685920830502 Eh   ::
         :::::::::::::::::::::::::::::::::::::::::::::::::::::

           -------------------------------------------------
          | TOTAL ENERGY             -119.393400718690 Eh   |
          | TOTAL ENTHALPY           -118.585744731687 Eh   |
          | TOTAL FREE ENERGY        -118.707479888188 Eh   |
          | GRADIENT NORM               0.000046699656 Eh/α |
          | HOMO-LUMO GAP               0.250269536367 eV   |
           -------------------------------------------------

 * finished run on 2025/09/12 at 22:28:46.952
