   * xtb version 6.7.1 (edcfbbe) compiled by 'albert@albert-system' on 2024-07-22

   ID    Z sym.   atoms
    1    6 C      1-9, 11-25, 27-44
    2   15 P      10, 26
    3    1 H      45-92

          program call               : xtb data2507/toluene/LiPr/LiPr_toluene_S0_crest.xyz --gfn 2 --gbsa toluene --ohess vtight --parallel 40 --molden --ceasefiles --namespace data2507/toluene/LiPr/LiPr_toluene_S0_finalOpt
      * Solvation model:               GBSA
        Solvent                        toluene
        Solvent mass                       9.2140E+01 g/mol
          :  Hamiltonian                  GFN2-xTB          :
 * total energy  :  -119.4945738 Eh     change       -0.3279183E-08 Eh
 * total energy  :  -119.4947136 Eh     change       -0.1398339E-03 Eh
 * total energy  :  -119.4948001 Eh     change       -0.8646077E-04 Eh
 * total energy  :  -119.4948405 Eh     change       -0.4036383E-04 Eh
 * total energy  :  -119.4948854 Eh     change       -0.4492675E-04 Eh
 * total energy  :  -119.4949204 Eh     change       -0.3505035E-04 Eh
 * total energy  :  -119.4949382 Eh     change       -0.1777821E-04 Eh
 * total energy  :  -119.4949620 Eh     change       -0.2378072E-04 Eh
 * total energy  :  -119.4949750 Eh     change       -0.1301897E-04 Eh
 * total energy  :  -119.4949855 Eh     change       -0.1053265E-04 Eh
 * total energy  :  -119.4950239 Eh     change       -0.1850929E-06 Eh
 * total energy  :  -119.4950241 Eh     change       -0.1652358E-06 Eh
 * total energy  :  -119.4950243 Eh     change       -0.1673966E-06 Eh
 * total energy  :  -119.4950244 Eh     change       -0.1614062E-06 Eh
 * total energy  :  -119.4950246 Eh     change       -0.1453545E-06 Eh
 * total energy  :  -119.4950247 Eh     change       -0.1372995E-06 Eh
 * total energy  :  -119.4950248 Eh     change       -0.1299131E-06 Eh
 * total energy  :  -119.4950249 Eh     change       -0.1035687E-06 Eh
 * total energy  :  -119.4950250 Eh     change       -0.8002671E-07 Eh
   *** GEOMETRY OPTIMIZATION CONVERGED AFTER 41 ITERATIONS ***

 final structure:
================
92
 xtb: 6.7.1 (edcfbbe)
C            5.02494742791831       -1.64512457535529        1.66940340102983
C            4.83743887532368       -1.21142294020243        0.21500880307385
C            6.07708361054226       -1.53220886424395       -0.62129197576069
C            4.47828100586249        0.25038470350931        0.12810595875761
C            5.38434264035670        1.21377585161974        0.55301096866032
C            5.08251978770070        2.56206361954350        0.49554842015398
C            3.85093474386893        2.96757789011488        0.01188535313343
C            2.93583031734097        2.02317806238829       -0.41372274254860
C            3.23358053991547        0.66363709562496       -0.36463987267722
P            2.07042624290645       -0.61759095836752       -0.99984546456767
C            1.33241891559585       -1.17094465089072        0.59174796677539
C            1.51678503592980       -0.44303568227883        1.76434679288678
C            1.12849043071099       -0.95995660661079        2.98527788107378
C            0.58923390626122       -2.23241412944057        3.04900347664234
C            0.41840725762460       -2.96820009939223        1.88906730391270
C            0.76980946584021       -2.45369542577859        0.64901252232909
C            0.59951114108876       -3.26809948243603       -0.61102637394621
C            1.84507788255831       -4.12828928954406       -0.84059399945807
C           -0.65046363941550       -4.14634396088855       -0.60227290640130
C            0.87728814182522        0.48204672577602       -1.86963262293446
C            1.44490842400008        0.93496081582638       -3.06617965544596
C            0.75368568036907        1.74800348894789       -3.93791474344566
C           -0.55165799842764        2.10576495401606       -3.63505234337756
C           -1.13545149758721        1.64275379883972       -2.47308408811708
C           -0.44476687430502        0.82449097876311       -1.57655421651487
P           -1.27718883071549        0.26111089472035       -0.02844942036176
C           -2.48044983617149       -0.94680943481436       -0.71877998852535
C           -2.42385312510995       -1.35616397728014       -2.04845428412706
C           -3.30692788373538       -2.29809862486499       -2.54287602018968
C           -4.25641021626383       -2.85437038935675       -1.70457936296339
C           -4.29663529722571       -2.48023434024053       -0.37308710048565
C           -3.41397230387716       -1.54067786803996        0.14421207583884
C           -3.46598370868148       -1.19213605017205        1.61196866807640
C           -3.15383771302038       -2.42211260287067        2.46608366708036
C           -4.81492243335594       -0.59066491722959        2.00911344446660
C           -2.39143356826446        1.71706011708333        0.20908032586572
C           -3.68936206510486        1.74244373506714       -0.29704830353611
C           -4.52039216746760        2.82388367817176       -0.07135911450243
C           -4.06540664919815        3.89283330390110        0.68085515802401
C           -2.77889415449585        3.87521347841898        1.18660494445432
C           -1.92393908914964        2.80419762260013        0.95482241247438
C           -0.52350477106468        2.81927829436848        1.51421723366243
C           -0.55773008823417        2.64609407258355        3.03330603437835
C            0.23409538923434        4.08836385589531        1.12448921138617
H            4.12633992959106       -1.43087493484442        2.24448885742398
H            5.86177820289401       -1.12128463879577        2.12559455330194
H            5.21914271246530       -2.71446947670739        1.71845101482195
H            3.99462133460887       -1.78358585451244       -0.19589094084806
H            6.26931514370776       -2.60297486488678       -0.60815272641176
H            5.92828766323368       -1.21996874880455       -1.65321525790880
H            6.95442080992875       -1.02223562436210       -0.23077895095542
H            6.34595022625839        0.90552717281027        0.93667908107074
H            5.80481638964567        3.29358630551275        0.82884612915210
H            3.60092531847146        4.01804718779325       -0.03534871897594
H            1.97501552416916        2.35009926441594       -0.78412514348879
H            1.96650744346857        0.53877699525210        1.72045682171929
H            1.26428917978622       -0.37814656874921        3.88562263162682
H            0.30472400221606       -2.65544226146078        4.00187152084400
H            0.01438340461687       -3.96730681899473        1.95687802535370
H            0.50627393005561       -2.56024746187331       -1.44744943228526
H            2.72379407977067       -3.49958182170953       -0.96956505413488
H            1.72300191161967       -4.73633930121544       -1.73428225497510
H            2.01248226078298       -4.78522448641822        0.01064875650951
H           -0.53423713470218       -4.98784252134070        0.07665949103657
H           -1.52406643431071       -3.57140320307527       -0.30574237842437
H           -0.82629807323109       -4.54399583411009       -1.59964453345814
H            2.46347282790058        0.64082034887701       -3.29431886780077
H            1.22073050269043        2.09506020270560       -4.84835407503390
H           -1.11575162019605        2.73742255212620       -4.30632956475006
H           -2.15685881416117        1.91933299283545       -2.25337309641520
H           -1.68268007938079       -0.93207676049162       -2.71098005626761
H           -3.25165894407839       -2.59424025255020       -3.58079581019381
H           -4.95730219278746       -3.58458771691480       -2.08295665186254
H           -5.03012945420195       -2.93394074236601        0.27745966200624
H           -2.68667183661021       -0.44256597686374        1.80804127776431
H           -3.90231032214417       -3.19764790837247        2.32125681231300
H           -2.17905521292157       -2.82176140981083        2.19892737194508
H           -3.13939305551130       -2.15010049687914        3.51932988374027
H           -5.61968309023096       -1.30518961250960        1.85245142483004
H           -4.80220630183735       -0.31396818073596        3.06140401068675
H           -5.02446387181736        0.30143901729594        1.42349788604633
H           -4.05397845244215        0.90826563685525       -0.88152324936404
H           -5.52138131458268        2.82802371611890       -0.47987749297206
H           -4.71068317773829        4.73858732581643        0.87065802685514
H           -2.43354167819044        4.71414630340591        1.77272640912111
H            0.01582993178173        1.96144640115616        1.08902789124299
H           -1.11319267659104        3.45623171380483        3.50103930492131
H           -1.03683863311702        1.70392867518871        3.29180843500386
H            0.45361551867548        2.64251745320417        3.43366254952195
H           -0.19438966868103        4.96537783583973        1.60353602970890
H            1.27416407536974        4.00680971615962        1.43259298119611
H            0.20189805385356        4.23616901980038        0.04628838840549

          :  Hamiltonian                  GFN2-xTB          :
         :: gradient norm              0.000035055405 Eh/a0 ::
         :: HOMO-LUMO gap              2.894802414004 eV    ::
         :: SCC energy              -121.577984958833 Eh    ::
         :: -> dispersion             -0.140290728633 Eh    ::
         :: -> Gsolv                  -0.038749012319 Eh    ::
         :: repulsion energy           2.082959939063 Eh    ::

    * Orbital Energies and Occupations

         #    Occupation            Energy/Eh            Energy/eV
      -------------------------------------------------------------
         1        2.0000           -0.6639465             -18.0669
       ...           ...                  ...                  ...
       101        2.0000           -0.4081765             -11.1070
       102        2.0000           -0.4063474             -11.0573
       103        2.0000           -0.4046698             -11.0116
       104        2.0000           -0.4002045             -10.8901
       105        2.0000           -0.3991872             -10.8624
       106        2.0000           -0.3968715             -10.7994
       107        2.0000           -0.3958225             -10.7709
       108        2.0000           -0.3950569             -10.7500
       109        2.0000           -0.3929988             -10.6940
       110        2.0000           -0.3917595             -10.6603
       111        2.0000           -0.3900171             -10.6129
       112        2.0000           -0.3594691              -9.7817
       113        2.0000           -0.3517383              -9.5713 (HOMO)
       114                         -0.2453562              -6.6765 (LUMO)
       115                         -0.2389178              -6.5013
       116                         -0.2362043              -6.4274
       117                         -0.2326825              -6.3316
       118                         -0.2257174              -6.1421
       119                         -0.2247215              -6.1150
       120                         -0.2224451              -6.0530
       121                         -0.2205447              -6.0013
       122                         -0.2199412              -5.9849
       123                         -0.2165699              -5.8932
       124                         -0.1525148              -4.1501
       ...                                ...                  ...
       234                          1.1246001              30.6019
      -------------------------------------------------------------
                  HL-Gap            0.1063821 Eh            2.8948 eV

     #   Z          covCN         q      C6AA      α(0)
     1   6 C        3.755    -0.099    22.439     6.754
     2   6 C        3.859    -0.010    20.719     6.473
     3   6 C        3.755    -0.100    22.470     6.759
     4   6 C        3.044     0.010    27.762     8.642
     5   6 C        2.924    -0.036    28.897     8.816
     6   6 C        2.918    -0.033    28.828     8.805
     7   6 C        2.918    -0.036    28.894     8.815
     8   6 C        2.969    -0.029    28.717     8.790
     9   6 C        2.918     0.018    27.618     8.618
    10  15 P        3.259    -0.199   169.394    23.380
    11   6 C        2.926     0.029    27.360     8.578
    12   6 C        2.976    -0.023    28.578     8.769
    13   6 C        2.918    -0.033    28.816     8.803
    14   6 C        2.918    -0.030    28.741     8.791
    15   6 C        2.924    -0.035    28.883     8.813
    16   6 C        3.047     0.013    27.673     8.628
    17   6 C        3.859    -0.006    20.650     6.463
    18   6 C        3.757    -0.097    22.413     6.750
    19   6 C        3.755    -0.098    22.425     6.752
    20   6 C        2.963     0.026    27.428     8.590
    21   6 C        3.110    -0.027    28.523     8.750
    22   6 C        2.916    -0.031    28.763     8.794
    23   6 C        2.918    -0.033    28.814     8.803
    24   6 C        2.985    -0.028    28.696     8.787
    25   6 C        2.928     0.022    27.508     8.601
    26  15 P        3.157    -0.182   168.562    23.322
    27   6 C        2.918     0.016    27.649     8.623
    28   6 C        2.973    -0.028    28.691     8.786
    29   6 C        2.918    -0.035    28.860     8.809
    30   6 C        2.918    -0.033    28.821     8.804
    31   6 C        2.924    -0.037    28.913     8.818
    32   6 C        3.041     0.010    27.766     8.643
    33   6 C        3.858    -0.009    20.691     6.469
    34   6 C        3.756    -0.101    22.482     6.760
    35   6 C        3.755    -0.099    22.440     6.754
    36   6 C        2.918     0.012    27.752     8.639
    37   6 C        2.968    -0.029    28.725     8.791
    38   6 C        2.918    -0.037    28.916     8.818
    39   6 C        2.918    -0.033    28.820     8.803
    40   6 C        2.924    -0.036    28.901     8.816
    41   6 C        3.041     0.009    27.773     8.644
    42   6 C        3.859    -0.010    20.711     6.472
    43   6 C        3.756    -0.097    22.400     6.748
    44   6 C        3.755    -0.095    22.377     6.745
    45   1 H        0.925     0.032     2.562     2.503
    46   1 H        0.925     0.039     2.464     2.455
    47   1 H        0.925     0.038     2.472     2.459
    48   1 H        0.926     0.051     2.308     2.376
    49   1 H        0.925     0.039     2.457     2.451
    50   1 H        0.925     0.033     2.540     2.492
    51   1 H        0.925     0.039     2.460     2.453
    52   1 H        0.926     0.034     2.535     2.490
    53   1 H        0.926     0.028     2.614     2.528
    54   1 H        0.926     0.026     2.637     2.540
    55   1 H        0.926     0.030     2.585     2.514
    56   1 H        0.926     0.033     2.544     2.494
    57   1 H        0.926     0.030     2.592     2.518
    58   1 H        0.926     0.031     2.577     2.510
    59   1 H        0.926     0.035     2.523     2.484
    60   1 H        0.923     0.043     2.411     2.428
    61   1 H        0.925     0.042     2.419     2.432
    62   1 H        0.925     0.040     2.450     2.448
    63   1 H        0.925     0.038     2.481     2.463
    64   1 H        0.925     0.039     2.466     2.456
    65   1 H        0.925     0.032     2.560     2.502
    66   1 H        0.925     0.032     2.560     2.502
    67   1 H        0.925     0.037     2.484     2.465
    68   1 H        0.926     0.031     2.568     2.506
    69   1 H        0.926     0.029     2.597     2.520
    70   1 H        0.926     0.036     2.503     2.474
    71   1 H        0.926     0.026     2.644     2.543
    72   1 H        0.926     0.026     2.643     2.542
    73   1 H        0.926     0.028     2.608     2.526
    74   1 H        0.926     0.033     2.547     2.496
    75   1 H        0.925     0.046     2.374     2.409
    76   1 H        0.925     0.039     2.469     2.457
    77   1 H        0.925     0.038     2.469     2.457
    78   1 H        0.925     0.037     2.493     2.469
    79   1 H        0.925     0.039     2.466     2.456
    80   1 H        0.925     0.036     2.506     2.475
    81   1 H        0.925     0.031     2.572     2.508
    82   1 H        0.925     0.028     2.609     2.526
    83   1 H        0.926     0.025     2.659     2.550
    84   1 H        0.926     0.028     2.608     2.526
    85   1 H        0.926     0.034     2.530     2.488
    86   1 H        0.925     0.053     2.285     2.364
    87   1 H        0.925     0.038     2.481     2.463
    88   1 H        0.925     0.035     2.517     2.481
    89   1 H        0.925     0.039     2.464     2.455
    90   1 H        0.925     0.038     2.474     2.460
    91   1 H        0.925     0.038     2.475     2.460
    92   1 H        0.925     0.026     2.639     2.540

molecular dipole:
                 x           y           z       tot (Debye)
 q only:        0.239      -0.341       0.643
   full:       -0.136       0.108       0.430       1.178

 projected vibrational frequencies (cm⁻¹)
eigval :       -0.00    -0.00    -0.00    -0.00     0.00     0.00
eigval :        9.04    17.66    23.71    32.91    35.97    40.52
eigval :       42.75    44.56    50.16    53.69    57.37    57.50
eigval :       65.19    76.02    82.74    86.98    94.90   110.33
eigval :      115.94   121.05   125.88   126.93   129.58   150.77
eigval :      159.03   161.72   182.42   184.25   192.03   194.99
eigval :      201.55   203.60   207.99   210.14   216.64   223.93
eigval :      228.00   241.85   243.79   250.75   254.46   257.22
eigval :      273.25   285.28   301.87   315.55   318.12   318.41
eigval :      325.48   333.65   340.81   344.04   376.87   390.86
eigval :      398.79   405.74   410.40   432.87   440.89   457.43
eigval :      460.14   467.95   474.58   483.77   490.66   494.70
eigval :      501.42   510.74   522.16   522.98   525.35   527.22
eigval :      562.72   563.15   563.33   563.74   628.24   662.40
eigval :      663.36   665.67   672.37   676.63   691.47   693.33
eigval :      693.74   695.88   717.17   762.51   763.28   765.79
eigval :      766.41   766.88   772.57   775.70   776.23   778.62
eigval :      876.63   878.50   882.86   885.34   885.85   914.28
eigval :      915.08   916.21   917.21   917.88   925.99   927.40
eigval :      927.72   928.13   932.78   935.37   937.35   937.75
eigval :      940.21   940.52   942.58   944.62   945.29   984.20
eigval :      985.59   986.19   988.15   997.31  1021.77  1022.81
eigval :     1023.38  1024.98  1069.25  1070.41  1071.38  1073.18
eigval :     1093.46  1107.62  1108.15  1109.53  1110.66  1121.77
eigval :     1130.82  1134.65  1134.80  1136.03  1140.45  1141.24
eigval :     1142.32  1143.33  1149.78  1172.42  1174.82  1175.71
eigval :     1176.25  1179.75  1182.64  1183.19  1183.78  1184.47
eigval :     1221.08  1221.71  1223.01  1223.44  1240.57  1261.59
eigval :     1262.73  1263.69  1264.71  1287.08  1287.24  1291.12
eigval :     1291.74  1296.62  1297.40  1299.17  1303.95  1304.57
eigval :     1330.29  1332.64  1334.05  1337.40  1389.48  1396.77
eigval :     1399.62  1400.05  1401.06  1412.10  1414.03  1414.70
eigval :     1415.11  1422.25  1423.00  1423.92  1424.30  1432.61
eigval :     1450.14  1450.38  1452.00  1453.62  1486.43  1488.33
eigval :     1488.62  1488.85  1489.08  1492.24  1493.17  1494.33
eigval :     1498.30  1498.47  1501.18  1501.78  1502.39  1504.93
eigval :     1506.17  1508.14  1549.65  1567.73  1568.56  1568.74
eigval :     1569.55  1573.78  1584.41  1585.04  1585.43  1586.14
eigval :     2872.69  2882.83  2885.83  2888.21  3018.73  3021.94
eigval :     3023.34  3023.73  3023.87  3024.18  3025.43  3025.76
eigval :     3026.40  3026.92  3027.16  3028.00  3028.60  3029.64
eigval :     3030.28  3030.59  3033.58  3034.58  3035.07  3036.16
eigval :     3037.91  3038.57  3040.51  3048.53  3050.62  3058.06
eigval :     3063.72  3064.18  3064.98  3065.61  3066.78  3069.75
eigval :     3069.93  3070.83  3073.44  3076.02  3076.66  3079.56
eigval :     3080.07  3083.69  3083.99  3085.19  3085.63  3088.27

   temp. (K)  partition function   enthalpy   heat capacity  entropy
                                   cal/mol     cal/K/mol   cal/K/mol   J/K/mol
 298.15  VIB  0.866E+21            27183.476    162.563    171.678
         ROT  0.423E+08              888.752      2.981     37.877
         INT  0.366E+29            28072.229    165.544    209.555
         TR   0.147E+29             1481.254      4.968     45.111
         TOT                       29553.4826   170.5124   254.6659  1065.5221

       T/K    H(0)-H(T)+PV         H(T)/Eh          T*S/Eh         G(T)/Eh
   ------------------------------------------------------------------------
    298.15    0.470965E-01    0.812082E+00    0.121000E+00    0.691082E+00
   ------------------------------------------------------------------------

         :::::::::::::::::::::::::::::::::::::::::::::::::::::
         ::                  THERMODYNAMIC                  ::
         :::::::::::::::::::::::::::::::::::::::::::::::::::::
         :: total free energy        -118.803942895768 Eh   ::
         ::.................................................::
         :: total energy             -119.495025019890 Eh   ::
         :: zero point energy           0.764985630238 Eh   ::
         :: G(RRHO) w/o ZPVE           -0.073903506115 Eh   ::
         :: G(RRHO) contrib.            0.691082124122 Eh   ::
         :::::::::::::::::::::::::::::::::::::::::::::::::::::

           -------------------------------------------------
          | TOTAL ENERGY             -119.495025019890 Eh   |
          | TOTAL ENTHALPY           -118.682942917289 Eh   |
          | TOTAL FREE ENERGY        -118.803942895768 Eh   |
          | GRADIENT NORM               0.000035045121 Eh/α |
          | HOMO-LUMO GAP               2.894803632642 eV   |
           -------------------------------------------------

 * finished run on 2025/09/12 at 22:28:31.854
