   * xtb version 6.7.1 (edcfbbe) compiled by 'albert@albert-system' on 2024-07-22

   ID    Z sym.   atoms
    1    6 C      1-9, 11-25, 27-44
    2   15 P      10, 26
    3    1 H      45-92

          program call               : xtb data2507/toluene/LiPr/LiPr_toluene_T1_crest.xyz --gfn 2 --uhf 2 --gbsa toluene --ohess vtight --parallel 40 --molden --ceasefiles --namespace data2507/toluene/LiPr/LiPr_toluene_T1_finalOpt
      * Solvation model:               GBSA
        Solvent                        toluene
        Solvent mass                       9.2140E+01 g/mol
          :  Hamiltonian                  GFN2-xTB          :
 * total energy  :  -119.3928062 Eh     change       -0.1703768E-08 Eh
 * total energy  :  -119.3929984 Eh     change       -0.1921145E-03 Eh
 * total energy  :  -119.3931161 Eh     change       -0.1177624E-03 Eh
 * total energy  :  -119.3931672 Eh     change       -0.5103615E-04 Eh
 * total energy  :  -119.3932296 Eh     change       -0.6239534E-04 Eh
 * total energy  :  -119.3932752 Eh     change       -0.4562920E-04 Eh
 * total energy  :  -119.3933141 Eh     change       -0.3887549E-04 Eh
 * total energy  :  -119.3933376 Eh     change       -0.2352563E-04 Eh
 * total energy  :  -119.3933569 Eh     change       -0.1931986E-04 Eh
 * total energy  :  -119.3933646 Eh     change       -0.7656981E-05 Eh
 * total energy  :  -119.3933951 Eh     change       -0.2303029E-06 Eh
 * total energy  :  -119.3933953 Eh     change       -0.2174826E-06 Eh
 * total energy  :  -119.3933955 Eh     change       -0.1923112E-06 Eh
 * total energy  :  -119.3933957 Eh     change       -0.1670291E-06 Eh
 * total energy  :  -119.3933958 Eh     change       -0.1568589E-06 Eh
 * total energy  :  -119.3933960 Eh     change       -0.1606951E-06 Eh
 * total energy  :  -119.3933961 Eh     change       -0.1578072E-06 Eh
 * total energy  :  -119.3933963 Eh     change       -0.1287091E-06 Eh
 * total energy  :  -119.3933963 Eh     change       -0.8052626E-07 Eh
   *** GEOMETRY OPTIMIZATION CONVERGED AFTER 43 ITERATIONS ***

 final structure:
================
92
 xtb: 6.7.1 (edcfbbe)
C            4.74233001082345       -1.68893794635327        2.11406713144322
C            4.63765089277743       -1.38914655335294        0.61872839287773
C            5.89555122739257       -1.84801173702111       -0.12202936258343
C            4.37110921784725        0.07250096842359        0.35810873671122
C            5.28358725812871        1.03478144073435        0.76820131256565
C            5.07752363006535        2.37872263079869        0.51050320141894
C            3.94101045895520        2.78196076816912       -0.17201566127939
C            3.01923725739475        1.84026181692520       -0.58528667140798
C            3.20877035599647        0.48736168742132       -0.30945730583096
P            2.08024215727433       -0.77665138038465       -1.02642771323672
C            1.12768222284864       -1.33890961512421        0.41679888384103
C            1.27814513318102       -0.71563199696573        1.66006893963792
C            0.69150646794027       -1.24558311976299        2.78983074184240
C           -0.03867830951503       -2.42034059558022        2.69419694719835
C           -0.19036022269068       -3.04783040217680        1.46925189895802
C            0.39203632026626       -2.53633938887411        0.31883540775973
C            0.35916495878165       -3.28990933787359       -0.98636886520973
C            1.60807331045607       -4.17351697501295       -1.08766736314353
C           -0.89269163008677       -4.14411123545163       -1.17537087154673
C            0.94540014097312        0.17838639935387       -2.05618557955938
C            1.48232388618068        0.51425256886310       -3.29928709098657
C            0.77460688379900        1.24047643890300       -4.22987178977270
C           -0.54225559679700        1.63380010865055       -3.91512382224280
C           -1.10076985584958        1.29256742952017       -2.71831313007175
C           -0.41950774400940        0.48976486947561       -1.76225515611278
P           -1.20846754211863        0.32151616398865       -0.16343629777647
C           -2.64531957779475       -0.78803135976874       -0.45791938761037
C           -2.84182887646005       -1.31464523265246       -1.73441715265866
C           -3.93281389067275       -2.11406949742211       -2.01128019950480
C           -4.82359504620785       -2.43233562998798       -0.99714895043516
C           -4.60020131416852       -1.96236127253635        0.28475613601562
C           -3.51088556849655       -1.15376399685964        0.58461189623162
C           -3.28242472343115       -0.68802246152810        1.99968785127214
C           -3.35760008344705       -1.85089681244915        2.99226760922089
C           -4.28721879568513        0.39371421831265        2.40264263773141
C           -2.04756053249649        1.90349463897030        0.17986932164043
C           -3.31502410661229        2.13317881144297       -0.38751124567128
C           -3.88367036777539        3.38680944887923       -0.35577342701865
C           -3.21139677719819        4.44014231209717        0.24911517605773
C           -1.96219780721594        4.22038542438813        0.81768744637720
C           -1.36336686735860        2.97487579959395        0.78818623626372
C           -0.03739794830811        2.71665450745437        1.45140036324129
C           -0.26172551567813        2.30739764524688        2.90895114033786
C            0.92605709373431        3.89786139191012        1.37221882340568
H            3.83338171319695       -1.38204743815988        2.62642599879683
H            5.58513252489220       -1.16420542097418        2.55761871567936
H            4.88164373869923       -2.75653517245420        2.27044394658879
H            3.78583624666679       -1.95852782976097        0.22135310716283
H            6.03859922776935       -2.91842951172671        0.00993944984348
H            5.80435334844601       -1.63934905161626       -1.18645724497180
H            6.77705651152552       -1.33427180966682        0.25396106205872
H            6.17885475028191        0.73023989592869        1.29045611004355
H            5.80546898586997        3.10924021726285        0.83305455571288
H            3.77520290562811        3.82808714527986       -0.38573604277139
H            2.13527400071355        2.15426244097364       -1.12329682519265
H            1.87089154783605        0.18531648433583        1.73045788244878
H            0.81836305407367       -0.75902679415102        3.74570735888233
H           -0.47232736699451       -2.85779419750233        3.58106358654960
H           -0.74826365364310       -3.97015917362135        1.41789418754641
H            0.39862098131371       -2.54796388919217       -1.79701618708979
H            2.51154979397396       -3.56659528720319       -1.06207565157157
H            1.59611431306482       -4.73103513898067       -2.02138716233696
H            1.64001457730149       -4.87800050100246       -0.25878982258339
H           -0.86119522385288       -5.02803551669436       -0.54234097839383
H           -1.78916299533638       -3.57484910079317       -0.94445017846347
H           -0.95479363429714       -4.47724980614417       -2.20920968992348
H            2.50239742032358        0.21260503742995       -3.51168504068874
H            1.21630125273468        1.51406247913856       -5.17572262290345
H           -1.11921286052859        2.19883485371632       -4.63431296276440
H           -2.11365468045693        1.60137136071411       -2.49414621140986
H           -2.14084303665092       -1.07145714573465       -2.52060596269676
H           -4.08601850499817       -2.48809281599538       -3.01327981801762
H           -5.68086006569029       -3.05675760233612       -1.20262546283301
H           -5.28984255438530       -2.23381688036401        1.06982375292015
H           -2.26740442605847       -0.26353586127820        2.03752605774550
H           -4.38633756896681       -2.17263449803817        3.13520059719803
H           -2.77577385591631       -2.69530337347584        2.63460972662106
H           -2.96637518105888       -1.53794445215425        3.95761048587412
H           -5.30419682132552        0.01538645662665        2.32077069312136
H           -4.11348965498731        0.69710662006993        3.43297272619091
H           -4.19413291415261        1.26940883836669        1.76558312601360
H           -3.85194916384334        1.31365627284320       -0.84695855578371
H           -4.85785184653403        3.54421347351702       -0.79835784142336
H           -3.65729903090268        5.42309014471451        0.28465831096716
H           -1.45801663671478        5.04508287093293        1.29823918592751
H            0.41542952106699        1.86252519016901        0.92112659352543
H           -0.77440786309736        3.10241036070739        3.44720483972577
H           -0.86966391011376        1.40700871385729        2.95911192772216
H            0.69089150003259        2.11417476470253        3.39714494070177
H            0.61022907698781        4.70597207872587        2.02808547609153
H            1.92067986018819        3.58337870231068        1.68136948728134
H            0.98530606897663        4.27699399091343        0.35410360029109

          :  Hamiltonian                  GFN2-xTB          :
         :: gradient norm              0.000036729823 Eh/a0 ::
         :: HOMO-LUMO gap              0.259049124125 eV    ::
         :: SCC energy              -121.467926328733 Eh    ::
         :: -> dispersion             -0.141922101933 Eh    ::
         :: -> Gsolv                  -0.039529823148 Eh    ::
         :: repulsion energy           2.074529975220 Eh    ::

    * Orbital Energies and Occupations

         #    Occupation            Energy/Eh            Energy/eV
      -------------------------------------------------------------
         1        2.0000           -0.6673124             -18.1585
       ...           ...                  ...                  ...
       102        2.0000           -0.4068238             -11.0702
       103        2.0000           -0.4035788             -10.9819
       104        2.0000           -0.4019587             -10.9379
       105        2.0000           -0.3994039             -10.8683
       106        2.0000           -0.3977514             -10.8234
       107        2.0000           -0.3957007             -10.7676
       108        2.0000           -0.3950212             -10.7491
       109        2.0000           -0.3937128             -10.7135
       110        2.0000           -0.3910614             -10.6413
       111        2.0000           -0.3861318             -10.5072
       112        1.9984           -0.3582186              -9.7476
       113        1.0016           -0.3460139              -9.4155
       114        0.9934           -0.2523019              -6.8655 (HOMO)
       115        0.0066           -0.2427824              -6.6064 (LUMO)
       116        0.0000           -0.2364432              -6.4339
       117        0.0000           -0.2327353              -6.3331
       118                         -0.2255252              -6.1369
       119                         -0.2239246              -6.0933
       120                         -0.2224534              -6.0533
       121                         -0.2215906              -6.0298
       122                         -0.2176476              -5.9225
       123                         -0.2156019              -5.8668
       124                         -0.1452742              -3.9531
       125                         -0.1434373              -3.9031
       ...                                ...                  ...
       234                          1.1368350              30.9349
      -------------------------------------------------------------
                  HL-Gap            0.0095196 Eh            0.2590 eV

     #   Z          covCN         q      C6AA      α(0)
     1   6 C        3.755    -0.101    22.479     6.760
     2   6 C        3.857    -0.010    20.713     6.473
     3   6 C        3.756    -0.100    22.466     6.758
     4   6 C        3.036     0.010    27.770     8.643
     5   6 C        2.923    -0.036    28.892     8.815
     6   6 C        2.918    -0.034    28.844     8.807
     7   6 C        2.918    -0.035    28.861     8.810
     8   6 C        2.980    -0.026    28.640     8.778
     9   6 C        2.919     0.012    27.753     8.639
    10  15 P        3.270    -0.160   167.552    23.252
    11   6 C        2.942     0.029    27.345     8.576
    12   6 C        2.985    -0.018    28.449     8.749
    13   6 C        2.916    -0.032    28.791     8.799
    14   6 C        2.919    -0.024    28.609     8.771
    15   6 C        2.921    -0.033    28.831     8.805
    16   6 C        3.048     0.017    27.578     8.613
    17   6 C        3.860    -0.007    20.666     6.465
    18   6 C        3.758    -0.098    22.428     6.752
    19   6 C        3.755    -0.102    22.494     6.763
    20   6 C        2.949     0.006    27.887     8.661
    21   6 C        3.078    -0.028    28.604     8.768
    22   6 C        2.913    -0.059    29.478     8.903
    23   6 C        2.913    -0.042    29.049     8.838
    24   6 C        3.028    -0.031    28.755     8.796
    25   6 C        2.935    -0.007    28.200     8.709
    26  15 P        3.232    -0.120   165.670    23.121
    27   6 C        2.919     0.013    27.720     8.634
    28   6 C        2.991    -0.026    28.631     8.777
    29   6 C        2.918    -0.035    28.863     8.810
    30   6 C        2.917    -0.032    28.804     8.801
    31   6 C        2.924    -0.036    28.886     8.814
    32   6 C        3.022     0.011    27.745     8.640
    33   6 C        3.855    -0.007    20.663     6.465
    34   6 C        3.756    -0.103    22.523     6.767
    35   6 C        3.756    -0.099    22.448     6.755
    36   6 C        2.918     0.002    27.989     8.675
    37   6 C        2.993    -0.032    28.790     8.802
    38   6 C        2.915    -0.038    28.950     8.823
    39   6 C        2.917    -0.044    29.100     8.846
    40   6 C        2.921    -0.041    29.011     8.833
    41   6 C        3.027     0.005    27.879     8.661
    42   6 C        3.857    -0.008    20.682     6.468
    43   6 C        3.757    -0.096    22.379     6.745
    44   6 C        3.755    -0.098    22.419     6.751
    45   1 H        0.925     0.034     2.524     2.485
    46   1 H        0.925     0.040     2.442     2.444
    47   1 H        0.925     0.039     2.465     2.455
    48   1 H        0.925     0.049     2.330     2.387
    49   1 H        0.925     0.040     2.447     2.446
    50   1 H        0.925     0.033     2.549     2.497
    51   1 H        0.925     0.040     2.452     2.449
    52   1 H        0.926     0.035     2.518     2.481
    53   1 H        0.926     0.029     2.600     2.522
    54   1 H        0.926     0.028     2.611     2.527
    55   1 H        0.925     0.031     2.577     2.510
    56   1 H        0.926     0.041     2.436     2.441
    57   1 H        0.926     0.037     2.483     2.464
    58   1 H        0.926     0.041     2.435     2.440
    59   1 H        0.926     0.041     2.441     2.443
    60   1 H        0.923     0.048     2.347     2.396
    61   1 H        0.925     0.045     2.388     2.417
    62   1 H        0.925     0.043     2.407     2.426
    63   1 H        0.925     0.039     2.456     2.451
    64   1 H        0.925     0.041     2.441     2.443
    65   1 H        0.925     0.034     2.529     2.487
    66   1 H        0.925     0.036     2.504     2.474
    67   1 H        0.925     0.023     2.684     2.562
    68   1 H        0.926     0.011     2.873     2.650
    69   1 H        0.925     0.015     2.816     2.624
    70   1 H        0.925     0.021     2.711     2.575
    71   1 H        0.926     0.039     2.468     2.457
    72   1 H        0.926     0.032     2.564     2.504
    73   1 H        0.926     0.033     2.543     2.494
    74   1 H        0.926     0.039     2.457     2.451
    75   1 H        0.923     0.043     2.415     2.430
    76   1 H        0.925     0.041     2.432     2.439
    77   1 H        0.925     0.039     2.459     2.452
    78   1 H        0.925     0.039     2.467     2.456
    79   1 H        0.925     0.037     2.484     2.465
    80   1 H        0.925     0.040     2.455     2.450
    81   1 H        0.925     0.034     2.534     2.489
    82   1 H        0.925     0.021     2.713     2.576
    83   1 H        0.925     0.021     2.718     2.578
    84   1 H        0.926     0.022     2.709     2.574
    85   1 H        0.926     0.032     2.564     2.504
    86   1 H        0.923     0.048     2.351     2.398
    87   1 H        0.925     0.037     2.488     2.467
    88   1 H        0.925     0.038     2.472     2.459
    89   1 H        0.925     0.039     2.459     2.452
    90   1 H        0.925     0.039     2.466     2.456
    91   1 H        0.925     0.036     2.504     2.474
    92   1 H        0.925     0.030     2.586     2.515

molecular dipole:
                 x           y           z       tot (Debye)
 q only:        0.272      -1.421       1.753
   full:       -0.014      -0.969       1.522       4.585

 projected vibrational frequencies (cm⁻¹)
eigval :       -0.00    -0.00    -0.00     0.00     0.00     0.00
eigval :       14.32    18.50    29.84    30.81    35.12    41.16
eigval :       46.80    49.45    51.61    53.68    57.86    64.25
eigval :       69.78    72.88    85.35    93.24   103.43   111.82
eigval :      114.53   120.53   125.96   128.72   130.85   140.40
eigval :      145.72   155.87   169.89   176.85   186.83   196.94
eigval :      202.28   204.17   210.47   210.83   217.06   228.93
eigval :      238.88   241.33   251.32   252.22   255.49   268.81
eigval :      271.10   280.55   297.40   300.07   313.92   315.15
eigval :      320.62   333.62   343.40   346.65   349.85   364.87
eigval :      382.33   385.33   393.64   397.78   408.06   412.48
eigval :      435.30   446.07   451.98   474.69   480.54   483.41
eigval :      488.00   491.66   514.39   517.99   518.63   522.76
eigval :      557.06   559.71   561.79   563.39   579.59   624.83
eigval :      647.88   656.25   658.21   664.61   669.17   672.00
eigval :      677.78   686.10   718.65   723.33   754.42   759.94
eigval :      762.13   763.43   763.80   770.19   775.30   776.29
eigval :      819.23   861.15   877.31   881.59   882.13   888.17
eigval :      891.18   891.42   910.50   914.90   915.70   917.84
eigval :      921.08   927.79   928.60   934.81   936.58   937.10
eigval :      938.22   940.01   942.21   943.45   944.79   983.20
eigval :      984.35   984.57   985.24   987.11   994.39  1004.44
eigval :     1013.41  1019.52  1036.73  1066.81  1067.80  1069.57
eigval :     1071.00  1072.02  1100.14  1102.32  1102.58  1104.03
eigval :     1105.68  1116.72  1123.67  1124.29  1129.59  1132.47
eigval :     1134.36  1135.90  1138.71  1159.57  1169.91  1170.29
eigval :     1171.56  1173.23  1178.09  1179.38  1181.48  1183.10
eigval :     1201.56  1205.67  1211.47  1213.77  1214.78  1258.39
eigval :     1259.12  1259.84  1260.35  1277.45  1284.09  1285.73
eigval :     1288.63  1296.90  1297.41  1302.74  1306.48  1307.27
eigval :     1329.99  1331.36  1333.66  1334.63  1343.76  1391.07
eigval :     1395.32  1397.18  1398.29  1399.18  1399.90  1406.76
eigval :     1409.12  1412.60  1415.41  1416.14  1416.71  1419.08
eigval :     1428.37  1433.94  1435.87  1439.49  1444.30  1484.55
eigval :     1487.71  1488.20  1488.35  1489.03  1490.90  1491.72
eigval :     1492.65  1493.96  1497.56  1501.12  1501.45  1501.65
eigval :     1503.79  1505.08  1507.34  1509.20  1521.72  1531.55
eigval :     1537.17  1548.64  1550.05  1555.86  1561.28  1570.19
eigval :     2830.92  2855.67  2872.97  2881.25  3012.50  3017.46
eigval :     3022.33  3022.94  3023.27  3023.68  3024.32  3025.31
eigval :     3026.20  3026.74  3027.63  3028.58  3028.75  3029.68
eigval :     3030.60  3033.00  3034.68  3034.96  3035.46  3037.75
eigval :     3038.39  3039.83  3047.14  3049.51  3050.15  3052.56
eigval :     3055.86  3059.97  3061.02  3061.23  3065.54  3067.49
eigval :     3069.17  3071.88  3074.68  3076.42  3077.60  3079.95
eigval :     3083.78  3084.40  3086.44  3089.71  3091.06  3097.44

   temp. (K)  partition function   enthalpy   heat capacity  entropy
                                   cal/mol     cal/K/mol   cal/K/mol   J/K/mol
 298.15  VIB  0.472E+21            27521.778    165.290    172.986
         ROT  0.411E+08              888.752      2.981     37.821
         INT  0.194E+29            28410.530    168.271    210.808
         TR   0.147E+29             1481.254      4.968     45.111
         TOT                       29891.7840   173.2387   255.9188  1070.7642

       T/K    H(0)-H(T)+PV         H(T)/Eh          T*S/Eh         G(T)/Eh
   ------------------------------------------------------------------------
    298.15    0.476356E-01    0.807833E+00    0.121595E+00    0.686238E+00
   ------------------------------------------------------------------------

         :::::::::::::::::::::::::::::::::::::::::::::::::::::
         ::                  THERMODYNAMIC                  ::
         :::::::::::::::::::::::::::::::::::::::::::::::::::::
         :: total free energy        -118.707158373077 Eh   ::
         ::.................................................::
         :: total energy             -119.393396350560 Eh   ::
         :: zero point energy           0.760197659554 Eh   ::
         :: G(RRHO) w/o ZPVE           -0.073959682071 Eh   ::
         :: G(RRHO) contrib.            0.686237977483 Eh   ::
         :::::::::::::::::::::::::::::::::::::::::::::::::::::

           -------------------------------------------------
          | TOTAL ENERGY             -119.393396350560 Eh   |
          | TOTAL ENTHALPY           -118.585563101078 Eh   |
          | TOTAL FREE ENERGY        -118.707158373077 Eh   |
          | GRADIENT NORM               0.000036919893 Eh/α |
          | HOMO-LUMO GAP               0.259041365477 eV   |
           -------------------------------------------------

 * finished run on 2025/09/12 at 22:43:15.864
