   * xtb version 6.7.1 (edcfbbe) compiled by 'albert@albert-system' on 2024-07-22

   ID    Z sym.   atoms
    1    7 N      1, 7, 29, 35
    2    6 C      2-6, 8-28, 30-34, 36-38, 42-46, 50
    3    9 F      39-41, 47-49
    4    1 H      51-70

          program call               : xtb data2507/toluene/pCNBCzoCF3/pCNBCzoCF3_toluene_S0_finalOpt.xtbopt.xyz --gfn 2 --uhf 2 --gbsa toluene --ohess vtight --parallel 40 --molden --ceasefiles --namespace data2507/toluene/pCNBCzoCF3/pCNBCzoCF3_toluene_T1_preOpt
      * Solvation model:               GBSA
        Solvent                        toluene
        Solvent mass                       9.2140E+01 g/mol
          :  Hamiltonian                  GFN2-xTB          :
 * total energy  :  -135.9321973 Eh     change       -0.2270326E-09 Eh
 * total energy  :  -135.9357401 Eh     change       -0.3542827E-02 Eh
 * total energy  :  -135.9366928 Eh     change       -0.9526689E-03 Eh
 * total energy  :  -135.9366386 Eh     change        0.5417962E-04 Eh
 * total energy  :  -135.9369288 Eh     change       -0.2902591E-03 Eh
 * total energy  :  -135.9369905 Eh     change       -0.6165560E-04 Eh
 * total energy  :  -135.9370321 Eh     change       -0.4162452E-04 Eh
 * total energy  :  -135.9371303 Eh     change       -0.9817996E-04 Eh
 * total energy  :  -135.9371804 Eh     change       -0.5013883E-04 Eh
 * total energy  :  -135.9372323 Eh     change       -0.5182225E-04 Eh
 * total energy  :  -135.9376999 Eh     change       -0.1161656E-05 Eh
 * total energy  :  -135.9377010 Eh     change       -0.1156174E-05 Eh
 * total energy  :  -135.9377022 Eh     change       -0.1197967E-05 Eh
 * total energy  :  -135.9377035 Eh     change       -0.1229960E-05 Eh
 * total energy  :  -135.9377048 Eh     change       -0.1307509E-05 Eh
 * total energy  :  -135.9377062 Eh     change       -0.1392319E-05 Eh
 * total energy  :  -135.9377077 Eh     change       -0.1518774E-05 Eh
 * total energy  :  -135.9377092 Eh     change       -0.1539315E-05 Eh
 * total energy  :  -135.9377092 Eh     change       -0.4146926E-08 Eh
   *** GEOMETRY OPTIMIZATION CONVERGED AFTER 68 ITERATIONS ***

 final structure:
================
70
 xtb: 6.7.1 (edcfbbe)
N          -10.32483211022085        2.54164030514518        1.72381925857907
C           -9.37877175228276        1.93205014096320        1.46325612623367
C           -8.23476363352480        1.19218780725888        1.15651778598882
C           -7.86503591085920        0.06998920277274        1.94120795740562
C           -6.73386800923879       -0.63639801601872        1.63616088287425
C           -5.91367831012358       -0.27317638430617        0.55540650267255
N           -4.74674427584801       -1.01415592021379        0.31049898783897
C           -4.72761783400275       -2.35439609849508       -0.04592376323117
C           -5.79109292416444       -3.21835595258013       -0.25211480707315
C           -5.49376188164488       -4.52076451903501       -0.62245800207579
C           -4.17928978818517       -4.94383803675887       -0.78607661936816
C           -3.11409336005107       -4.07612789347514       -0.58986280834904
C           -3.38845101747309       -2.77019729558963       -0.21953132392626
C           -2.56677794582244       -1.61771102016364        0.06150711893020
C           -1.20876898094735       -1.40322093011563        0.07730394884255
C           -0.71499625073529       -0.12652844479287        0.40307507977425
C            0.71001733268197        0.13027602182267        0.40257712989475
C            1.62265898298047       -0.89493298959653        0.74738643758947
C            2.97938654844053       -0.69241240804990        0.76263376767522
C            3.46032216964643        0.56375880972644        0.38560281513453
C            2.56227399306548        1.61881572256145        0.05221936912068
C            1.20417375256723        1.40487843687270        0.06930982056044
C            3.38444938158523        2.76911921351615       -0.23626554708851
C            3.11068222762086        4.07269085910760       -0.61527189989182
C            4.17626987381295        4.93857900313406       -0.81732918060699
C            5.49056370533569        4.51599195161970       -0.65104840736728
C            5.78732182395847        3.21592319050817       -0.27213529616593
C            4.72345813795000        2.35386862925559       -0.06008561011183
N            4.74201967334653        1.01593345545889        0.30487436390713
C            5.90841673249588        0.27565085486220        0.55427641033480
C            6.72898756634095        0.64482042181478        1.63271657673939
C            7.85918335720782       -0.06105098260296        1.94245263175894
C            8.22752739802540       -1.18882781971665        1.16511239658996
C            9.37031609116677       -1.92837326327124        1.47691866214743
N           10.31528641736038       -2.53793745954697        1.74169653193520
C            7.43323337642501       -1.54349143076706        0.06261046396050
C            6.29898320591143       -0.82461524650683       -0.24912166000444
C            5.53442611666884       -1.22571339492255       -1.47310360670617
F            6.33072054534025       -1.74395300326822       -2.42739916406882
F            4.60316973783411       -2.18130896975585       -1.23454291681600
F            4.86958772020750       -0.21798405580283       -2.06621646434049
C           -1.62799315473334        0.90052903170237        0.74133853613598
C           -2.98468643696795        0.69772706456987        0.75749000895236
C           -3.46522898874936       -0.56092817449856        0.38829134750713
C           -6.30549042216292        0.82145983889406       -0.25501784144553
C           -5.54116779095975        1.21580566506847       -1.48134172637929
F           -6.33777334170352        1.72743964376640       -2.43892912599794
F           -4.61087160856998        2.17373668679639       -1.24844497313946
F           -4.87527966658011        0.20510436228031       -2.06817649335464
C           -7.44072945363892        1.54085962157597        0.05193649664459
H           -8.48337197701992       -0.21089464270250        2.77943255645923
H           -6.43898561462051       -1.48141327089925        2.23968424268860
H           -6.81162474062717       -2.88947649662528       -0.13086223228749
H           -6.30067617668464       -5.21767446012249       -0.78967089246887
H           -3.98604169126984       -5.96520291734504       -1.07674948484890
H           -2.09739923264332       -4.40906622570404       -0.72773987613688
H           -0.53224028871208       -2.19541024918126       -0.19987865785972
H            1.23830425634808       -1.85324857535431        1.05724623987741
H            3.65493627010235       -1.47804320120456        1.06394596836281
H            0.52788873852611        2.19558961114138       -0.21265708672306
H            2.09413794204303        4.40519559355735       -0.75528024918285
H            3.98348840750610        5.95812018584605       -1.11465312658359
H            6.29778815848565        5.21138847688866       -0.82299616068814
H            6.80770855806049        2.88734421349419       -0.14887120017445
H            6.43514062139625        1.49410276075709        2.23071332039714
H            8.47781032504350        0.22447395295178        2.77887802460780
H            7.72853309267659       -2.37964720767899       -0.55407585637890
H           -1.24398020235789        1.86082944307226        1.04542475040401
H           -3.66051198992090        1.48506512311849        1.05368166768752
H           -7.73707005543039        2.37256438611552       -0.57024481068135

          :  Hamiltonian                  GFN2-xTB          :
         :: gradient norm              0.000173033098 Eh/a0 ::
         :: HOMO-LUMO gap              0.032059510424 eV    ::
         :: SCC energy              -138.002381252358 Eh    ::
         :: -> dispersion             -0.100319662461 Eh    ::
         :: -> Gsolv                  -0.061612618716 Eh    ::
         :: repulsion energy           2.064672037678 Eh    ::

    * Orbital Energies and Occupations

         #    Occupation            Energy/Eh            Energy/eV
      -------------------------------------------------------------
         1        2.0000           -0.8922912             -24.2805
       ...           ...                  ...                  ...
       110        2.0000           -0.4409241             -11.9982
       111        2.0000           -0.4400314             -11.9739
       112        2.0000           -0.4364468             -11.8763
       113        2.0000           -0.4259143             -11.5897
       114        2.0000           -0.4247838             -11.5590
       115        2.0000           -0.4230853             -11.5127
       116        2.0000           -0.4203135             -11.4373
       117        2.0000           -0.4203001             -11.4369
       118        2.0000           -0.4078255             -11.0975
       119        2.0000           -0.4056511             -11.0383
       120        1.9997           -0.3976054             -10.8194
       121        1.0003           -0.3820378             -10.3958
       122        0.6502           -0.2881734              -7.8416 (HOMO)
       123        0.3498           -0.2869952              -7.8095 (LUMO)
       124                         -0.2715572              -7.3894
       125                         -0.2702230              -7.3531
       126                         -0.2693035              -7.3281
       127                         -0.2629181              -7.1544
       128                         -0.2629091              -7.1541
       129                         -0.2420451              -6.5864
       130                         -0.2311665              -6.2904
       131                         -0.2158861              -5.8746
       132                         -0.2129147              -5.7937
       133                         -0.2059351              -5.6038
       ...                                ...                  ...
       220                          1.1542086              31.4076
      -------------------------------------------------------------
                  HL-Gap            0.0011782 Eh            0.0321 eV

     #   Z          covCN         q      C6AA      α(0)
     1   7 N        0.911    -0.307    27.903     7.640
     2   6 C        1.911     0.105    28.507     8.623
     3   6 C        2.967    -0.001    28.042     8.686
     4   6 C        2.919    -0.026    28.661     8.779
     5   6 C        2.916    -0.035    28.861     8.810
     6   6 C        2.908     0.035    27.216     8.554
     7   7 N        2.801     0.003    21.206     6.839
     8   6 C        3.080     0.047    26.864     8.497
     9   6 C        2.909    -0.036    28.883     8.813
    10   6 C        2.923    -0.025    28.638     8.776
    11   6 C        2.920    -0.027    28.677     8.782
    12   6 C        2.912    -0.023    28.569     8.765
    13   6 C        3.060    -0.007    28.132     8.698
    14   6 C        3.061    -0.002    28.007     8.679
    15   6 C        2.914    -0.026    28.650     8.777
    16   6 C        2.975     0.024    27.464     8.596
    17   6 C        2.975     0.024    27.464     8.596
    18   6 C        2.925    -0.030    28.752     8.793
    19   6 C        2.905    -0.036    28.890     8.813
    20   6 C        3.073     0.054    26.724     8.476
    21   6 C        3.061    -0.002    28.008     8.679
    22   6 C        2.914    -0.026    28.650     8.777
    23   6 C        3.061    -0.007    28.132     8.698
    24   6 C        2.912    -0.023    28.569     8.765
    25   6 C        2.920    -0.027    28.677     8.782
    26   6 C        2.923    -0.025    28.638     8.776
    27   6 C        2.909    -0.036    28.883     8.813
    28   6 C        3.080     0.047    26.864     8.497
    29   7 N        2.801     0.003    21.206     6.839
    30   6 C        2.908     0.035    27.216     8.554
    31   6 C        2.916    -0.035    28.861     8.810
    32   6 C        2.919    -0.026    28.661     8.779
    33   6 C        2.967    -0.001    28.042     8.686
    34   6 C        1.911     0.105    28.507     8.623
    35   7 N        0.911    -0.307    27.904     7.640
    36   6 C        2.927    -0.021    28.526     8.759
    37   6 C        2.967    -0.048    29.196     8.863
    38   6 C        3.337     0.488    17.250     6.576
    39   9 F        0.792    -0.222    11.460     3.999
    40   9 F        0.791    -0.225    11.493     4.005
    41   9 F        0.791    -0.216    11.403     3.989
    42   6 C        2.925    -0.030    28.752     8.793
    43   6 C        2.905    -0.036    28.890     8.813
    44   6 C        3.073     0.054    26.724     8.476
    45   6 C        2.967    -0.048    29.196     8.863
    46   6 C        3.337     0.488    17.250     6.576
    47   9 F        0.792    -0.222    11.460     3.999
    48   9 F        0.791    -0.225    11.493     4.005
    49   9 F        0.791    -0.216    11.403     3.989
    50   6 C        2.927    -0.021    28.526     8.759
    51   1 H        0.926     0.054     2.268     2.355
    52   1 H        0.926     0.063     2.168     2.302
    53   1 H        0.926     0.049     2.337     2.391
    54   1 H        0.926     0.052     2.290     2.366
    55   1 H        0.926     0.053     2.283     2.363
    56   1 H        0.926     0.056     2.246     2.343
    57   1 H        0.926     0.066     2.127     2.280
    58   1 H        0.926     0.063     2.162     2.299
    59   1 H        0.926     0.050     2.320     2.382
    60   1 H        0.926     0.066     2.127     2.280
    61   1 H        0.926     0.056     2.246     2.343
    62   1 H        0.926     0.053     2.283     2.363
    63   1 H        0.926     0.052     2.290     2.366
    64   1 H        0.926     0.049     2.337     2.390
    65   1 H        0.926     0.063     2.168     2.302
    66   1 H        0.926     0.054     2.268     2.355
    67   1 H        0.926     0.050     2.323     2.384
    68   1 H        0.926     0.063     2.162     2.299
    69   1 H        0.926     0.050     2.320     2.382
    70   1 H        0.926     0.050     2.323     2.384

molecular dipole:
                 x           y           z       tot (Debye)
 q only:        0.001       0.007       1.311
   full:        0.002       0.007       0.935       2.376

 projected vibrational frequencies (cm⁻¹)
eigval :       -0.00    -0.00    -0.00    -0.00     0.00     0.00
eigval :        8.03    14.63    17.18    20.79    24.18    28.82
eigval :       28.90    46.22    46.57    48.34    55.67    81.70
eigval :       85.78   100.53   102.71   105.35   106.27   110.50
eigval :      113.80   130.63   135.32   146.92   153.64   160.54
eigval :      180.23   182.84   213.25   226.79   227.39   241.01
eigval :      251.64   276.05   278.02   282.79   302.17   319.03
eigval :      322.70   335.15   341.22   342.76   366.49   381.02
eigval :      387.22   394.03   395.26   404.57   420.29   420.67
eigval :      427.82   428.17   434.38   443.77   455.56   469.15
eigval :      483.11   487.41   492.08   492.52   520.25   528.24
eigval :      531.77   543.21   543.74   558.22   565.74   567.42
eigval :      571.48   576.99   579.61   583.61   600.79   601.11
eigval :      614.01   614.91   627.26   632.87   655.64   659.65
eigval :      675.48   678.95   687.80   691.67   700.33   708.60
eigval :      709.15   716.71   762.42   772.97   774.85   797.55
eigval :      797.61   822.39   835.36   839.55   853.97   857.64
eigval :      858.45   858.92   864.13   866.79   867.09   869.41
eigval :      888.34   900.51   901.25   906.48   907.54   914.60
eigval :      919.91   921.30   922.30   925.31   926.56   929.46
eigval :      973.07   974.50  1005.08  1010.92  1011.86  1019.86
eigval :     1037.99  1042.45  1045.52  1064.68  1065.29  1106.28
eigval :     1108.95  1135.32  1137.19  1143.28  1148.90  1172.79
eigval :     1173.29  1183.77  1184.26  1185.75  1186.79  1206.40
eigval :     1210.89  1219.81  1220.11  1226.30  1231.98  1240.15
eigval :     1245.23  1257.28  1259.85  1274.67  1279.86  1294.15
eigval :     1322.33  1329.24  1331.37  1336.25  1337.60  1341.27
eigval :     1348.94  1353.13  1357.70  1372.46  1396.85  1407.96
eigval :     1409.55  1424.45  1428.64  1428.96  1440.00  1440.29
eigval :     1451.36  1458.11  1472.04  1472.21  1514.27  1521.67
eigval :     1524.64  1547.86  1568.81  1575.66  1578.48  1580.45
eigval :     1588.99  1593.39  2257.65  2294.21  3088.13  3088.17
eigval :     3090.82  3090.88  3092.30  3092.32  3093.14  3093.17
eigval :     3095.29  3095.40  3099.29  3099.31  3104.64  3104.79
eigval :     3104.85  3105.12  3107.64  3108.76  3112.71  3113.52

   temp. (K)  partition function   enthalpy   heat capacity  entropy
                                   cal/mol     cal/K/mol   cal/K/mol   J/K/mol
 298.15  VIB  0.199E+20            24037.846    145.955    150.785
         ROT  0.572E+08              888.752      2.981     38.478
         INT  0.114E+28            24926.598    148.936    189.263
         TR   0.168E+29             1481.254      4.968     45.370
         TOT                       26407.8522   153.9039   234.6330   981.7044

       T/K    H(0)-H(T)+PV         H(T)/Eh          T*S/Eh         G(T)/Eh
   ------------------------------------------------------------------------
    298.15    0.420836E-01    0.519494E+00    0.111482E+00    0.408012E+00
   ------------------------------------------------------------------------

         :::::::::::::::::::::::::::::::::::::::::::::::::::::
         ::                  THERMODYNAMIC                  ::
         :::::::::::::::::::::::::::::::::::::::::::::::::::::
         :: total free energy        -135.529696854533 Eh   ::
         ::.................................................::
         :: total energy             -135.937709212338 Eh   ::
         :: zero point energy           0.477410472710 Eh   ::
         :: G(RRHO) w/o ZPVE           -0.069398114905 Eh   ::
         :: G(RRHO) contrib.            0.408012357804 Eh   ::
         :::::::::::::::::::::::::::::::::::::::::::::::::::::

           -------------------------------------------------
          | TOTAL ENERGY             -135.937709212338 Eh   |
          | TOTAL ENTHALPY           -135.418215148460 Eh   |
          | TOTAL FREE ENERGY        -135.529696854533 Eh   |
          | GRADIENT NORM               0.000175876903 Eh/α |
          | HOMO-LUMO GAP               0.032059620451 eV   |
           -------------------------------------------------

 * finished run on 2025/07/16 at 15:36:09.757
