   * xtb version 6.7.1 (edcfbbe) compiled by 'albert@albert-system' on 2024-07-22

   ID    Z sym.   atoms
    1    7 N      1, 7, 29, 35
    2    6 C      2-6, 8-28, 30-34, 36-38, 42-46, 50
    3    9 F      39-41, 47-49
    4    1 H      51-70

          program call               : xtb data2507/toluene/pCNBCzoCF3/pCNBCzoCF3_toluene_S0_crest.xyz --gfn 2 --gbsa toluene --ohess vtight --parallel 40 --molden --ceasefiles --namespace data2507/toluene/pCNBCzoCF3/pCNBCzoCF3_toluene_S0_finalOpt
      * Solvation model:               GBSA
        Solvent                        toluene
        Solvent mass                       9.2140E+01 g/mol
          :  Hamiltonian                  GFN2-xTB          :
 * total energy  :  -136.0172297 Eh     change       -0.2537007E-08 Eh
 * total energy  :  -136.0173092 Eh     change       -0.7945417E-04 Eh
 * total energy  :  -136.0173137 Eh     change       -0.4492073E-05 Eh
 * total energy  :  -136.0173215 Eh     change       -0.7826201E-05 Eh
 * total energy  :  -136.0173337 Eh     change       -0.1216625E-04 Eh
 * total energy  :  -136.0173333 Eh     change        0.3706211E-06 Eh
 * total energy  :  -136.0173367 Eh     change       -0.3434628E-05 Eh
 * total energy  :  -136.0173402 Eh     change       -0.3486871E-05 Eh
 * total energy  :  -136.0173441 Eh     change       -0.3834528E-05 Eh
 * total energy  :  -136.0173493 Eh     change       -0.5253934E-05 Eh
 * total energy  :  -136.0173677 Eh     change       -0.4370101E-06 Eh
 * total energy  :  -136.0173680 Eh     change       -0.3026139E-06 Eh
 * total energy  :  -136.0173680 Eh     change       -0.3728456E-07 Eh
 * total energy  :  -136.0173681 Eh     change       -0.1117456E-06 Eh
 * total energy  :  -136.0173681 Eh     change        0.1599835E-07 Eh
 * total energy  :  -136.0173681 Eh     change        0.3669797E-07 Eh
 * total energy  :  -136.0173682 Eh     change       -0.1567670E-06 Eh
 * total energy  :  -136.0173682 Eh     change        0.1139654E-07 Eh
 * total energy  :  -136.0173683 Eh     change       -0.3121664E-07 Eh
   *** GEOMETRY OPTIMIZATION CONVERGED AFTER 45 ITERATIONS ***

 final structure:
================
70
 xtb: 6.7.1 (edcfbbe)
N          -10.29767742819527        2.36168949921563        2.11512579967734
C           -9.36640429679227        1.78383733957423        1.77787613753692
C           -8.21872663410427        1.06607691727041        1.36833101335271
C           -7.89556804668587       -0.15355004705349        1.97125293783972
C           -6.76340644614937       -0.82981535850518        1.57819722477783
C           -5.92100428386179       -0.32491257982665        0.58092091808577
N           -4.76886615486092       -1.03232161207932        0.25689360296566
C           -4.73501602402314       -2.35791913989557       -0.15524423255867
C           -5.78416452810967       -3.23324922362211       -0.38583421691071
C           -5.47265943579707       -4.50402663769998       -0.83532598192261
C           -4.15439503384644       -4.89142175623750       -1.06116928158824
C           -3.10826599015980       -4.01362709111400       -0.85050584035552
C           -3.39624950735292       -2.73384623147565       -0.39536727605394
C           -2.58291108402070       -1.58861997871039       -0.08182152432217
C           -1.21492575804903       -1.36778669371168       -0.08114448321716
C           -0.72643742035936       -0.13154032395458        0.32613306110927
C            0.72120957032278        0.13376785328592        0.32577520523125
C            1.61492444270729       -0.85331389734409        0.76099255206834
C            2.98104460416526       -0.65237408411712        0.77289676195693
C            3.46032989206291        0.56427234385229        0.31552327708287
C            2.57808912719800        1.58779964957023       -0.09112052048243
C            1.21008530169599        1.36704755886670       -0.08994913875136
C            3.39184602345593        2.73066132331803       -0.41215447448507
C            3.10445000852254        4.00711318796097       -0.87691463387734
C            4.15088613170756        4.88316947547053       -1.09322882534964
C            5.46890618655495        4.49728673721308       -0.86341077611342
C            5.77984338635071        3.22980401541953       -0.40432359197114
C            4.73039088421425        2.35627599225800       -0.16835406983908
N            4.76372798859413        1.03361423812729        0.25313329598475
C            5.91560177312812        0.32751908127655        0.58102073362650
C            6.75843223481316        0.83743204773668        1.57533697920864
C            7.89030927063199        0.16268949853375        1.97186239067369
C            8.21266114141438       -1.06038553357984        1.37555594349459
C            9.36015700783087       -1.77638840620707        1.78869017687172
N           10.29103333133751       -2.35305390786956        2.12907823205597
C            7.40759053746812       -1.56852017980020        0.35985619673633
C            6.27675749775415       -0.87508151881744       -0.04944132543504
C            5.52916546231719       -1.45205089725761       -1.22170164159204
F            6.38117148074418       -1.97652465054515       -2.12724632020200
F            4.70888488241442       -2.46840587456750       -0.88134302070547
F            4.78276324952784       -0.57325248678736       -1.90062379337231
C           -1.62057214662562        0.85860249678655        0.75345813506711
C           -2.98669203162807        0.65761905651918        0.76582165023234
C           -3.46556941109794       -0.56232910938973        0.31688194641546
C           -6.28296668659068        0.87400463384143       -0.05604026715689
C           -5.53610193573390        1.44534572894161       -1.23150848314707
F           -6.38891147412234        1.96262348624962       -2.14045476022084
F           -4.71813120613510        2.46548147260302       -0.89688040988921
F           -4.78755835997840        0.56418541553134       -1.90492283478535
C           -7.41413299124326        1.56902456248545        0.34968541967424
H           -8.52666894517336       -0.54925865692259        2.75218381686670
H           -6.49158252820187       -1.75858401057689        2.05567498141302
H           -6.81052196285012       -2.93791559370932       -0.22842728283157
H           -6.27047844679434       -5.20814554131969       -1.01885099030879
H           -3.95146556488698       -5.89193305346074       -1.41299169961352
H           -2.08780304484944       -4.30985419720659       -1.03951098354265
H           -0.53927448886256       -2.14340891868869       -0.40735004639380
H            1.22283518170709       -1.79144750436908        1.12351083131199
H            3.64377193350843       -1.42263576883827        1.13804358196328
H            0.53474032886500        2.14028719752194       -0.42238573568911
H            2.08419526700042        4.30208408009157       -1.06898895970077
H            3.94840304758585        5.88099138438382       -1.45285176139104
H            6.26697273575112        5.19993746186146       -1.05142204421913
H            6.80602475835105        2.93546251772498       -0.24393140421699
H            6.48720682964839        1.76894474293937        2.04776339249125
H            8.52181929243044        0.56230168109587        2.75046951906212
H            7.67412293686975       -2.49577325608466       -0.12560927023769
H           -1.22884606795309        1.79939124943730        1.10943722941058
H           -3.64970167414143        1.43047915964282        1.12490467387342
H           -7.68122477541348        2.49346563943717       -0.14080905026918

          :  Hamiltonian                  GFN2-xTB          :
         :: gradient norm              0.000044897847 Eh/a0 ::
         :: HOMO-LUMO gap              1.834344416586 eV    ::
         :: SCC energy              -138.105352698971 Eh    ::
         :: -> dispersion             -0.100851992961 Eh    ::
         :: -> Gsolv                  -0.053566946369 Eh    ::
         :: repulsion energy           2.087984432766 Eh    ::

    * Orbital Energies and Occupations

         #    Occupation            Energy/Eh            Energy/eV
      -------------------------------------------------------------
         1        2.0000           -0.8960588             -24.3830
       ...           ...                  ...                  ...
       109        2.0000           -0.4396912             -11.9646
       110        2.0000           -0.4337003             -11.8016
       111        2.0000           -0.4332980             -11.7906
       112        2.0000           -0.4315534             -11.7432
       113        2.0000           -0.4301501             -11.7050
       114        2.0000           -0.4251938             -11.5701
       115        2.0000           -0.4242194             -11.5436
       116        2.0000           -0.4193512             -11.4111
       117        2.0000           -0.4089540             -11.1282
       118        2.0000           -0.3904603             -10.6250
       119        2.0000           -0.3882139             -10.5638
       120        2.0000           -0.3834959             -10.4355
       121        2.0000           -0.3703112             -10.0767 (HOMO)
       122                         -0.3029003              -8.2423 (LUMO)
       123                         -0.3022667              -8.2251
       124                         -0.2828468              -7.6967
       125                         -0.2828352              -7.6963
       126                         -0.2545692              -6.9272
       127                         -0.2545571              -6.9269
       128                         -0.2458154              -6.6890
       129                         -0.2293487              -6.2409
       130                         -0.2293379              -6.2406
       131                         -0.2264156              -6.1611
       132                         -0.2196582              -5.9772
       ...                                ...                  ...
       220                          1.1469813              31.2110
      -------------------------------------------------------------
                  HL-Gap            0.0674109 Eh            1.8343 eV

     #   Z          covCN         q      C6AA      α(0)
     1   7 N        0.911    -0.236    26.183     7.401
     2   6 C        1.911     0.122    28.110     8.563
     3   6 C        2.972     0.026    27.419     8.589
     4   6 C        2.922    -0.008    28.227     8.713
     5   6 C        2.924    -0.032    28.799     8.801
     6   6 C        2.908     0.081    26.184     8.391
     7   7 N        2.801    -0.042    22.050     6.974
     8   6 C        3.068     0.046    26.902     8.505
     9   6 C        2.910    -0.051    29.260     8.870
    10   6 C        2.925    -0.031    28.779     8.798
    11   6 C        2.920    -0.038    28.940     8.822
    12   6 C        2.913    -0.031    28.775     8.796
    13   6 C        3.065    -0.012    28.241     8.714
    14   6 C        3.063    -0.013    28.264     8.718
    15   6 C        2.918    -0.037    28.927     8.820
    16   6 C        2.977     0.004    27.940     8.671
    17   6 C        2.977     0.004    27.940     8.671
    18   6 C        2.930    -0.036    28.907     8.817
    19   6 C        2.908    -0.051    29.261     8.870
    20   6 C        3.066     0.044    26.943     8.511
    21   6 C        3.063    -0.013    28.265     8.718
    22   6 C        2.918    -0.037    28.927     8.820
    23   6 C        3.065    -0.012    28.241     8.714
    24   6 C        2.913    -0.031    28.775     8.796
    25   6 C        2.920    -0.038    28.940     8.822
    26   6 C        2.925    -0.031    28.779     8.798
    27   6 C        2.910    -0.051    29.260     8.870
    28   6 C        3.068     0.046    26.902     8.505
    29   7 N        2.801    -0.042    22.051     6.974
    30   6 C        2.908     0.081    26.184     8.391
    31   6 C        2.924    -0.032    28.799     8.801
    32   6 C        2.922    -0.008    28.227     8.713
    33   6 C        2.972     0.026    27.419     8.589
    34   6 C        1.911     0.122    28.110     8.563
    35   7 N        0.911    -0.236    26.183     7.401
    36   6 C        2.931    -0.012    28.312     8.726
    37   6 C        2.972    -0.038    28.933     8.823
    38   6 C        3.337     0.491    17.205     6.567
    39   9 F        0.792    -0.218    11.427     3.993
    40   9 F        0.791    -0.216    11.404     3.989
    41   9 F        0.791    -0.206    11.299     3.971
    42   6 C        2.930    -0.036    28.907     8.817
    43   6 C        2.908    -0.051    29.261     8.870
    44   6 C        3.066     0.044    26.943     8.511
    45   6 C        2.972    -0.038    28.933     8.823
    46   6 C        3.337     0.491    17.205     6.567
    47   9 F        0.792    -0.218    11.427     3.993
    48   9 F        0.791    -0.216    11.404     3.989
    49   9 F        0.791    -0.206    11.298     3.971
    50   6 C        2.931    -0.012    28.312     8.726
    51   1 H        0.926     0.080     1.984     2.203
    52   1 H        0.926     0.082     1.953     2.186
    53   1 H        0.926     0.035     2.519     2.482
    54   1 H        0.926     0.040     2.452     2.449
    55   1 H        0.926     0.037     2.485     2.465
    56   1 H        0.926     0.039     2.458     2.452
    57   1 H        0.926     0.042     2.428     2.437
    58   1 H        0.926     0.041     2.435     2.440
    59   1 H        0.926     0.028     2.616     2.529
    60   1 H        0.926     0.042     2.428     2.437
    61   1 H        0.926     0.039     2.458     2.452
    62   1 H        0.926     0.037     2.485     2.465
    63   1 H        0.926     0.040     2.452     2.449
    64   1 H        0.926     0.035     2.519     2.482
    65   1 H        0.926     0.083     1.953     2.186
    66   1 H        0.926     0.080     1.984     2.203
    67   1 H        0.926     0.071     2.074     2.252
    68   1 H        0.926     0.041     2.435     2.440
    69   1 H        0.926     0.028     2.616     2.529
    70   1 H        0.926     0.071     2.074     2.252

molecular dipole:
                 x           y           z       tot (Debye)
 q only:        0.002       0.004       1.985
   full:        0.002       0.004       1.620       4.118

 projected vibrational frequencies (cm⁻¹)
eigval :       -0.00    -0.00    -0.00     0.00     0.00     0.00
eigval :        7.78    15.61    16.03    22.40    25.08    33.27
eigval :       35.77    47.28    49.99    51.13    56.50    86.22
eigval :       91.21    99.87   100.65   104.78   109.81   113.17
eigval :      121.00   134.55   139.74   149.94   153.13   161.76
eigval :      183.69   186.83   219.04   229.07   230.66   243.36
eigval :      256.31   277.67   279.66   284.88   306.68   317.48
eigval :      320.99   328.88   341.59   342.24   390.08   394.14
eigval :      395.91   399.33   419.61   421.55   427.84   429.77
eigval :      436.66   438.51   443.46   456.93   464.17   473.06
eigval :      495.70   496.18   509.08   512.18   524.28   529.50
eigval :      532.23   535.03   536.34   560.37   563.28   567.05
eigval :      573.11   587.36   603.74   606.63   613.85   613.97
eigval :      617.14   621.52   630.69   640.69   675.65   676.91
eigval :      686.70   692.79   699.64   701.44   706.63   707.31
eigval :      711.42   724.67   766.09   770.72   771.88   813.22
eigval :      834.84   835.65   838.09   844.47   859.74   864.06
eigval :      869.80   870.19   871.79   881.26   887.38   888.06
eigval :      894.73   901.42   901.89   914.62   914.90   917.02
eigval :      917.88   924.47   927.94   928.14   939.96   943.76
eigval :      997.62   997.90  1012.25  1016.53  1016.64  1029.26
eigval :     1061.61  1062.80  1070.18  1070.58  1072.62  1114.65
eigval :     1117.52  1144.81  1145.64  1153.90  1156.12  1176.81
eigval :     1177.05  1184.97  1185.11  1191.78  1192.19  1207.93
eigval :     1227.03  1230.11  1231.27  1238.39  1243.26  1253.36
eigval :     1261.61  1261.86  1271.82  1284.96  1293.35  1309.36
eigval :     1313.72  1317.86  1342.15  1352.34  1356.40  1356.57
eigval :     1362.01  1371.21  1398.11  1401.60  1415.59  1420.63
eigval :     1422.63  1431.85  1454.29  1472.82  1473.85  1477.25
eigval :     1478.76  1495.88  1529.80  1529.96  1567.55  1571.96
eigval :     1574.71  1575.26  1584.89  1586.61  1595.29  1598.33
eigval :     1607.05  1612.96  2367.39  2367.57  3078.68  3078.72
eigval :     3080.88  3080.90  3083.31  3083.37  3090.17  3090.40
eigval :     3091.84  3093.39  3094.82  3096.36  3096.91  3097.02
eigval :     3098.38  3098.80  3099.98  3100.01  3110.73  3110.82

   temp. (K)  partition function   enthalpy   heat capacity  entropy
                                   cal/mol     cal/K/mol   cal/K/mol   J/K/mol
 298.15  VIB  0.688E+19            23698.590    144.550    148.587
         ROT  0.575E+08              888.752      2.981     38.488
         INT  0.396E+27            24587.342    147.531    187.075
         TR   0.168E+29             1481.254      4.968     45.370
         TOT                       26068.5958   152.4993   232.4450   972.5498

       T/K    H(0)-H(T)+PV         H(T)/Eh          T*S/Eh         G(T)/Eh
   ------------------------------------------------------------------------
    298.15    0.415430E-01    0.523414E+00    0.110442E+00    0.412972E+00
   ------------------------------------------------------------------------

         :::::::::::::::::::::::::::::::::::::::::::::::::::::
         ::                  THERMODYNAMIC                  ::
         :::::::::::::::::::::::::::::::::::::::::::::::::::::
         :: total free energy        -135.604396201721 Eh   ::
         ::.................................................::
         :: total energy             -136.017368262841 Eh   ::
         :: zero point energy           0.481871219604 Eh   ::
         :: G(RRHO) w/o ZPVE           -0.068899158484 Eh   ::
         :: G(RRHO) contrib.            0.412972061120 Eh   ::
         :::::::::::::::::::::::::::::::::::::::::::::::::::::

           -------------------------------------------------
          | TOTAL ENERGY             -136.017368262841 Eh   |
          | TOTAL ENTHALPY           -135.493954091429 Eh   |
          | TOTAL FREE ENERGY        -135.604396201721 Eh   |
          | GRADIENT NORM               0.000044933275 Eh/α |
          | HOMO-LUMO GAP               1.834344321040 eV   |
           -------------------------------------------------

 * finished run on 2025/07/16 at 15:36:00.941
