   * xtb version 6.7.1 (edcfbbe) compiled by 'albert@albert-system' on 2024-07-22

   ID    Z sym.   atoms
    1    7 N      1, 7, 29, 35
    2    6 C      2-6, 8-28, 30-34, 36-38, 42-46, 50
    3    9 F      39-41, 47-49
    4    1 H      51-70

          program call               : xtb data2507/toluene/pCNBCzoCF3/pCNBCzoCF3.xyz --gfn 2 --gbsa toluene --ohess vtight --parallel 40 --molden --ceasefiles --namespace data2507/toluene/pCNBCzoCF3/pCNBCzoCF3_toluene_S0_preOpt
      * Solvation model:               GBSA
        Solvent                        toluene
        Solvent mass                       9.2140E+01 g/mol
          :  Hamiltonian                  GFN2-xTB          :
 * total energy  :  -135.9973885 Eh     change       -0.2564860E-08 Eh
 * total energy  :  -136.0121725 Eh     change       -0.1478403E-01 Eh
 * total energy  :  -136.0153287 Eh     change       -0.3156208E-02 Eh
 * total energy  :  -136.0150555 Eh     change        0.2732527E-03 Eh
 * total energy  :  -136.0160869 Eh     change       -0.1031476E-02 Eh
 * total energy  :  -136.0160534 Eh     change        0.3351474E-04 Eh
 * total energy  :  -136.0163497 Eh     change       -0.2963210E-03 Eh
 * total energy  :  -136.0164370 Eh     change       -0.8729815E-04 Eh
 * total energy  :  -136.0165259 Eh     change       -0.8886518E-04 Eh
 * total energy  :  -136.0166193 Eh     change       -0.9339786E-04 Eh
 * total energy  :  -136.0173083 Eh     change       -0.3000628E-06 Eh
 * total energy  :  -136.0173086 Eh     change       -0.2846089E-06 Eh
 * total energy  :  -136.0173089 Eh     change       -0.2557439E-06 Eh
 * total energy  :  -136.0173091 Eh     change       -0.2376484E-06 Eh
 * total energy  :  -136.0173093 Eh     change       -0.2175616E-06 Eh
 * total energy  :  -136.0173095 Eh     change       -0.1537095E-06 Eh
 * total energy  :  -136.0173096 Eh     change       -0.1459988E-06 Eh
 * total energy  :  -136.0173098 Eh     change       -0.1368485E-06 Eh
 * total energy  :  -136.0173099 Eh     change       -0.8655300E-07 Eh
   *** GEOMETRY OPTIMIZATION CONVERGED AFTER 65 ITERATIONS ***

 final structure:
================
70
 xtb: 6.7.1 (edcfbbe)
N           -9.99632469481981        3.25897800504218        2.32583928345516
C           -9.14632234027849        2.61110185492924        1.91026392077409
C           -8.09828108760405        1.80716690124645        1.40495282151331
C           -7.92355839416835        0.49970600879120        1.86954107369105
C           -6.88304425268892       -0.26151018377407        1.38867790428608
C           -5.98887738951198        0.24209943357751        0.43649651315010
N           -4.92900301943115       -0.55804622654528        0.02598632415675
C           -5.05126525204100       -1.83564342916162       -0.50396478304468
C           -6.19637382278355       -2.55390328224313       -0.80899909673443
C           -6.03680753464227       -3.80693305572163       -1.37325120754880
C           -4.77298646892428       -4.32809335759473       -1.63800115995997
C           -3.63048021514576       -3.60499662027634       -1.35317707067856
C           -3.76564529482245       -2.34619536859951       -0.78296087335067
C           -2.82300696947970       -1.33895268669637       -0.37232584655458
C           -1.43822286864968       -1.28467912341581       -0.35709318915118
C           -0.80903814801446       -0.15504169857779        0.15275378837624
C            0.65987188713503       -0.06035625123084        0.17299409029708
C            1.43061640067797       -1.16870386672059        0.54698782606333
C            2.81015597004276       -1.12017238809412        0.59383338662417
C            3.42727475443958        0.07433531713356        0.25767397484453
C            2.67312945488432        1.19588074296923       -0.14709594916514
C            1.28923057116368        1.12711569295109       -0.18219259914881
C            3.61688827686118        2.23725474478382       -0.45712174575015
C            3.48030959060045        3.55707528604559       -0.86482702053779
C            4.62083501903947        4.31913157879507       -1.03151542416139
C            5.88159279007233        3.78821129508212       -0.77368643154256
C            6.04180900682996        2.47624436946556       -0.36501239568369
C            4.90277171805934        1.69845314167602       -0.23685770147577
N            4.77843533168575        0.38113210440157        0.18329327113296
C            5.81083489829564       -0.47787938772341        0.54165367970927
C            5.81015786655408       -1.02930051499701        1.82854291357858
C            6.82685197426675       -1.85088553261290        2.25799770415955
C            7.89000744543662       -2.14532370515479        1.39842965551086
C            8.95424647471473       -2.96793475686375        1.83496080025271
N            9.81437816736091       -3.63472683551512        2.19628940181002
C            7.89213307762466       -1.63795201137874        0.10222088903312
C            6.85431930566357       -0.82464337079851       -0.33277118437676
C            6.89633509207081       -0.41379670589039       -1.78024090434727
F            7.32824923216864       -1.43000859678339       -2.55677505159616
F            5.71872876608018       -0.04550015600209       -2.29692550069627
F            7.75462475970311        0.60007665837832       -2.01921184998198
C           -1.58044785762134        0.89486157197014        0.66713527036413
C           -2.96080805280678        0.85682646596553        0.67087268413929
C           -3.57902127540864       -0.25404297995766        0.12047274402831
C           -6.20649164677163        1.53630664669190       -0.06525374189121
C           -5.40370103872364        2.13743703331185       -1.18774610226833
F           -6.19851670323264        2.82593860732191       -2.03379499972802
F           -4.48447149166598        3.03063173263566       -0.76432166910731
F           -4.75056820197096        1.25360451040360       -1.95058194177323
C           -7.24331425903356        2.31501077231941        0.43083519633219
H           -8.59533032361207        0.10160038668918        2.61452015023690
H           -6.72326425963786       -1.26138462716978        1.76182724283378
H           -7.18078391701772       -2.15186114650646       -0.62246064450028
H           -6.91204444844488       -4.39041718209207       -1.61723892665950
H           -4.68923681225156       -5.30978901397742       -2.07989096895621
H           -2.65194146903397       -4.00378514280131       -1.57269577309508
H           -0.85796901748615       -2.10423356329355       -0.75204765770099
H            0.92856383266008       -2.08289338596786        0.82569176882107
H            3.38223785785118       -1.98969074636605        0.88026228199365
H            0.70949210084535        1.97824241336175       -0.50493161059595
H            2.50150998237220        3.97619019712979       -1.04133651948920
H            4.53697336501177        5.34654182355493       -1.35304039356653
H            6.75504614565638        4.41220156227581       -0.89032584973709
H            7.02459662305075        2.08428062926827       -0.15011097399708
H            4.99917491130067       -0.77515197085852        2.49344551167547
H            6.81870315932125       -2.25631118710299        3.25819990839694
H            8.69406081375873       -1.89279948843767       -0.57494620463533
H           -1.08021870412786        1.74952716871342        1.09713445737535
H           -3.52880324767356        1.66850587388528        1.10006583182393
H           -7.39797514373358        3.31186501612892        0.04487969276936

          :  Hamiltonian                  GFN2-xTB          :
         :: gradient norm              0.000042890760 Eh/a0 ::
         :: HOMO-LUMO gap              1.849008124498 eV    ::
         :: SCC energy              -138.105112350445 Eh    ::
         :: -> dispersion             -0.100726978280 Eh    ::
         :: -> Gsolv                  -0.053797502068 Eh    ::
         :: repulsion energy           2.087802489938 Eh    ::

    * Orbital Energies and Occupations

         #    Occupation            Energy/Eh            Energy/eV
      -------------------------------------------------------------
         1        2.0000           -0.8961695             -24.3860
       ...           ...                  ...                  ...
       109        2.0000           -0.4397643             -11.9666
       110        2.0000           -0.4343982             -11.8206
       111        2.0000           -0.4322638             -11.7625
       112        2.0000           -0.4316809             -11.7466
       113        2.0000           -0.4308700             -11.7246
       114        2.0000           -0.4253883             -11.5754
       115        2.0000           -0.4250232             -11.5655
       116        2.0000           -0.4187273             -11.3941
       117        2.0000           -0.4092522             -11.1363
       118        2.0000           -0.3906319             -10.6296
       119        2.0000           -0.3883565             -10.5677
       120        2.0000           -0.3834808             -10.4350
       121        2.0000           -0.3707594             -10.0889 (HOMO)
       122                         -0.3028096              -8.2399 (LUMO)
       123                         -0.3021555              -8.2221
       124                         -0.2828673              -7.6972
       125                         -0.2826964              -7.6926
       126                         -0.2547896              -6.9332
       127                         -0.2546922              -6.9305
       128                         -0.2456057              -6.6833
       129                         -0.2293505              -6.2409
       130                         -0.2292141              -6.2372
       131                         -0.2265402              -6.1645
       132                         -0.2196459              -5.9769
       ...                                ...                  ...
       220                          1.1470440              31.2127
      -------------------------------------------------------------
                  HL-Gap            0.0679498 Eh            1.8490 eV

     #   Z          covCN         q      C6AA      α(0)
     1   7 N        0.911    -0.237    26.192     7.402
     2   6 C        1.911     0.122    28.112     8.563
     3   6 C        2.972     0.026    27.423     8.590
     4   6 C        2.922    -0.008    28.229     8.713
     5   6 C        2.924    -0.032    28.803     8.801
     6   6 C        2.908     0.081    26.184     8.391
     7   7 N        2.801    -0.042    22.045     6.973
     8   6 C        3.068     0.046    26.905     8.505
     9   6 C        2.910    -0.051    29.257     8.869
    10   6 C        2.925    -0.031    28.779     8.797
    11   6 C        2.920    -0.038    28.940     8.822
    12   6 C        2.913    -0.031    28.777     8.796
    13   6 C        3.065    -0.012    28.238     8.714
    14   6 C        3.063    -0.012    28.262     8.718
    15   6 C        2.918    -0.037    28.930     8.820
    16   6 C        2.977     0.004    27.933     8.669
    17   6 C        2.977     0.004    27.927     8.669
    18   6 C        2.929    -0.037    28.909     8.818
    19   6 C        2.908    -0.051    29.270     8.871
    20   6 C        3.068     0.044    26.949     8.512
    21   6 C        3.062    -0.012    28.252     8.716
    22   6 C        2.918    -0.037    28.911     8.817
    23   6 C        3.066    -0.012    28.247     8.715
    24   6 C        2.913    -0.031    28.784     8.798
    25   6 C        2.920    -0.038    28.943     8.822
    26   6 C        2.925    -0.031    28.778     8.797
    27   6 C        2.910    -0.050    29.244     8.867
    28   6 C        3.065     0.046    26.897     8.504
    29   7 N        2.801    -0.041    22.040     6.973
    30   6 C        2.908     0.081    26.186     8.391
    31   6 C        2.924    -0.032    28.804     8.801
    32   6 C        2.922    -0.008    28.230     8.713
    33   6 C        2.972     0.026    27.423     8.590
    34   6 C        1.911     0.122    28.111     8.563
    35   7 N        0.911    -0.237    26.190     7.402
    36   6 C        2.931    -0.012    28.310     8.726
    37   6 C        2.972    -0.038    28.935     8.823
    38   6 C        3.337     0.491    17.202     6.566
    39   9 F        0.792    -0.219    11.430     3.994
    40   9 F        0.791    -0.206    11.294     3.970
    41   9 F        0.791    -0.217    11.411     3.990
    42   6 C        2.930    -0.036    28.903     8.817
    43   6 C        2.908    -0.051    29.258     8.869
    44   6 C        3.066     0.044    26.942     8.511
    45   6 C        2.972    -0.038    28.937     8.824
    46   6 C        3.337     0.491    17.203     6.567
    47   9 F        0.792    -0.219    11.431     3.994
    48   9 F        0.791    -0.217    11.407     3.990
    49   9 F        0.791    -0.206    11.294     3.970
    50   6 C        2.931    -0.012    28.312     8.726
    51   1 H        0.926     0.079     1.986     2.204
    52   1 H        0.926     0.082     1.953     2.186
    53   1 H        0.926     0.034     2.524     2.485
    54   1 H        0.926     0.039     2.457     2.451
    55   1 H        0.926     0.037     2.484     2.465
    56   1 H        0.926     0.040     2.447     2.446
    57   1 H        0.926     0.043     2.407     2.426
    58   1 H        0.926     0.044     2.401     2.423
    59   1 H        0.926     0.037     2.495     2.470
    60   1 H        0.926     0.040     2.443     2.444
    61   1 H        0.926     0.040     2.442     2.444
    62   1 H        0.926     0.037     2.485     2.465
    63   1 H        0.926     0.038     2.480     2.463
    64   1 H        0.926     0.026     2.640     2.541
    65   1 H        0.926     0.083     1.952     2.185
    66   1 H        0.926     0.080     1.984     2.202
    67   1 H        0.926     0.071     2.079     2.255
    68   1 H        0.926     0.041     2.442     2.444
    69   1 H        0.926     0.027     2.628     2.535
    70   1 H        0.926     0.070     2.080     2.255

molecular dipole:
                 x           y           z       tot (Debye)
 q only:       -1.196      -1.415       2.171
   full:       -1.104      -1.261       1.752       6.163

 projected vibrational frequencies (cm⁻¹)
eigval :       -0.00    -0.00    -0.00    -0.00     0.00     0.00
eigval :        8.11    14.32    16.21    23.93    26.51    31.96
eigval :       38.27    42.97    52.00    52.61    58.55    88.63
eigval :       89.46   101.84   106.34   107.06   112.18   114.88
eigval :      117.39   122.32   136.71   150.06   155.64   169.61
eigval :      183.62   187.68   219.24   228.53   230.96   243.22
eigval :      257.59   276.61   282.00   283.92   304.29   318.32
eigval :      319.87   328.03   341.10   342.08   389.62   392.67
eigval :      395.47   398.69   420.01   424.10   429.26   431.17
eigval :      435.77   438.89   441.69   455.95   463.85   475.97
eigval :      496.39   497.29   509.38   511.54   524.14   530.36
eigval :      532.19   534.98   536.52   554.43   562.78   571.40
eigval :      577.20   586.87   603.31   607.50   614.47   614.83
eigval :      618.42   623.99   629.42   639.78   674.89   676.85
eigval :      686.86   689.42   699.56   704.86   706.50   707.39
eigval :      711.63   723.68   766.19   775.48   780.22   816.14
eigval :      834.75   837.52   841.04   845.78   859.71   865.58
eigval :      872.19   877.62   878.23   885.67   885.79   889.13
eigval :      894.91   904.62   909.42   914.13   918.48   922.54
eigval :      924.00   928.76   928.77   929.93   939.77   943.49
eigval :      996.95   997.11  1012.12  1016.00  1016.28  1029.11
eigval :     1062.25  1063.35  1070.63  1071.59  1073.07  1114.42
eigval :     1117.06  1142.85  1144.32  1153.31  1155.42  1175.52
eigval :     1178.28  1184.18  1186.04  1191.19  1191.76  1207.15
eigval :     1227.21  1229.74  1230.87  1238.63  1242.28  1253.55
eigval :     1260.89  1261.35  1270.84  1283.52  1294.02  1310.01
eigval :     1314.04  1318.66  1341.85  1352.30  1356.17  1356.42
eigval :     1361.83  1371.17  1398.00  1400.51  1415.03  1420.08
eigval :     1422.63  1432.57  1454.49  1472.91  1474.01  1477.11
eigval :     1478.81  1495.81  1529.83  1530.00  1567.00  1571.55
eigval :     1574.97  1575.53  1584.83  1586.43  1595.26  1598.49
eigval :     1607.23  1612.45  2367.19  2367.46  3078.62  3079.20
eigval :     3081.08  3081.39  3082.82  3082.84  3089.81  3090.72
eigval :     3091.65  3093.42  3093.82  3095.90  3096.32  3096.48
eigval :     3098.49  3098.61  3098.82  3099.40  3109.08  3110.24

   temp. (K)  partition function   enthalpy   heat capacity  entropy
                                   cal/mol     cal/K/mol   cal/K/mol   J/K/mol
 298.15  VIB  0.584E+19            23672.846    144.503    148.356
         ROT  0.120E+09              888.752      2.981     39.957
         INT  0.703E+27            24561.598    147.484    188.312
         TR   0.168E+29             1481.254      4.968     45.370
         TOT                       26042.8523   152.4518   233.6821   977.7260

       T/K    H(0)-H(T)+PV         H(T)/Eh          T*S/Eh         G(T)/Eh
   ------------------------------------------------------------------------
    298.15    0.415019E-01    0.523541E+00    0.111030E+00    0.412511E+00
   ------------------------------------------------------------------------

         :::::::::::::::::::::::::::::::::::::::::::::::::::::
         ::                  THERMODYNAMIC                  ::
         :::::::::::::::::::::::::::::::::::::::::::::::::::::
         :: total free energy        -135.604798782185 Eh   ::
         ::.................................................::
         :: total energy             -136.017309861460 Eh   ::
         :: zero point energy           0.482039064509 Eh   ::
         :: G(RRHO) w/o ZPVE           -0.069527985234 Eh   ::
         :: G(RRHO) contrib.            0.412511079275 Eh   ::
         :::::::::::::::::::::::::::::::::::::::::::::::::::::

           -------------------------------------------------
          | TOTAL ENERGY             -136.017309861460 Eh   |
          | TOTAL ENTHALPY           -135.493768870098 Eh   |
          | TOTAL FREE ENERGY        -135.604798782185 Eh   |
          | GRADIENT NORM               0.000042789850 Eh/α |
          | HOMO-LUMO GAP               1.849008435612 eV   |
           -------------------------------------------------

 * finished run on 2025/07/16 at 15:32:20.363
