   * xtb version 6.7.1 (edcfbbe) compiled by 'albert@albert-system' on 2024-07-22

   ID    Z sym.   atoms
    1    7 N      1, 7, 29, 35
    2    6 C      2-6, 8-28, 30-34, 36-38, 42-46, 50
    3    9 F      39-41, 47-49
    4    1 H      51-70

          program call               : xtb data2507/toluene/pCNBCzoCF3/pCNBCzoCF3_toluene_T1_crest.xyz --gfn 2 --uhf 2 --gbsa toluene --ohess vtight --parallel 40 --molden --ceasefiles --namespace data2507/toluene/pCNBCzoCF3/pCNBCzoCF3_toluene_T1_finalOpt
      * Solvation model:               GBSA
        Solvent                        toluene
        Solvent mass                       9.2140E+01 g/mol
          :  Hamiltonian                  GFN2-xTB          :
 * total energy  :  -135.9374685 Eh     change       -0.4041064E-07 Eh
 * total energy  :  -135.9376240 Eh     change       -0.1554683E-03 Eh
 * total energy  :  -135.9376469 Eh     change       -0.2296724E-04 Eh
 * total energy  :  -135.9376699 Eh     change       -0.2300024E-04 Eh
 * total energy  :  -135.9376934 Eh     change       -0.2349205E-04 Eh
 * total energy  :  -135.9376847 Eh     change        0.8691002E-05 Eh
 * total energy  :  -135.9377090 Eh     change       -0.2422616E-04 Eh
 * total energy  :  -135.9377228 Eh     change       -0.1384954E-04 Eh
 * total energy  :  -135.9377302 Eh     change       -0.7351267E-05 Eh
 * total energy  :  -135.9377392 Eh     change       -0.9039662E-05 Eh
 * total energy  :  -135.9377624 Eh     change       -0.1345336E-06 Eh
 * total energy  :  -135.9377624 Eh     change       -0.3662009E-07 Eh
 * total energy  :  -135.9377628 Eh     change       -0.4118985E-06 Eh
 * total energy  :  -135.9377630 Eh     change       -0.1880612E-06 Eh
 * total energy  :  -135.9377632 Eh     change       -0.2081477E-06 Eh
 * total energy  :  -135.9377634 Eh     change       -0.1934940E-06 Eh
 * total energy  :  -135.9377636 Eh     change       -0.1654230E-06 Eh
 * total energy  :  -135.9377637 Eh     change       -0.1120107E-06 Eh
 * total energy  :  -135.9377638 Eh     change       -0.5828016E-07 Eh
   *** GEOMETRY OPTIMIZATION CONVERGED AFTER 32 ITERATIONS ***

 final structure:
================
70
 xtb: 6.7.1 (edcfbbe)
N          -10.34007160286819        2.62215236570233        1.51297548508585
C           -9.38878861349032        2.00094900205680        1.30402915909261
C           -8.23887113086722        1.24690227778111        1.06022458821672
C           -7.91186967977659        0.13768662515070        1.88145951294094
C           -6.77446544751682       -0.58294053790890        1.63848976983680
C           -5.90705405173172       -0.24658220599997        0.58672643513745
N           -4.73740350008236       -1.00064482660618        0.40117787445994
C           -4.71453127652681       -2.34307272352971        0.05290013064226
C           -5.77568405446214       -3.20183822934712       -0.18396573277127
C           -5.47394514139314       -4.50850485536794       -0.53537874847443
C           -4.15724651542403       -4.94089296699659       -0.64942988130699
C           -3.09399513114841       -4.07782650150925       -0.42443041701829
C           -3.37276725660652       -2.76752095696719       -0.07336641129503
C           -2.55410231240618       -1.61684582743434        0.22372390646816
C           -1.19638596349779       -1.40528984106246        0.26607227185353
C           -0.70550675798348       -0.12728605158599        0.59309297699384
C            0.71884972709735        0.13064874260217        0.59290773430713
C            1.63698925608485       -0.89887082525887        0.91124308374481
C            2.99421260132712       -0.70114219994604        0.89395344806153
C            3.47004775432931        0.55702448916214        0.51662985768944
C            2.56745484223914        1.62092009428984        0.22650956175707
C            1.20970908594358        1.40965728673934        0.26980150403493
C            3.38625888616250        2.77226298642632       -0.06768293779189
C            3.10765537854098        4.08394300887569       -0.41371090536916
C            4.17101800434620        4.94727609417861       -0.63720232755606
C            5.48766038343463        4.51384350903940       -0.52661628124827
C            5.78925305303091        3.20577235800812       -0.18032715211317
C            4.72800995129955        2.34671790072078        0.05503639207615
N            4.75075119734805        1.00304334501932        0.39842675921763
C            5.92005636665679        0.24703067976183        0.57799903047567
C            6.79048344067087        0.57779146560713        1.62902103306910
C            7.92733178680833       -0.14561051839517        1.86632216478674
C            8.25060737069370       -1.25200399046301        1.03982723493032
C            9.39970972646449       -2.00906142312279        1.27804634410377
N           10.35035511563249       -2.63272852286640        1.48245999008515
C            7.40513407442888       -1.56776963561644       -0.03608266112575
C            6.26479061047324       -0.83116300879757       -0.27507341495344
C            5.44132982440225       -1.18487679024423       -1.47522798177616
F            6.18262537306389       -1.70623296556220       -2.47079736559426
F            4.49019605105004       -2.11603266131991       -1.21934261462028
F            4.78525635772986       -0.14452114371787       -2.02081953123658
C           -1.62359717866708        0.90089875705636        0.91580225711220
C           -2.98079024000557        0.70272731707700        0.89966553054792
C           -3.45672741308787       -0.55437249610113        0.51890897459847
C           -6.25540272746651        0.83464927228874       -0.26098938670049
C           -5.43518062963004        1.19481827328465       -1.46143559363389
F           -6.17952276399410        1.71897879007985       -2.45324594128709
F           -4.48519550769156        2.12661444779193       -1.20363801746558
F           -4.77840103089576        0.15793716171888       -2.01274004726734
C           -7.39634721936363        1.56846522286804       -0.01629485158779
H           -8.56779187824434       -0.12197299924080        2.69769370746171
H           -6.51216304858430       -1.41856419675844        2.26956729708721
H           -6.79765451303201       -2.86586039451965       -0.10011598953125
H           -6.27897666202943       -5.20169716744399       -0.72552108533407
H           -3.96047914693389       -5.96573577526104       -0.92517714157677
H           -2.07528476376754       -4.41785372115730       -0.52515654625066
H           -0.51742159420690       -2.20058237232212        0.00456705092607
H            1.25804867688329       -1.85905157302741        1.22175977699507
H            3.67487867676606       -1.49210560779320        1.16873329596603
H            0.53065808715238        2.20607226270889        0.01195213555070
H            2.08897252032612        4.42484103920792       -0.51175387978762
H            3.97435152958935        5.97320544028036       -0.90895935187764
H            6.29275887591645        5.20732535731989       -0.71542581719291
H            6.81116685317138        2.86894960552695       -0.09920498391722
H            6.53095375329236        1.41118188489362        2.26418469720722
H            8.58555163406597        0.10957737766126        2.68211730400971
H            7.66566550541916       -2.38709517155233       -0.68988902412047
H           -1.24460191061978        1.86024476452958        1.22883278733769
H           -3.66134352170424        1.49258609219332        1.17787754416030
H           -7.65969944913458        2.39003795229668       -0.66613249654724

          :  Hamiltonian                  GFN2-xTB          :
         :: gradient norm              0.000055163966 Eh/a0 ::
         :: HOMO-LUMO gap              0.032838023946 eV    ::
         :: SCC energy              -138.002417253241 Eh    ::
         :: -> dispersion             -0.100394568204 Eh    ::
         :: -> Gsolv                  -0.061574796632 Eh    ::
         :: repulsion energy           2.064653492559 Eh    ::

    * Orbital Energies and Occupations

         #    Occupation            Energy/Eh            Energy/eV
      -------------------------------------------------------------
         1        2.0000           -0.8922823             -24.2802
       ...           ...                  ...                  ...
       110        2.0000           -0.4408829             -11.9970
       111        2.0000           -0.4399041             -11.9704
       112        2.0000           -0.4363610             -11.8740
       113        2.0000           -0.4257698             -11.5858
       114        2.0000           -0.4247184             -11.5572
       115        2.0000           -0.4230660             -11.5122
       116        2.0000           -0.4203426             -11.4381
       117        2.0000           -0.4203336             -11.4379
       118        2.0000           -0.4077459             -11.0953
       119        2.0000           -0.4055982             -11.0369
       120        1.9998           -0.3976901             -10.8217
       121        1.0002           -0.3818188             -10.3898
       122        0.6536           -0.2882304              -7.8431 (HOMO)
       123        0.3464           -0.2870236              -7.8103 (LUMO)
       124                         -0.2717479              -7.3946
       125                         -0.2701743              -7.3518
       126                         -0.2692500              -7.3267
       127                         -0.2629225              -7.1545
       128                         -0.2629195              -7.1544
       129                         -0.2419407              -6.5835
       130                         -0.2311743              -6.2906
       131                         -0.2158451              -5.8734
       132                         -0.2128333              -5.7915
       133                         -0.2059510              -5.6042
       ...                                ...                  ...
       220                          1.1542287              31.4082
      -------------------------------------------------------------
                  HL-Gap            0.0012068 Eh            0.0328 eV

     #   Z          covCN         q      C6AA      α(0)
     1   7 N        0.911    -0.307    27.900     7.639
     2   6 C        1.911     0.105    28.506     8.623
     3   6 C        2.967    -0.001    28.042     8.686
     4   6 C        2.919    -0.026    28.661     8.779
     5   6 C        2.916    -0.035    28.860     8.809
     6   6 C        2.908     0.035    27.215     8.554
     7   7 N        2.801     0.003    21.213     6.841
     8   6 C        3.080     0.047    26.862     8.497
     9   6 C        2.909    -0.036    28.885     8.813
    10   6 C        2.924    -0.025    28.639     8.776
    11   6 C        2.920    -0.027    28.678     8.782
    12   6 C        2.912    -0.023    28.571     8.765
    13   6 C        3.061    -0.007    28.132     8.698
    14   6 C        3.061    -0.002    28.010     8.679
    15   6 C        2.915    -0.026    28.651     8.777
    16   6 C        2.975     0.024    27.464     8.596
    17   6 C        2.975     0.024    27.464     8.596
    18   6 C        2.925    -0.030    28.752     8.793
    19   6 C        2.905    -0.036    28.889     8.813
    20   6 C        3.073     0.054    26.723     8.476
    21   6 C        3.061    -0.002    28.010     8.679
    22   6 C        2.915    -0.026    28.651     8.777
    23   6 C        3.061    -0.007    28.132     8.698
    24   6 C        2.912    -0.023    28.571     8.765
    25   6 C        2.920    -0.027    28.678     8.782
    26   6 C        2.924    -0.025    28.639     8.776
    27   6 C        2.909    -0.036    28.885     8.813
    28   6 C        3.080     0.047    26.862     8.497
    29   7 N        2.801     0.003    21.213     6.841
    30   6 C        2.908     0.035    27.215     8.554
    31   6 C        2.916    -0.035    28.860     8.809
    32   6 C        2.919    -0.026    28.661     8.779
    33   6 C        2.967    -0.001    28.042     8.686
    34   6 C        1.911     0.105    28.506     8.623
    35   7 N        0.911    -0.307    27.900     7.639
    36   6 C        2.927    -0.021    28.526     8.759
    37   6 C        2.967    -0.048    29.198     8.863
    38   6 C        3.337     0.488    17.252     6.577
    39   9 F        0.792    -0.221    11.457     3.998
    40   9 F        0.791    -0.225    11.492     4.004
    41   9 F        0.791    -0.217    11.408     3.990
    42   6 C        2.925    -0.030    28.752     8.793
    43   6 C        2.905    -0.036    28.889     8.813
    44   6 C        3.073     0.054    26.723     8.476
    45   6 C        2.967    -0.048    29.198     8.863
    46   6 C        3.337     0.488    17.252     6.577
    47   9 F        0.792    -0.221    11.457     3.998
    48   9 F        0.791    -0.225    11.492     4.004
    49   9 F        0.791    -0.217    11.407     3.990
    50   6 C        2.927    -0.021    28.526     8.759
    51   1 H        0.926     0.054     2.268     2.355
    52   1 H        0.926     0.063     2.167     2.302
    53   1 H        0.926     0.049     2.338     2.391
    54   1 H        0.926     0.052     2.290     2.367
    55   1 H        0.926     0.053     2.284     2.363
    56   1 H        0.926     0.056     2.247     2.344
    57   1 H        0.926     0.066     2.126     2.280
    58   1 H        0.926     0.063     2.160     2.298
    59   1 H        0.926     0.050     2.318     2.381
    60   1 H        0.926     0.066     2.126     2.280
    61   1 H        0.926     0.056     2.247     2.344
    62   1 H        0.926     0.053     2.284     2.363
    63   1 H        0.926     0.052     2.290     2.366
    64   1 H        0.926     0.049     2.337     2.391
    65   1 H        0.926     0.063     2.167     2.302
    66   1 H        0.926     0.054     2.268     2.355
    67   1 H        0.926     0.050     2.320     2.382
    68   1 H        0.926     0.063     2.160     2.298
    69   1 H        0.926     0.050     2.318     2.381
    70   1 H        0.926     0.050     2.320     2.382

molecular dipole:
                 x           y           z       tot (Debye)
 q only:        0.006      -0.001       1.653
   full:        0.006       0.001       1.299       3.301

 projected vibrational frequencies (cm⁻¹)
eigval :       -0.00    -0.00     0.00     0.00     0.00     0.00
eigval :       10.02    14.33    17.41    19.80    24.53    28.93
eigval :       31.64    48.25    49.00    52.05    56.69    86.32
eigval :       87.50   101.50   103.52   107.38   107.69   113.82
eigval :      114.51   132.02   135.28   149.14   155.44   160.89
eigval :      179.60   183.62   214.82   227.02   227.71   242.12
eigval :      251.60   275.70   277.57   283.42   302.28   320.93
eigval :      324.56   336.44   341.07   343.16   367.27   381.71
eigval :      388.05   394.54   396.57   404.80   420.60   421.09
eigval :      428.32   428.92   434.51   445.24   456.58   469.35
eigval :      484.08   488.33   493.28   493.47   520.69   528.73
eigval :      532.38   544.84   545.31   557.68   566.92   567.85
eigval :      571.67   577.45   580.19   583.44   601.13   601.37
eigval :      613.93   615.53   627.11   633.40   655.90   659.88
eigval :      675.60   680.30   687.93   693.18   701.52   710.49
eigval :      710.69   716.79   762.65   770.35   770.43   810.36
eigval :      810.59   822.69   836.82   839.69   853.91   857.61
eigval :      857.66   864.47   866.85   867.38   874.58   875.10
eigval :      888.68   903.44   903.53   908.01   908.84   914.66
eigval :      919.40   919.65   921.97   923.09   927.11   929.77
eigval :      973.48   974.85  1005.20  1012.28  1013.27  1020.42
eigval :     1037.38  1041.71  1044.91  1065.14  1065.74  1106.31
eigval :     1109.01  1136.08  1138.60  1145.23  1150.37  1172.99
eigval :     1173.56  1184.25  1184.87  1186.70  1187.48  1207.57
eigval :     1211.86  1220.44  1220.98  1227.12  1232.92  1240.44
eigval :     1245.57  1257.69  1259.92  1275.31  1280.53  1294.75
eigval :     1322.26  1329.50  1331.59  1336.88  1338.01  1341.43
eigval :     1349.35  1353.43  1357.90  1373.00  1397.14  1408.48
eigval :     1410.03  1424.47  1428.93  1429.04  1440.22  1440.61
eigval :     1451.61  1458.01  1471.98  1472.48  1514.11  1521.31
eigval :     1525.03  1548.23  1569.13  1576.39  1579.16  1580.42
eigval :     1589.18  1593.59  2258.38  2294.58  3088.02  3088.03
eigval :     3091.61  3091.65  3092.80  3092.90  3093.22  3093.40
eigval :     3095.33  3095.41  3099.35  3099.36  3104.20  3104.27
eigval :     3104.67  3105.03  3108.29  3109.50  3113.48  3114.33

   temp. (K)  partition function   enthalpy   heat capacity  entropy
                                   cal/mol     cal/K/mol   cal/K/mol   J/K/mol
 298.15  VIB  0.107E+20            23966.970    146.032    150.028
         ROT  0.566E+08              888.752      2.981     38.456
         INT  0.608E+27            24855.722    149.013    188.484
         TR   0.168E+29             1481.254      4.968     45.370
         TOT                       26336.9759   153.9814   233.8543   978.4462

       T/K    H(0)-H(T)+PV         H(T)/Eh          T*S/Eh         G(T)/Eh
   ------------------------------------------------------------------------
    298.15    0.419706E-01    0.519732E+00    0.111112E+00    0.408620E+00
   ------------------------------------------------------------------------

         :::::::::::::::::::::::::::::::::::::::::::::::::::::
         ::                  THERMODYNAMIC                  ::
         :::::::::::::::::::::::::::::::::::::::::::::::::::::
         :: total free energy        -135.529143804976 Eh   ::
         ::.................................................::
         :: total energy             -135.937763761774 Eh   ::
         :: zero point energy           0.477761015598 Eh   ::
         :: G(RRHO) w/o ZPVE           -0.069141058800 Eh   ::
         :: G(RRHO) contrib.            0.408619956798 Eh   ::
         :::::::::::::::::::::::::::::::::::::::::::::::::::::

           -------------------------------------------------
          | TOTAL ENERGY             -135.937763761774 Eh   |
          | TOTAL ENTHALPY           -135.418032103586 Eh   |
          | TOTAL FREE ENERGY        -135.529143804976 Eh   |
          | GRADIENT NORM               0.000048338706 Eh/α |
          | HOMO-LUMO GAP               0.032837536529 eV   |
           -------------------------------------------------

 * finished run on 2025/07/16 at 15:41:53.739
