   * xtb version 6.7.1 (edcfbbe) compiled by 'albert@albert-system' on 2024-07-22

   ID    Z sym.   atoms
    1    8 O      1, 21, 25
    2   15 P      2, 24
    3    6 C      3-20, 22, 23, 26-52, 54-85
    4    7 N      53
    5    1 H      86-138

          program call               : xtb data2507/toluene/9PhCzFDBFDPO/9PhCzFDBFDPO.xyz --gfn 2 --gbsa toluene --ohess vtight --parallel 40 --molden --ceasefiles --namespace data2507/toluene/9PhCzFDBFDPO/9PhCzFDBFDPO_toluene_S0_preOpt
      * Solvation model:               GBSA
        Solvent                        toluene
        Solvent mass                       9.2140E+01 g/mol
          :  Hamiltonian                  GFN2-xTB          :
 * total energy  :  -216.5664458 Eh     change       -0.1609578E-08 Eh
 * total energy  :  -216.5909163 Eh     change       -0.2447051E-01 Eh
 * total energy  :  -216.5986592 Eh     change       -0.7742860E-02 Eh
 * total energy  :  -216.6007742 Eh     change       -0.2115034E-02 Eh
 * total energy  :  -216.6026401 Eh     change       -0.1865809E-02 Eh
 * total energy  :  -216.6037733 Eh     change       -0.1133202E-02 Eh
 * total energy  :  -216.6045092 Eh     change       -0.7359555E-03 Eh
 * total energy  :  -216.6049404 Eh     change       -0.4312015E-03 Eh
 * total energy  :  -216.6051948 Eh     change       -0.2544035E-03 Eh
 * total energy  :  -216.6053599 Eh     change       -0.1650766E-03 Eh
 * total energy  :  -216.6070353 Eh     change       -0.2586651E-06 Eh
 * total energy  :  -216.6070356 Eh     change       -0.2658087E-06 Eh
 * total energy  :  -216.6070358 Eh     change       -0.2880422E-06 Eh
 * total energy  :  -216.6070362 Eh     change       -0.3595029E-06 Eh
 * total energy  :  -216.6070366 Eh     change       -0.3690743E-06 Eh
 * total energy  :  -216.6070370 Eh     change       -0.4653040E-06 Eh
 * total energy  :  -216.6070376 Eh     change       -0.5304146E-06 Eh
 * total energy  :  -216.6070381 Eh     change       -0.5492400E-06 Eh
 * total energy  :  -216.6070381 Eh     change       -0.4710898E-08 Eh
   *** GEOMETRY OPTIMIZATION CONVERGED AFTER 152 ITERATIONS ***

 final structure:
================
138
 xtb: 6.7.1 (edcfbbe)
O          -10.93425471050537       -0.53451455573746        0.64950602433458
P           -9.61492257083850       -0.09804242648355        0.15226533182961
C           -9.63603531813027        0.30925891900813       -1.61926509319592
C           -8.47285745439173        0.55733506111866       -2.33650174034763
C           -8.54956997706672        0.82382177218432       -3.69121632502425
C           -9.78094228584687        0.84824211411573       -4.32816030144166
C          -10.94173415750240        0.60034469989969       -3.61274412093760
C          -10.86862410475404        0.32576482566555       -2.25852497798654
C           -9.02664931272709        1.36614340728857        1.05732773111398
C           -9.53340671258451        2.60327145376007        0.68375124805500
C           -9.21686089218511        3.73024373102903        1.42127470825065
C           -8.40496385925439        3.61561555671204        2.53870363092064
C           -7.92084053683580        2.37658845454731        2.92586567057286
C           -8.23303893601353        1.24804086482659        2.18798548979912
C           -8.35996891097252       -1.40814040162216        0.31202684844493
C           -8.85814975967676       -2.70081374372761        0.43190174969553
C           -8.02894025391684       -3.81321970522039        0.49945743976399
C           -6.65629995813652       -3.66984697708176        0.44391719440225
C           -6.13260983681672       -2.38843332785025        0.33117013463513
C           -6.97937036042894       -1.26452715728834        0.26488544820994
O           -6.26403379240006       -0.10576442173900        0.16797502575728
C           -4.94899126655346       -0.46520307770838        0.17158537450531
C           -3.83647692110938        0.36331508374848        0.10259499022987
P           -3.81102501092066        2.18516468190264        0.05940683403127
O           -2.45256984347759        2.68299754049300       -0.23695822666944
C           -4.36650050397936        2.74980944138266        1.70073141294155
C           -4.72892049107930        4.08306685133392        1.83898110845145
C           -4.99184126606489        4.60050096023350        3.09409680406524
C           -4.88281032727172        3.78927179904661        4.21295956695254
C           -4.51266359350338        2.46113889849900        4.07597397897359
C           -4.24974021885605        1.93990561733862        2.82024506777257
C           -5.02715742632645        2.76047517628444       -1.16100480862141
C           -6.36701366930751        2.95349079726304       -0.85664108218578
C           -7.21612773417723        3.46690638050376       -1.82097503701180
C           -6.73519613174920        3.77499726655586       -3.08366491903462
C           -5.39912741062472        3.56976121387959       -3.39062266761035
C           -4.54381627429871        3.06669757358604       -2.42709774563571
C           -2.58964660215268       -0.24722666653480        0.10748369747951
C           -2.41644578485525       -1.63170429799432        0.19258742690326
C           -1.06320179332703       -2.20731996589798        0.20801622279121
C           -0.05818805604645       -1.69207282828841       -0.60756337213027
C            1.21409217805412       -2.22782508925150       -0.58315876447652
C            1.52660567003315       -3.28500618762106        0.26550950728295
C            2.91185217614487       -3.89731093713758        0.24731440472948
C            4.01084272880399       -2.86295858405894        0.09946864371385
C            3.91224212072951       -1.63371499721910        0.74256950964839
C            4.93516768752633       -0.70949500218227        0.66198300045734
C            6.09809864573800       -0.99150413732125       -0.05161965442561
C            7.18863594604876       -0.00964244155940       -0.13838226270953
C            6.91705447571668        1.34634563673108       -0.31337434157001
C            7.93933405260543        2.27088944524931       -0.39593338128952
C            9.26528921769208        1.85612187874466       -0.31076833758582
N           10.30913520904743        2.79086177635916       -0.39777478714574
C           10.47327066905533        3.73015799527666       -1.39592488722759
C            9.70857189536474        3.95666403753239       -2.53215987297744
C           10.11470697323834        4.95649483800516       -3.39521176169411
C           11.25796509500994        5.71378758608915       -3.14590388745674
C           12.03487549357816        5.47886644922992       -2.02890643460077
C           11.64742097911138        4.47858773123238       -1.14613057540994
C           12.21060784085688        3.95985801225305        0.06895023560183
C           13.33363658013198        4.28632481430808        0.81881558267824
C           13.58257202174699        3.58155288765010        1.97979228664482
C           12.71991134712003        2.57238204498167        2.40415379754494
C           11.59684437735526        2.22944729791478        1.67580176925404
C           11.35421521726559        2.91784096772967        0.49499084797465
C            9.54762784528667        0.50400587252410       -0.13766694295162
C            8.51992478849598       -0.41353632229744       -0.05026624585046
C            6.20042336320069       -2.23048718620850       -0.67966391524774
C            5.17357743228553       -3.15181348420457       -0.60393513916211
C            2.93803719432218       -4.96143064674699       -0.83517721119406
C            2.69283020981135       -4.82322957182112       -2.18484395144673
C            2.76223890970478       -5.94997692154932       -2.99385910971723
C            3.06801586761020       -7.19199742951041       -2.45791790674285
C            3.30790911647636       -7.33846981411853       -1.10084673442660
C            3.23946472181643       -6.21755292046280       -0.28922180961866
C            3.43243503035543       -6.06598474778204        1.14445445188146
C            3.75338264342785       -6.99497107768934        2.12115293835228
C            3.86858567155256       -6.56591911274750        3.43392120381361
C            3.67177822388706       -5.23345108235183        3.76464813397050
C            3.35429077218887       -4.29764359062674        2.78894975518890
C            3.22973103794200       -4.72034789943924        1.48245893665480
C            0.52163365839842       -3.81046515612845        1.06789721417757
C           -0.75354445903575       -3.27906093629263        1.04134972592388
C           -3.53845533170349       -2.44752982895857        0.27631988149207
C           -4.79546876340611       -1.86266273096044        0.26243808527398
H           -7.51873269529759        0.54942552692198       -1.83268181988914
H           -7.64560823373331        1.01553280326161       -4.24997799942724
H           -9.83507382725225        1.05758909282252       -5.38632793499885
H          -11.90094483377857        0.61701490588161       -4.10905661774861
H          -11.75643509495930        0.11789967374804       -1.67704545035974
H          -10.17917726146879        2.66501342033445       -0.18303329455801
H           -9.60443749266555        4.69508310816344        1.12869857972708
H           -8.15596942333057        4.49220982275622        3.11711618443250
H           -7.30012436478585        2.29000625288133        3.80450002689970
H           -7.86958836688389        0.27478561739550        2.48940721108732
H           -9.93171477118807       -2.81551025706171        0.48193279610613
H           -8.46665103974924       -4.79512609016005        0.59368329855306
H           -6.00076396060774       -4.52504270193417        0.49051408550047
H           -4.79327611043890        4.70635742054465        0.95647351855360
H           -5.27179263211594        5.63810231615162        3.20148378792729
H           -5.08200859210416        4.19450769447680        5.19421842161570
H           -4.42098058867851        1.83068831436613        4.94878951382610
H           -3.94897284025875        0.90692821109529        2.70630874114381
H           -6.73447159081898        2.70849063241956        0.12878761601137
H           -8.25654934389800        3.62742487056942       -1.58415356672343
H           -7.40408370011210        4.17876849011963       -3.82925201617378
H           -5.02327851528068        3.80928346513240       -4.37466256536129
H           -3.49170577567660        2.92116945602294       -2.63089967348528
H           -1.72615618201532        0.40129214563360        0.06317733890728
H           -0.28107141686520       -0.87533356871833       -1.27844239132241
H            1.97786146834689       -1.81028319304297       -1.22302258912755
H            3.02209064515073       -1.39215856646619        1.30546717587461
H            4.84002319389551        0.23481303748040        1.17822037229749
H            5.89286542128684        1.67883814087171       -0.39705182750322
H            7.71610696115177        3.32059459539058       -0.51769095899500
H            8.82974135643715        3.36578303429094       -2.74254336849893
H            9.53437428527673        5.15384032180578       -4.28502794012172
H           11.54077682302812        6.48875794711032       -3.84342724969771
H           12.92886237127463        6.05569543989542       -1.84335149620501
H           13.99382337126009        5.07876547285442        0.49860820652287
H           14.45205047817741        3.81816983121982        2.57577121578163
H           12.93246661979835        2.04869103189998        3.32501781119238
H           10.92582160596021        1.45719332012721        2.02095932562852
H           10.57578580994344        0.17776401407398       -0.08284828973066
H            8.75182788729033       -1.45759232302619        0.10003776784515
H            7.08560142487908       -2.46846009125776       -1.25139990944132
H            5.27753389216023       -4.10536278389788       -1.10116761958992
H            2.45441971710575       -3.85966893430537       -2.60991200162242
H            2.57606767189654       -5.85655242074567       -4.05402814561179
H            3.11769531987415       -8.05510685870899       -3.10624138454317
H            3.54253361691027       -8.30750594599237       -0.68567373459588
H            3.91017403854236       -8.03270537313659        1.86634895845449
H            4.11664352482337       -7.27640851162230        4.20940248691095
H            3.76743248508723       -4.91871420867005        4.79380794718517
H            3.20357864002888       -3.26133649436141        3.05282805075427
H            0.73852830609226       -4.63869179416395        1.72635464007891
H           -1.51149299684980       -3.68641149719098        1.69419415194220
H           -3.43945978910010       -3.52004183714619        0.33077987374983

          :  Hamiltonian                  GFN2-xTB          :
         :: gradient norm              0.000049913660 Eh/a0 ::
         :: HOMO-LUMO gap              2.302524359482 eV    ::
         :: SCC energy              -220.583194594133 Eh    ::
         :: -> dispersion             -0.219596144019 Eh    ::
         :: -> Gsolv                  -0.090817146966 Eh    ::
         :: repulsion energy           3.976156473659 Eh    ::

    * Orbital Energies and Occupations

         #    Occupation            Energy/Eh            Energy/eV
      -------------------------------------------------------------
         1        2.0000           -0.7552813             -20.5522
       ...           ...                  ...                  ...
       189        2.0000           -0.4088678             -11.1259
       190        2.0000           -0.4084363             -11.1141
       191        2.0000           -0.4065952             -11.0640
       192        2.0000           -0.4051009             -11.0234
       193        2.0000           -0.4044963             -11.0069
       194        2.0000           -0.4038645             -10.9897
       195        2.0000           -0.4027218             -10.9586
       196        2.0000           -0.3968451             -10.7987
       197        2.0000           -0.3899483             -10.6110
       198        2.0000           -0.3836871             -10.4407
       199        2.0000           -0.3796952             -10.3320
       200        2.0000           -0.3772727             -10.2661
       201        2.0000           -0.3599388              -9.7944 (HOMO)
       202                         -0.2753226              -7.4919 (LUMO)
       203                         -0.2661195              -7.2415
       204                         -0.2545534              -6.9268
       205                         -0.2532425              -6.8911
       206                         -0.2512968              -6.8381
       207                         -0.2497355              -6.7956
       208                         -0.2479387              -6.7468
       209                         -0.2468204              -6.7163
       210                         -0.2426733              -6.6035
       211                         -0.2408649              -6.5543
       212                         -0.2389439              -6.5020
       ...                                ...                  ...
       403                          1.1875968              32.3162
      -------------------------------------------------------------
                  HL-Gap            0.0846162 Eh            2.3025 eV

     #   Z          covCN         q      C6AA      α(0)
     1   8 O        0.808    -0.399    21.678     6.241
     2  15 P        4.078     0.067   157.269    22.527
     3   6 C        2.921     0.011    27.767     8.641
     4   6 C        2.980    -0.024    28.593     8.771
     5   6 C        2.920    -0.025    28.633     8.775
     6   6 C        2.920    -0.022    28.561     8.764
     7   6 C        2.919    -0.026    28.656     8.778
     8   6 C        3.022    -0.019    28.465     8.752
     9   6 C        2.921     0.018    27.611     8.617
    10   6 C        3.019    -0.019    28.453     8.750
    11   6 C        2.919    -0.025    28.617     8.772
    12   6 C        2.921    -0.024    28.601     8.770
    13   6 C        2.920    -0.026    28.654     8.778
    14   6 C        2.986    -0.017    28.419     8.745
    15   6 C        2.908    -0.013    28.342     8.730
    16   6 C        3.050    -0.024    28.545     8.762
    17   6 C        2.919    -0.035    28.865     8.810
    18   6 C        2.913    -0.028    28.704     8.785
    19   6 C        3.056    -0.018    28.396     8.739
    20   6 C        3.122     0.132    24.950     8.180
    21   8 O        1.714    -0.222    17.682     5.678
    22   6 C        3.122     0.129    25.021     8.192
    23   6 C        2.906    -0.015    28.386     8.736
    24  15 P        4.082     0.069   157.190    22.522
    25   8 O        0.808    -0.403    21.756     6.252
    26   6 C        2.921     0.014    27.698     8.630
    27   6 C        3.016    -0.018    28.445     8.749
    28   6 C        2.919    -0.024    28.615     8.772
    29   6 C        2.920    -0.023    28.588     8.768
    30   6 C        2.920    -0.025    28.637     8.776
    31   6 C        2.985    -0.021    28.526     8.761
    32   6 C        2.922     0.013    27.714     8.633
    33   6 C        2.976    -0.020    28.509     8.758
    34   6 C        2.921    -0.024    28.607     8.771
    35   6 C        2.920    -0.022    28.556     8.763
    36   6 C        2.919    -0.026    28.659     8.779
    37   6 C        3.032    -0.019    28.460     8.750
    38   6 C        3.058    -0.029    28.661     8.780
    39   6 C        2.975     0.008    27.827     8.653
    40   6 C        2.977     0.007    27.847     8.656
    41   6 C        2.924    -0.033    28.831     8.805
    42   6 C        2.922    -0.033    28.811     8.802
    43   6 C        2.979     0.018    27.599     8.617
    44   6 C        3.946     0.008    20.376     6.414
    45   6 C        2.980     0.016    27.652     8.626
    46   6 C        2.922    -0.035    28.860     8.810
    47   6 C        2.924    -0.035    28.880     8.813
    48   6 C        2.976     0.007    27.858     8.658
    49   6 C        2.975     0.008    27.829     8.653
    50   6 C        2.925    -0.033    28.831     8.805
    51   6 C        2.920    -0.043    29.068     8.841
    52   6 C        2.912     0.062    26.617     8.460
    53   7 N        2.802    -0.047    22.145     6.989
    54   6 C        3.076     0.048    26.853     8.496
    55   6 C        2.909    -0.052    29.291     8.874
    56   6 C        2.924    -0.035    28.879     8.813
    57   6 C        2.919    -0.043    29.070     8.842
    58   6 C        2.912    -0.035    28.876     8.812
    59   6 C        3.067    -0.019    28.415     8.741
    60   6 C        3.067    -0.019    28.415     8.741
    61   6 C        2.912    -0.035    28.876     8.812
    62   6 C        2.919    -0.043    29.071     8.842
    63   6 C        2.924    -0.035    28.880     8.813
    64   6 C        2.909    -0.052    29.291     8.875
    65   6 C        3.076     0.048    26.853     8.496
    66   6 C        2.920    -0.043    29.069     8.842
    67   6 C        2.925    -0.033    28.834     8.806
    68   6 C        2.924    -0.035    28.881     8.813
    69   6 C        2.922    -0.036    28.903     8.816
    70   6 C        3.056     0.004    27.879     8.659
    71   6 C        2.914    -0.034    28.852     8.808
    72   6 C        2.922    -0.033    28.823     8.804
    73   6 C        2.921    -0.033    28.834     8.806
    74   6 C        2.914    -0.035    28.870     8.811
    75   6 C        3.034     0.000    27.987     8.677
    76   6 C        3.034     0.000    27.989     8.678
    77   6 C        2.914    -0.035    28.869     8.811
    78   6 C        2.921    -0.034    28.835     8.806
    79   6 C        2.922    -0.033    28.824     8.804
    80   6 C        2.914    -0.034    28.850     8.808
    81   6 C        3.057     0.004    27.882     8.659
    82   6 C        2.922    -0.035    28.883     8.813
    83   6 C        2.924    -0.035    28.860     8.810
    84   6 C        2.918    -0.035    28.881     8.813
    85   6 C        3.053    -0.019    28.428     8.744
    86   1 H        0.926     0.041     2.442     2.444
    87   1 H        0.926     0.043     2.409     2.427
    88   1 H        0.926     0.049     2.327     2.386
    89   1 H        0.926     0.047     2.352     2.398
    90   1 H        0.925     0.053     2.288     2.365
    91   1 H        0.925     0.039     2.461     2.453
    92   1 H        0.926     0.048     2.344     2.394
    93   1 H        0.926     0.048     2.343     2.394
    94   1 H        0.926     0.043     2.411     2.428
    95   1 H        0.925     0.032     2.552     2.498
    96   1 H        0.926     0.064     2.157     2.297
    97   1 H        0.926     0.056     2.246     2.344
    98   1 H        0.926     0.059     2.207     2.323
    99   1 H        0.925     0.039     2.464     2.455
   100   1 H        0.926     0.048     2.346     2.395
   101   1 H        0.926     0.049     2.327     2.385
   102   1 H        0.926     0.045     2.377     2.411
   103   1 H        0.925     0.033     2.545     2.495
   104   1 H        0.926     0.041     2.437     2.441
   105   1 H        0.926     0.042     2.420     2.433
   106   1 H        0.926     0.048     2.340     2.392
   107   1 H        0.926     0.047     2.362     2.403
   108   1 H        0.925     0.049     2.327     2.386
   109   1 H        0.926     0.067     2.116     2.275
   110   1 H        0.926     0.036     2.509     2.477
   111   1 H        0.926     0.036     2.497     2.471
   112   1 H        0.926     0.033     2.549     2.497
   113   1 H        0.926     0.035     2.522     2.483
   114   1 H        0.926     0.041     2.436     2.440
   115   1 H        0.926     0.041     2.438     2.442
   116   1 H        0.926     0.029     2.594     2.519
   117   1 H        0.926     0.029     2.597     2.520
   118   1 H        0.926     0.027     2.628     2.535
   119   1 H        0.926     0.029     2.595     2.519
   120   1 H        0.926     0.029     2.596     2.519
   121   1 H        0.926     0.027     2.628     2.535
   122   1 H        0.926     0.029     2.596     2.519
   123   1 H        0.926     0.030     2.593     2.518
   124   1 H        0.926     0.041     2.436     2.441
   125   1 H        0.926     0.041     2.436     2.441
   126   1 H        0.926     0.034     2.524     2.485
   127   1 H        0.926     0.031     2.574     2.509
   128   1 H        0.926     0.031     2.570     2.507
   129   1 H        0.926     0.032     2.560     2.502
   130   1 H        0.926     0.032     2.561     2.503
   131   1 H        0.926     0.033     2.545     2.495
   132   1 H        0.926     0.033     2.545     2.495
   133   1 H        0.926     0.032     2.561     2.503
   134   1 H        0.926     0.032     2.560     2.502
   135   1 H        0.926     0.031     2.572     2.508
   136   1 H        0.926     0.035     2.515     2.480
   137   1 H        0.926     0.037     2.484     2.465
   138   1 H        0.926     0.059     2.214     2.327

molecular dipole:
                 x           y           z       tot (Debye)
 q only:       -0.317      -0.756      -0.312
   full:       -0.363      -0.813      -0.323       2.407

 projected vibrational frequencies (cm⁻¹)
eigval :       -0.00    -0.00    -0.00    -0.00     0.00     0.00
eigval :        4.53     7.15    10.01    13.37    13.96    18.12
eigval :       19.51    21.75    28.10    29.44    32.33    33.49
eigval :       35.14    37.20    39.19    43.08    49.93    52.67
eigval :       55.10    59.45    65.46    68.87    74.26    76.49
eigval :       80.65    86.00    87.03    88.52    91.42    97.36
eigval :       99.03   106.44   111.78   124.88   138.21   143.04
eigval :      147.31   149.55   152.94   154.93   164.84   173.92
eigval :      177.50   194.02   201.35   204.34   211.94   218.30
eigval :      228.89   231.79   236.79   238.80   242.39   255.57
eigval :      256.52   259.30   267.62   271.19   271.73   275.75
eigval :      283.13   294.67   298.99   304.28   319.86   335.46
eigval :      336.96   353.52   362.51   367.76   368.19   368.84
eigval :      370.96   374.90   382.07   383.80   385.72   390.96
eigval :      394.68   399.52   410.57   414.43   417.01   420.53
eigval :      429.51   432.25   435.08   441.22   446.23   454.74
eigval :      458.69   467.92   477.67   483.34   486.24   497.77
eigval :      502.79   507.09   514.15   518.51   520.04   530.37
eigval :      532.47   537.38   540.57   543.33   545.14   556.42
eigval :      573.10   581.98   585.50   585.82   586.22   586.67
eigval :      587.70   592.41   594.53   597.13   606.39   607.67
eigval :      615.62   618.50   624.59   636.01   657.12   658.34
eigval :      659.45   661.03   664.23   673.64   675.65   681.01
eigval :      684.21   688.74   691.62   699.83   700.81   705.50
eigval :      708.89   711.10   716.27   720.93   722.55   728.99
eigval :      741.26   743.62   744.63   745.44   752.37   754.43
eigval :      761.57   768.33   775.73   779.47   784.36   790.22
eigval :      800.85   804.32   816.10   832.69   840.41   856.23
eigval :      863.96   865.66   872.34   873.65   876.30   877.77
eigval :      878.37   878.96   879.68   880.62   880.77   881.36
eigval :      895.49   896.53   897.03   899.81   900.57   902.09
eigval :      902.74   903.33   904.45   907.20   907.83   909.69
eigval :      910.06   916.97   918.18   919.30   920.05   921.49
eigval :      924.39   926.25   926.34   926.90   928.15   928.30
eigval :      929.85   931.44   931.62   933.41   934.11   934.34
eigval :      935.82   936.50   938.08   938.27   939.38   971.83
eigval :      972.36   975.72   976.63   996.10  1006.86  1010.99
eigval :     1014.74  1023.89  1062.79  1067.61  1071.49  1074.73
eigval :     1076.47  1076.80  1077.45  1077.92  1080.04  1081.77
eigval :     1092.21  1101.34  1107.58  1111.03  1112.44  1113.37
eigval :     1114.28  1116.83  1121.40  1122.87  1129.21  1130.49
eigval :     1134.82  1142.45  1146.83  1149.11  1151.19  1158.25
eigval :     1171.77  1174.08  1174.18  1174.95  1176.53  1177.43
eigval :     1179.07  1179.56  1179.77  1182.57  1182.88  1183.51
eigval :     1187.75  1188.88  1189.76  1191.26  1199.53  1203.39
eigval :     1205.71  1209.53  1212.78  1215.57  1220.51  1226.57
eigval :     1227.12  1235.12  1236.66  1240.16  1242.66  1253.15
eigval :     1261.68  1266.65  1268.13  1270.25  1270.29  1272.33
eigval :     1276.50  1277.50  1283.94  1295.13  1301.61  1303.67
eigval :     1306.72  1313.69  1314.18  1318.00  1319.22  1320.59
eigval :     1321.80  1322.34  1324.99  1338.96  1351.43  1355.64
eigval :     1360.48  1364.03  1366.61  1376.18  1385.08  1391.52
eigval :     1401.90  1412.22  1420.96  1421.90  1422.95  1424.55
eigval :     1427.07  1427.35  1429.46  1430.23  1451.00  1451.42
eigval :     1452.05  1453.60  1454.89  1460.46  1468.66  1470.47
eigval :     1474.33  1476.91  1487.11  1498.88  1507.05  1552.38
eigval :     1557.31  1566.86  1570.65  1573.43  1575.07  1581.30
eigval :     1582.09  1582.84  1584.09  1584.39  1584.66  1585.01
eigval :     1585.10  1586.16  1586.34  1586.97  1591.94  1592.89
eigval :     1596.82  1596.84  1599.93  1602.57  1603.95  1607.91
eigval :     1613.08  3050.72  3055.36  3058.27  3059.41  3067.34
eigval :     3068.68  3068.79  3068.98  3069.55  3069.58  3071.28
eigval :     3074.38  3074.63  3074.81  3075.67  3075.81  3075.95
eigval :     3076.92  3077.76  3077.89  3078.31  3078.45  3079.09
eigval :     3080.44  3080.68  3081.42  3081.77  3082.72  3082.97
eigval :     3083.41  3083.99  3084.14  3084.46  3086.22  3087.10
eigval :     3087.37  3089.15  3089.67  3090.21  3090.46  3090.55
eigval :     3091.29  3091.65  3092.20  3092.44  3092.51  3093.20
eigval :     3093.89  3101.35  3102.02  3103.20  3103.87  3105.54

   temp. (K)  partition function   enthalpy   heat capacity  entropy
                                   cal/mol     cal/K/mol   cal/K/mol   J/K/mol
 298.15  VIB  0.167E+36            42179.400    258.063    267.482
         ROT  0.679E+09              888.752      2.981     43.393
         INT  0.113E+45            43068.153    261.044    310.875
         TR   0.366E+29             1481.254      4.968     46.915
         TOT                       44549.4065   266.0124   357.7894  1496.9908

       T/K    H(0)-H(T)+PV         H(T)/Eh          T*S/Eh         G(T)/Eh
   ------------------------------------------------------------------------
    298.15    0.709940E-01    0.112226E+01    0.169997E+00    0.952263E+00
   ------------------------------------------------------------------------

         :::::::::::::::::::::::::::::::::::::::::::::::::::::
         ::                  THERMODYNAMIC                  ::
         :::::::::::::::::::::::::::::::::::::::::::::::::::::
         :: total free energy        -215.654775110419 Eh   ::
         ::.................................................::
         :: total energy             -216.607038126080 Eh   ::
         :: zero point energy           1.051266295757 Eh   ::
         :: G(RRHO) w/o ZPVE           -0.099003280095 Eh   ::
         :: G(RRHO) contrib.            0.952263015661 Eh   ::
         :::::::::::::::::::::::::::::::::::::::::::::::::::::

           -------------------------------------------------
          | TOTAL ENERGY             -216.607038126080 Eh   |
          | TOTAL ENTHALPY           -215.484777832132 Eh   |
          | TOTAL FREE ENERGY        -215.654775110419 Eh   |
          | GRADIENT NORM               0.000049905898 Eh/α |
          | HOMO-LUMO GAP               2.302524531255 eV   |
           -------------------------------------------------

 * finished run on 2025/07/17 at 11:26:00.572
