   * xtb version 6.7.1 (edcfbbe) compiled by 'albert@albert-system' on 2024-07-22

   ID    Z sym.   atoms
    1    8 O      1, 21, 25
    2   15 P      2, 24
    3    6 C      3-20, 22, 23, 26-52, 54-85
    4    7 N      53
    5    1 H      86-138

          program call               : xtb data2507/toluene/9PhCzFDBFDPO/9PhCzFDBFDPO_toluene_S0_finalOpt.xtbopt.xyz --gfn 2 --uhf 2 --gbsa toluene --ohess vtight --parallel 40 --molden --ceasefiles --namespace data2507/toluene/9PhCzFDBFDPO/9PhCzFDBFDPO_toluene_T1_preOpt
      * Solvation model:               GBSA
        Solvent                        toluene
        Solvent mass                       9.2140E+01 g/mol
          :  Hamiltonian                  GFN2-xTB          :
 * total energy  :  -216.4981359 Eh     change       -0.8308660E-08 Eh
 * total energy  :  -216.5006132 Eh     change       -0.2477335E-02 Eh
 * total energy  :  -216.5020662 Eh     change       -0.1452987E-02 Eh
 * total energy  :  -216.5025342 Eh     change       -0.4679775E-03 Eh
 * total energy  :  -216.5030049 Eh     change       -0.4707709E-03 Eh
 * total energy  :  -216.5032825 Eh     change       -0.2776066E-03 Eh
 * total energy  :  -216.5035509 Eh     change       -0.2683316E-03 Eh
 * total energy  :  -216.5037836 Eh     change       -0.2327677E-03 Eh
 * total energy  :  -216.5039911 Eh     change       -0.2074799E-03 Eh
 * total energy  :  -216.5041150 Eh     change       -0.1239143E-03 Eh
 * total energy  :  -216.5057571 Eh     change       -0.2640924E-06 Eh
 * total energy  :  -216.5057573 Eh     change       -0.2247655E-06 Eh
 * total energy  :  -216.5057575 Eh     change       -0.1905325E-06 Eh
 * total energy  :  -216.5057576 Eh     change       -0.1640458E-06 Eh
 * total energy  :  -216.5057578 Eh     change       -0.1388591E-06 Eh
 * total energy  :  -216.5057579 Eh     change       -0.1261729E-06 Eh
 * total energy  :  -216.5057580 Eh     change       -0.1202482E-06 Eh
 * total energy  :  -216.5057581 Eh     change       -0.1216853E-06 Eh
 * total energy  :  -216.5057581 Eh     change       -0.1435950E-08 Eh
   *** GEOMETRY OPTIMIZATION CONVERGED AFTER 94 ITERATIONS ***

 final structure:
================
138
 xtb: 6.7.1 (edcfbbe)
O          -10.65890977610871       -0.34464040196253        0.49177128181322
P           -9.31515750915394        0.09238632761794        0.06133345338795
C           -9.30179428160104        0.69849981992550       -1.65314297171185
C           -8.12282019083974        1.01260985006535       -2.31727485738392
C           -8.16981158730831        1.42801293104178       -3.63504657764508
C           -9.38773938192749        1.53340965858189       -4.28984414187243
C          -10.56429500137000        1.21814233613933       -3.62862769090651
C          -10.52063813842201        0.79512432156427       -2.31212397655017
C           -8.70650436022668        1.43913130430841        1.12447766191747
C           -9.20207187943976        2.71509220157173        0.89346196479409
C           -8.87709808492042        3.74901858800213        1.75327529725916
C           -8.06649010330475        3.50275903917774        2.85021622513999
C           -7.59141288629488        2.22441387562202        3.09362690388872
C           -7.91349696064011        1.18882648237019        2.23351816256366
C           -8.10887865755804       -1.26323476618977        0.09640774181686
C           -8.64860617840522       -2.55211768183752        0.08281241215831
C           -7.85017556249014       -3.68606621127064        0.03471692870836
C           -6.47372231007886       -3.58076480813370       -0.00614491265744
C           -5.90834185758083       -2.30554011752064        0.01348869924197
C           -6.72613776367128       -1.15892376411270        0.06264894246415
O           -5.97679334797106       -0.01533093353810        0.08950237961927
C           -4.67141830672657       -0.41186435754358        0.06049189964567
C           -3.53892781923950        0.38827586491864        0.08794983169976
P           -3.46647549640913        2.19588520929662        0.25453132632143
O           -2.09423495505249        2.69475442961550        0.02504784723365
C           -4.01576554967737        2.59150760684242        1.94858651623616
C           -4.35593292691236        3.90661945137337        2.23590003986616
C           -4.61087295782620        4.28504367730270        3.54127777579574
C           -4.51711782405807        3.35226240115931        4.56244952497214
C           -4.16980905421587        2.04159436722146        4.27741750118228
C           -3.91415007240363        1.66031042810567        2.97097265186053
C           -4.65821850989735        2.95662808579074       -0.88664387604669
C           -5.99240805443582        3.15833594873398       -0.56287413337046
C           -6.81928465641169        3.81198505560718       -1.45927841989413
C           -6.32304163699877        4.25091885303497       -2.67640805949712
C           -4.99322992757952        4.03745264736227       -3.00492774750297
C           -4.16039989735318        3.39389823941844       -2.10798139450065
C           -2.30314544769008       -0.25622771513543        0.03322682779163
C           -2.17346806816999       -1.64543072065833       -0.02519731956697
C           -0.83438416390578       -2.25420429894727       -0.05129285114115
C            0.18723528089213       -1.70007449087840       -0.81913772218280
C            1.45011915979063       -2.25799525763712       -0.82121578916433
C            1.73605614256843       -3.37644031978464       -0.04481756006365
C            3.11602818256743       -3.99708229634156       -0.08083559200397
C            4.22422683035667       -2.97606314498886       -0.13654995517130
C            4.12331378207265       -1.76459443369626        0.56777624439182
C            5.14094777292459       -0.85341171640479        0.56793946418919
C            6.36823608506108       -1.09333619003444       -0.12050741021842
C            7.42397258732433       -0.14882847380677       -0.12966811253996
C            7.22418023806150        1.22080799364955        0.24542890684076
C            8.22770317914284        2.13680141001358        0.20353958584036
C            9.54417986611454        1.75926887264116       -0.16282992269710
N           10.56728893243984        2.68247131942505       -0.18211505702090
C           10.49065098704392        3.96887361776785       -0.69244048056205
C            9.44616764890245        4.59447366523276       -1.36008205139218
C            9.64558940298111        5.88890087196579       -1.80799766319578
C           10.85905854644142        6.54528436374916       -1.61154450491840
C           11.91883854063295        5.91309050788736       -0.98388882941158
C           11.74218210811695        4.61519581086608       -0.52868682629622
C           12.61195144697894        3.66655008171752        0.11159485863424
C           13.92853500144271        3.72244050387891        0.54334093861839
C           14.46465743744153        2.61630009525664        1.18033661504698
C           13.69639344684834        1.47619586804815        1.40810261503375
C           12.38123464215648        1.39728269040266        0.98366495061982
C           11.84898564420945        2.48737247246927        0.30802039892887
C            9.77578072521345        0.40433420916909       -0.50929781688448
C            8.75929079742845       -0.49827922533233       -0.51850230300738
C            6.46251355637712       -2.34822342567069       -0.79447171980063
C            5.43106208456875       -3.24507285515970       -0.80037511301288
C            3.16780573620284       -5.00025231002901       -1.21926619916584
C            2.93390768542192       -4.78952679288358       -2.56116184958124
C            3.02698749321697       -5.86883258093289       -3.43078568650740
C            3.34612618740149       -7.13444870441939       -2.96152153161522
C            3.57634464314426       -7.35335183253718       -1.61274354728595
C            3.48395818791451       -6.28038113036257       -0.74020608732934
C            3.65911242792167       -6.20621415267127        0.70051346426874
C            3.98308835621228       -7.18314171105306        1.62865311298349
C            4.06923856700893       -6.82852968657337        2.96515672019763
C            3.83843527300473       -5.52079659041107        3.36919619413848
C            3.52076744884504       -4.53596175094357        2.44420307118084
C            3.42450102124564       -4.88534068568645        1.11312476489478
C            0.71353010875753       -3.94376213929507        0.70479333696217
C           -0.55293809920592       -3.39113025577042        0.70188682045547
C           -3.31553390000848       -2.43594968740264       -0.03329520719762
C           -4.56219208806345       -1.81646588441124        0.00460682457458
H           -7.17956830367986        0.93921367809417       -1.79833162045877
H           -7.25292920607353        1.67187442414640       -4.15103262396940
H           -9.41894014133067        1.85846835598816       -5.31936873707188
H          -11.51323387235580        1.29794147392606       -4.13853459943849
H          -11.42158548897656        0.53379607895870       -1.77393669705969
H           -9.84617154051063        2.87934240221726        0.03864208988997
H           -9.25770016400062        4.74364008422428        1.57222188450307
H           -7.81072471849156        4.30654545007020        3.52377319840332
H           -6.96963885565603        2.03382139995840        3.95510517259767
H           -7.55552544969956        0.18547731259655        2.42104199626137
H           -9.72489125076587       -2.63918374090192        0.12160986875438
H           -8.31644577896700       -4.65992518576320        0.02770055362593
H           -5.84377957691119       -4.45507801307031       -0.04744523045663
H           -4.41053900326370        4.62552333446697        1.42864128744202
H           -4.87299081099002        5.30896144901017        3.76375829621753
H           -4.71075476268018        3.64828111408121        5.58314534461976
H           -4.09072370097646        1.31557871475611        5.07393255391516
H           -3.63094659777309        0.64173069363917        2.74044727471784
H           -6.37314602333514        2.80959605100258        0.38567506243205
H           -7.85492873393674        3.97779574136645       -1.20499656848167
H           -6.97492779226225        4.76231813337167       -3.36916465414299
H           -4.60521664973502        4.37834243020934       -3.95381247219095
H           -3.11307474678473        3.23647125078477       -2.32752773222921
H           -1.42190553516084        0.36801787759803        0.06551889465021
H           -0.01624721132433       -0.83193130960225       -1.42911823110656
H            2.22848047688429       -1.81135963601349       -1.42326270694080
H            3.21731424024473       -1.54865832217648        1.11632600866992
H            5.02179920873518        0.04922782256142        1.14582161740923
H            6.24265786600446        1.54570303120934        0.55042899083144
H            8.04629061391273        3.15484362766502        0.51457995158173
H            8.51204561533112        4.08767918234621       -1.54486901140899
H            8.84625156614158        6.39672136561068       -2.32629185866950
H           10.97643036599100        7.55681373032135       -1.97071839522740
H           12.86624203014891        6.41434977454682       -0.85786148672575
H           14.51781128931133        4.61391508798268        0.39230199047526
H           15.48876979287895        2.64025313923845        1.52180493710021
H           14.13253312718930        0.63961717001367        1.93284203783877
H           11.78892360598392        0.52041199369335        1.19288637956743
H           10.76391241567916        0.11217277125518       -0.83217241665095
H            8.97384214268582       -1.51343421192977       -0.81050728947605
H            7.35153387583862       -2.58532850413683       -1.35653976331890
H            5.53906165610954       -4.17611084511124       -1.33843356228449
H            2.68323252887395       -3.80727339173751       -2.93332588723025
H            2.84740343558149       -5.71961248536897       -4.48565539133241
H            3.41405154391216       -7.95899002845810       -3.65664608234528
H            3.82167572383323       -8.34043429707700       -1.24965510222808
H            4.16416844903137       -8.20123005832373        1.31701169904829
H            4.31928886541110       -7.57755698156931        3.70268752387025
H            3.90740030748262       -5.26540906151536        4.41671423071379
H            3.34418480196099       -3.51999998969022        2.76482971727890
H            0.91045569782803       -4.82059340553588        1.30447504577088
H           -1.32759536977344       -3.83238368316848        1.31195923269846
H           -3.24647612861288       -3.51074098875895       -0.08838369168717

          :  Hamiltonian                  GFN2-xTB          :
         :: gradient norm              0.000027176268 Eh/a0 ::
         :: HOMO-LUMO gap              0.065159817762 eV    ::
         :: SCC energy              -220.460927259206 Eh    ::
         :: -> dispersion             -0.219760746372 Eh    ::
         :: -> Gsolv                  -0.094112908092 Eh    ::
         :: repulsion energy           3.955169110837 Eh    ::

    * Orbital Energies and Occupations

         #    Occupation            Energy/Eh            Energy/eV
      -------------------------------------------------------------
         1        2.0000           -0.7460821             -20.3019
       ...           ...                  ...                  ...
       190        2.0000           -0.4060263             -11.0485
       191        2.0000           -0.4055008             -11.0342
       192        2.0000           -0.4050477             -11.0219
       193        2.0000           -0.4041553             -10.9976
       194        2.0000           -0.3988803             -10.8541
       195        2.0000           -0.3968936             -10.8000
       196        2.0000           -0.3935431             -10.7089
       197        2.0000           -0.3902186             -10.6184
       198        2.0000           -0.3876571             -10.5487
       199        2.0000           -0.3824519             -10.4070
       200        1.9997           -0.3795653             -10.3285
       201        1.0003           -0.3640310              -9.9058
       202        0.7791           -0.2690278              -7.3206 (HOMO)
       203        0.2208           -0.2666327              -7.2554 (LUMO)
       204        0.0001           -0.2589325              -7.0459
       205        0.0000           -0.2556922              -6.9577
       206        0.0000           -0.2531612              -6.8889
       207                         -0.2486326              -6.7656
       208                         -0.2473233              -6.7300
       209                         -0.2448883              -6.6638
       210                         -0.2433945              -6.6231
       211                         -0.2368869              -6.4460
       212                         -0.2360897              -6.4243
       213                         -0.2350495              -6.3960
       ...                                ...                  ...
       403                          1.1919247              32.4339
      -------------------------------------------------------------
                  HL-Gap            0.0023950 Eh            0.0652 eV

     #   Z          covCN         q      C6AA      α(0)
     1   8 O        0.808    -0.401    21.726     6.248
     2  15 P        4.076     0.051   157.991    22.579
     3   6 C        2.921     0.012    27.748     8.638
     4   6 C        2.980    -0.024    28.592     8.771
     5   6 C        2.920    -0.026    28.651     8.778
     6   6 C        2.920    -0.024    28.599     8.770
     7   6 C        2.918    -0.027    28.680     8.782
     8   6 C        3.020    -0.020    28.484     8.754
     9   6 C        2.921     0.019    27.578     8.612
    10   6 C        3.020    -0.019    28.451     8.750
    11   6 C        2.919    -0.025    28.634     8.775
    12   6 C        2.921    -0.025    28.617     8.773
    13   6 C        2.920    -0.027    28.664     8.780
    14   6 C        2.984    -0.016    28.409     8.743
    15   6 C        2.907    -0.018    28.451     8.746
    16   6 C        3.046    -0.033    28.774     8.798
    17   6 C        2.917    -0.038    28.937     8.821
    18   6 C        2.912    -0.038    28.954     8.824
    19   6 C        3.056    -0.025    28.571     8.766
    20   6 C        3.122     0.130    24.991     8.187
    21   8 O        1.714    -0.233    17.857     5.705
    22   6 C        3.121     0.127    25.049     8.197
    23   6 C        2.906    -0.019    28.486     8.751
    24  15 P        4.079     0.055   157.810    22.566
    25   8 O        0.808    -0.404    21.787     6.257
    26   6 C        2.921     0.015    27.674     8.627
    27   6 C        3.012    -0.019    28.454     8.750
    28   6 C        2.919    -0.025    28.631     8.775
    29   6 C        2.920    -0.024    28.607     8.771
    30   6 C        2.920    -0.026    28.651     8.778
    31   6 C        2.986    -0.021    28.517     8.760
    32   6 C        2.921     0.014    27.690     8.629
    33   6 C        2.975    -0.020    28.501     8.757
    34   6 C        2.920    -0.024    28.614     8.772
    35   6 C        2.920    -0.023    28.580     8.767
    36   6 C        2.919    -0.027    28.680     8.782
    37   6 C        3.032    -0.020    28.465     8.751
    38   6 C        3.056    -0.037    28.867     8.811
    39   6 C        2.974     0.004    27.932     8.669
    40   6 C        2.977     0.008    27.830     8.653
    41   6 C        2.924    -0.034    28.841     8.807
    42   6 C        2.922    -0.033    28.813     8.803
    43   6 C        2.978     0.016    27.643     8.624
    44   6 C        3.946     0.011    20.325     6.406
    45   6 C        2.982     0.013    27.728     8.638
    46   6 C        2.914    -0.033    28.830     8.805
    47   6 C        2.917    -0.038    28.948     8.823
    48   6 C        2.966     0.006    27.890     8.662
    49   6 C        2.966     0.005    27.900     8.664
    50   6 C        2.915    -0.036    28.905     8.816
    51   6 C        2.910    -0.041    29.021     8.834
    52   6 C        2.910     0.043    27.043     8.527
    53   7 N        2.795     0.008    21.109     6.824
    54   6 C        3.067     0.042    26.992     8.519
    55   6 C        2.909    -0.039    28.973     8.826
    56   6 C        2.922    -0.034    28.836     8.806
    57   6 C        2.919    -0.031    28.778     8.797
    58   6 C        2.911    -0.029    28.734     8.790
    59   6 C        3.061    -0.011    28.234     8.714
    60   6 C        3.061    -0.011    28.232     8.713
    61   6 C        2.911    -0.029    28.734     8.790
    62   6 C        2.919    -0.031    28.780     8.797
    63   6 C        2.922    -0.034    28.839     8.806
    64   6 C        2.909    -0.039    28.976     8.827
    65   6 C        3.067     0.042    26.992     8.519
    66   6 C        2.910    -0.041    29.023     8.834
    67   6 C        2.915    -0.037    28.909     8.817
    68   6 C        2.917    -0.038    28.951     8.823
    69   6 C        2.913    -0.035    28.876     8.812
    70   6 C        3.055     0.005    27.866     8.657
    71   6 C        2.914    -0.034    28.845     8.807
    72   6 C        2.922    -0.033    28.818     8.803
    73   6 C        2.920    -0.033    28.827     8.805
    74   6 C        2.914    -0.035    28.871     8.811
    75   6 C        3.034     0.001    27.980     8.676
    76   6 C        3.033     0.000    27.985     8.677
    77   6 C        2.914    -0.035    28.862     8.810
    78   6 C        2.920    -0.033    28.834     8.806
    79   6 C        2.922    -0.033    28.822     8.804
    80   6 C        2.914    -0.034    28.835     8.805
    81   6 C        3.060     0.005    27.840     8.653
    82   6 C        2.922    -0.036    28.890     8.814
    83   6 C        2.924    -0.035    28.860     8.810
    84   6 C        2.917    -0.044    29.088     8.844
    85   6 C        3.053    -0.026    28.595     8.770
    86   1 H        0.926     0.038     2.473     2.459
    87   1 H        0.926     0.041     2.438     2.442
    88   1 H        0.926     0.048     2.344     2.394
    89   1 H        0.926     0.046     2.370     2.407
    90   1 H        0.925     0.050     2.314     2.379
    91   1 H        0.925     0.038     2.481     2.463
    92   1 H        0.926     0.047     2.355     2.400
    93   1 H        0.926     0.048     2.350     2.397
    94   1 H        0.926     0.041     2.433     2.439
    95   1 H        0.925     0.030     2.582     2.513
    96   1 H        0.926     0.053     2.282     2.362
    97   1 H        0.926     0.046     2.371     2.408
    98   1 H        0.926     0.048     2.351     2.398
    99   1 H        0.925     0.037     2.484     2.465
   100   1 H        0.926     0.047     2.356     2.400
   101   1 H        0.926     0.049     2.337     2.390
   102   1 H        0.926     0.044     2.396     2.421
   103   1 H        0.925     0.031     2.570     2.507
   104   1 H        0.926     0.038     2.481     2.463
   105   1 H        0.926     0.040     2.449     2.447
   106   1 H        0.926     0.047     2.355     2.400
   107   1 H        0.926     0.046     2.373     2.409
   108   1 H        0.925     0.048     2.345     2.395
   109   1 H        0.926     0.058     2.222     2.331
   110   1 H        0.926     0.034     2.534     2.489
   111   1 H        0.926     0.036     2.499     2.472
   112   1 H        0.926     0.030     2.587     2.515
   113   1 H        0.926     0.035     2.517     2.481
   114   1 H        0.926     0.041     2.433     2.439
   115   1 H        0.926     0.042     2.419     2.432
   116   1 H        0.926     0.045     2.380     2.413
   117   1 H        0.926     0.040     2.444     2.445
   118   1 H        0.926     0.040     2.445     2.445
   119   1 H        0.926     0.042     2.417     2.431
   120   1 H        0.926     0.042     2.418     2.432
   121   1 H        0.926     0.040     2.444     2.445
   122   1 H        0.926     0.041     2.440     2.443
   123   1 H        0.926     0.046     2.376     2.410
   124   1 H        0.926     0.043     2.410     2.427
   125   1 H        0.926     0.042     2.425     2.435
   126   1 H        0.926     0.036     2.508     2.477
   127   1 H        0.926     0.029     2.605     2.524
   128   1 H        0.926     0.031     2.571     2.507
   129   1 H        0.926     0.032     2.554     2.499
   130   1 H        0.926     0.032     2.552     2.498
   131   1 H        0.926     0.034     2.537     2.491
   132   1 H        0.926     0.034     2.530     2.487
   133   1 H        0.926     0.033     2.547     2.496
   134   1 H        0.926     0.033     2.549     2.497
   135   1 H        0.926     0.031     2.567     2.505
   136   1 H        0.926     0.034     2.534     2.489
   137   1 H        0.926     0.035     2.522     2.483
   138   1 H        0.926     0.048     2.350     2.397

molecular dipole:
                 x           y           z       tot (Debye)
 q only:        6.779       1.132      -0.413
   full:        6.635       1.025      -0.416      17.096

 projected vibrational frequencies (cm⁻¹)
eigval :       -0.00    -0.00     0.00     0.00     0.00     0.00
eigval :        4.29     5.21    10.98    12.88    16.52    20.68
eigval :       23.05    23.67    27.02    29.49    30.64    33.50
eigval :       34.96    39.40    40.80    43.01    49.46    53.91
eigval :       57.64    62.78    64.49    67.73    77.89    79.53
eigval :       84.88    87.81    88.99    90.07    94.61    97.11
eigval :      102.22   107.26   110.76   126.14   137.29   144.60
eigval :      145.72   150.52   152.85   154.65   155.99   164.94
eigval :      174.07   195.22   202.31   205.88   212.76   218.15
eigval :      227.27   229.96   235.43   238.57   240.89   255.23
eigval :      256.57   257.66   262.33   270.53   272.24   275.25
eigval :      281.07   291.88   297.10   300.23   313.15   326.02
eigval :      334.63   336.82   353.77   361.93   363.91   366.54
eigval :      369.84   370.89   372.10   381.35   382.80   389.26
eigval :      391.63   394.30   409.40   412.77   414.57   417.05
eigval :      419.10   428.28   434.10   437.20   438.15   445.52
eigval :      454.11   456.76   465.90   473.53   480.48   481.61
eigval :      495.91   499.90   504.30   511.46   512.04   515.76
eigval :      524.56   529.33   537.92   542.28   547.61   548.23
eigval :      569.39   571.79   582.89   584.70   585.17   585.28
eigval :      586.15   586.76   590.64   592.68   594.15   595.02
eigval :      608.28   612.36   619.60   634.42   645.05   657.22
eigval :      657.45   658.72   660.31   661.17   670.18   671.71
eigval :      674.89   675.46   682.89   689.68   692.16   698.35
eigval :      699.12   704.74   714.77   718.90   720.15   725.99
eigval :      738.63   740.97   741.64   743.42   748.02   752.85
eigval :      754.29   762.24   766.20   769.94   782.05   785.20
eigval :      787.32   788.68   799.14   800.95   810.77   812.44
eigval :      834.41   839.19   859.79   866.19   867.29   867.99
eigval :      869.62   875.42   875.82   877.85   878.85   880.08
eigval :      880.94   882.77   891.65   892.14   897.12   898.04
eigval :      899.25   901.94   902.03   902.39   904.17   904.94
eigval :      907.25   909.04   909.50   911.10   911.28   912.91
eigval :      913.36   918.13   922.98   923.23   924.17   925.27
eigval :      926.04   926.79   926.96   928.49   930.52   931.57
eigval :      932.99   933.48   934.77   935.63   938.69   960.74
eigval :      971.60   972.22   975.31   976.13   985.43  1002.31
eigval :     1005.24  1006.94  1015.86  1057.81  1066.03  1069.55
eigval :     1074.38  1076.36  1076.39  1077.39  1077.78  1079.97
eigval :     1092.28  1101.40  1104.51  1108.21  1111.51  1112.16
eigval :     1112.38  1113.29  1119.49  1121.51  1127.29  1128.71
eigval :     1132.49  1136.95  1142.23  1144.98  1152.67  1153.11
eigval :     1164.36  1170.55  1171.12  1171.67  1174.62  1175.25
eigval :     1176.19  1176.29  1178.38  1178.52  1180.50  1182.55
eigval :     1187.73  1188.25  1189.91  1190.20  1195.37  1202.00
eigval :     1204.26  1206.87  1208.19  1211.54  1213.46  1219.91
eigval :     1220.45  1228.59  1232.39  1237.99  1238.83  1249.09
eigval :     1253.27  1262.93  1264.35  1267.93  1269.36  1270.16
eigval :     1270.96  1272.20  1275.18  1281.66  1284.22  1301.17
eigval :     1309.41  1317.35  1317.83  1319.16  1322.14  1322.53
eigval :     1323.29  1324.96  1328.67  1333.77  1342.62  1355.37
eigval :     1358.77  1361.42  1362.91  1367.62  1372.02  1378.57
eigval :     1396.32  1401.90  1402.96  1403.62  1420.41  1421.17
eigval :     1421.69  1423.03  1424.22  1426.49  1433.07  1437.59
eigval :     1448.31  1450.35  1451.25  1453.28  1453.73  1455.30
eigval :     1456.78  1458.62  1460.89  1466.70  1473.50  1476.49
eigval :     1489.34  1499.43  1537.23  1541.25  1543.67  1550.19
eigval :     1550.70  1556.13  1565.38  1566.86  1576.78  1577.79
eigval :     1578.86  1579.48  1580.17  1581.72  1583.54  1584.78
eigval :     1585.67  1586.24  1586.53  1590.77  1592.99  1598.21
eigval :     1600.28  3045.65  3052.66  3055.80  3062.22  3065.87
eigval :     3067.81  3069.39  3070.07  3070.44  3071.96  3073.53
eigval :     3074.65  3074.96  3075.95  3076.20  3076.79  3077.54
eigval :     3078.13  3079.07  3079.31  3080.37  3080.83  3081.48
eigval :     3082.55  3083.23  3083.26  3084.02  3084.18  3084.90
eigval :     3085.78  3086.80  3087.23  3087.25  3088.22  3088.53
eigval :     3089.73  3089.91  3090.62  3091.08  3091.27  3094.80
eigval :     3095.99  3096.20  3098.73  3098.93  3100.03  3100.27
eigval :     3101.03  3102.20  3102.63  3103.12  3107.12  3109.31

   temp. (K)  partition function   enthalpy   heat capacity  entropy
                                   cal/mol     cal/K/mol   cal/K/mol   J/K/mol
 298.15  VIB  0.152E+36            42493.037    260.672    268.938
         ROT  0.676E+09              888.752      2.981     43.385
         INT  0.103E+45            43381.789    263.653    312.324
         TR   0.366E+29             1481.254      4.968     46.915
         TOT                       44863.0434   268.6215   359.2381  1503.0522

       T/K    H(0)-H(T)+PV         H(T)/Eh          T*S/Eh         G(T)/Eh
   ------------------------------------------------------------------------
    298.15    0.714938E-01    0.111784E+01    0.170686E+00    0.947150E+00
   ------------------------------------------------------------------------

         :::::::::::::::::::::::::::::::::::::::::::::::::::::
         ::                  THERMODYNAMIC                  ::
         :::::::::::::::::::::::::::::::::::::::::::::::::::::
         :: total free energy        -215.558608122544 Eh   ::
         ::.................................................::
         :: total energy             -216.505758146280 Eh   ::
         :: zero point energy           1.046341823622 Eh   ::
         :: G(RRHO) w/o ZPVE           -0.099191799886 Eh   ::
         :: G(RRHO) contrib.            0.947150023736 Eh   ::
         :::::::::::::::::::::::::::::::::::::::::::::::::::::

           -------------------------------------------------
          | TOTAL ENERGY             -216.505758146280 Eh   |
          | TOTAL ENTHALPY           -215.387922512282 Eh   |
          | TOTAL FREE ENERGY        -215.558608122544 Eh   |
          | GRADIENT NORM               0.000027679913 Eh/α |
          | HOMO-LUMO GAP               0.065172559426 eV   |
           -------------------------------------------------

 * finished run on 2025/07/17 at 11:50:33.176
