   * xtb version 6.7.1 (edcfbbe) compiled by 'albert@albert-system' on 2024-07-22

   ID    Z sym.   atoms
    1    8 O      1, 21, 25
    2   15 P      2, 24
    3    6 C      3-20, 22, 23, 26-52, 54-85
    4    7 N      53
    5    1 H      86-138

          program call               : xtb data2507/toluene/9PhCzFDBFDPO/9PhCzFDBFDPO_toluene_T1_crest.xyz --gfn 2 --uhf 2 --gbsa toluene --ohess vtight --parallel 40 --molden --ceasefiles --namespace data2507/toluene/9PhCzFDBFDPO/9PhCzFDBFDPO_toluene_T1_finalOpt
      * Solvation model:               GBSA
        Solvent                        toluene
        Solvent mass                       9.2140E+01 g/mol
          :  Hamiltonian                  GFN2-xTB          :
 * total energy  :  -216.5053549 Eh     change       -0.4511884E-07 Eh
 * total energy  :  -216.5056213 Eh     change       -0.2663538E-03 Eh
 * total energy  :  -216.5057688 Eh     change       -0.1475482E-03 Eh
 * total energy  :  -216.5058152 Eh     change       -0.4638413E-04 Eh
 * total energy  :  -216.5058606 Eh     change       -0.4536334E-04 Eh
 * total energy  :  -216.5059032 Eh     change       -0.4260671E-04 Eh
 * total energy  :  -216.5059150 Eh     change       -0.1179286E-04 Eh
 * total energy  :  -216.5059321 Eh     change       -0.1712247E-04 Eh
 * total energy  :  -216.5059390 Eh     change       -0.6835540E-05 Eh
 * total energy  :  -216.5059669 Eh     change       -0.2792060E-04 Eh
 * total energy  :  -216.5061216 Eh     change       -0.3394950E-06 Eh
 * total energy  :  -216.5061220 Eh     change       -0.3492031E-06 Eh
 * total energy  :  -216.5061222 Eh     change       -0.2708314E-06 Eh
 * total energy  :  -216.5061225 Eh     change       -0.2157299E-06 Eh
 * total energy  :  -216.5061227 Eh     change       -0.2219276E-06 Eh
 * total energy  :  -216.5061229 Eh     change       -0.2462447E-06 Eh
 * total energy  :  -216.5061232 Eh     change       -0.2752155E-06 Eh
 * total energy  :  -216.5061235 Eh     change       -0.2728175E-06 Eh
 * total energy  :  -216.5061235 Eh     change       -0.1939554E-08 Eh
   *** GEOMETRY OPTIMIZATION CONVERGED AFTER 68 ITERATIONS ***

 final structure:
================
138
 xtb: 6.7.1 (edcfbbe)
O          -10.67872530283403       -0.43593807661490        0.57796811577171
P           -9.34856244779461       -0.01611534059300        0.09182410383084
C           -9.36350260276543        0.41807832194377       -1.67415435633828
C           -8.19595852357941        0.66071732700095       -2.38665970984982
C           -8.26524599119816        0.93991941459124       -3.73894349530657
C           -9.49409185096920        0.98146044529477       -4.38024761993445
C          -10.65933014487368        0.73738636849625       -3.67066124541932
C          -10.59337005762279        0.45057493272255       -2.31883190561319
C           -8.75748296930036        1.43981691030329        1.01048822015783
C           -9.26420815245141        2.68065628969526        0.64967859445480
C           -8.94715463906904        3.80055823831834        1.39751664348667
C           -8.13458134342700        3.67513607010997        2.51327643442245
C           -7.65067079360147        2.43233159665172        2.88814226800281
C           -7.96351756428337        1.31105737946667        2.13943498937223
C           -8.11270637984498       -1.33648653775640        0.24537384853883
C           -8.62476102278934       -2.63206336882802        0.35350298297808
C           -7.80264738474818       -3.74875231106616        0.40615559407890
C           -6.42899937102085       -3.61871303355393        0.34707679371015
C           -5.89119137984367       -2.33568292695775        0.24534904477264
C           -6.73268926881135       -1.20634558869282        0.19385062556972
O           -6.00734803398896       -0.05019513451530        0.10760587213141
C           -4.69401156141713       -0.42131815354272        0.10347610006159
C           -3.57777070070858        0.39963797140759        0.04279547757014
P           -3.54459487274969        2.21566473767542        0.02003553258058
O           -2.18544738070873        2.71805886861223       -0.27121504985818
C           -4.09527780955003        2.77681258083552        1.66564584486664
C           -4.43952615013128        4.11355572778555        1.81568568428083
C           -4.69761112317633        4.62340506571975        3.07484135168770
C           -4.60144132434648        3.80093886320030        4.18663868584298
C           -4.24953235434135        2.46911379053804        4.03824584120824
C           -3.99203554695045        1.95576096574365        2.77813456944354
C           -4.75907511861108        2.81806465201687       -1.18967431345324
C           -6.09457209956727        3.02976885390616       -0.87820978516360
C           -6.94142799323462        3.55816695444202       -1.83630061437128
C           -6.46344298763871        3.86252556840200       -3.10090271057368
C           -5.13222232202643        3.63764623176153       -3.41586378393283
C           -4.27944324984356        3.11946443219013       -2.45848336240727
C           -2.32944568473760       -0.22228421289787        0.03525987561919
C           -2.17078926713708       -1.60825505816247        0.10232452042618
C           -0.82164663455711       -2.19464896630322        0.10709083884000
C            0.18641969388626       -1.67679887738242       -0.70321096288368
C            1.45562282011604       -2.22004592580654       -0.68541936721353
C            1.76097704626906       -3.29001240853395        0.14955585825834
C            3.14321838308367       -3.90615444680682        0.12470059607657
C            4.24863868101271       -2.88726446446196        0.00951918345279
C            4.15748756633589       -1.64776639951763        0.66468452234500
C            5.18534075452932       -0.74846645592045        0.63357110339348
C            6.40239150434042       -1.01780478689010       -0.06240150403466
C            7.46978654297313       -0.08859892697972       -0.10360406692338
C            7.54153962446930        1.03463880423001        0.78584954114359
C            8.56103830660742        1.93222345432930        0.73961716754772
C            9.62366657085798        1.78459515330362       -0.18733016241733
N           10.66159186140118        2.68917200374522       -0.22767942286102
C           10.54193140575189        4.06736694979155       -0.13917857594998
C            9.39955816956400        4.85440050693451       -0.07868700026759
C            9.56001557439275        6.22844546446125       -0.03076201636346
C           10.82516092820477        6.81215505648643       -0.05873557422593
C           11.96676969651918        6.03595492001744       -0.16284787964050
C           11.82969363511909        4.65688847377395       -0.21384036271169
C           12.76688554021838        3.57662786663590       -0.35646270473016
C           14.14904512810772        3.52221988733352       -0.45687279963879
C           14.75939326744646        2.28243088195422       -0.53986523387464
C           14.00947241585903        1.10853757516941       -0.49824222902540
C           12.62898053424815        1.13907155509945       -0.40012586225296
C           12.00639910141354        2.37949882765574       -0.35937961832966
C            9.58276681200316        0.67690559203938       -1.07136283596947
C            8.55187186000388       -0.20819000480131       -1.03783892393975
C            6.47737574447034       -2.28997224108435       -0.70589501387582
C            5.44677383650874       -3.18613242790468       -0.65763883294235
C            3.18384973011900       -4.96004505809533       -0.96741117243349
C            2.93425379752911       -4.81152663327831       -2.31483827723652
C            3.01978485911737       -5.92923280544236       -3.13522215220093
C            3.34707098478992       -7.17154714755263       -2.61237136466881
C            3.59356493207542       -7.32802577369968       -1.25779466914974
C            3.50930004617885       -6.21633440020425       -0.43423828379358
C            3.70364577851555       -6.07568021386021        0.99903429471643
C            4.04435427242006       -7.00789304584269        1.96639060775519
C            4.14865977815966       -6.59173860958441        3.28370157274573
C            3.91996589943334       -5.26719377053295        3.63027750538369
C            3.58589637712352       -4.32693253543518        2.66565900035817
C            3.47102353279735       -4.73773989058419        1.35367093489488
C            0.75363920751745       -3.81923786276916        0.94598553267461
C           -0.51779360250789       -3.27866137433180        0.92690108770541
C           -3.29716865129532       -2.41785246203499        0.18035373807694
C           -4.55569728905131       -1.82231166071825        0.17813965758386
H           -7.24372706791543        0.63754704553182       -1.87950554673891
H           -7.35716099216337        1.12802238904311       -4.29241369169853
H           -9.54254949825218        1.20064755260874       -5.43672728146570
H          -11.61676414782196        0.76663733892695       -4.17002567558454
H          -11.48497061116744        0.24570410760945       -1.74199944841399
H           -9.91013661771611        2.74995865171300       -0.21658471877081
H           -9.33457199467530        4.76831507964030        1.11414970957196
H           -7.88441024268317        4.54616683695266        3.09968363291475
H           -7.02899304770022        2.33697054339917        3.76526993832410
H           -7.59926660328383        0.33443477701178        2.42933642202288
H           -9.69877530728596       -2.73764525950739        0.40647437867516
H           -8.24797224094240       -4.72861571780054        0.49188684430926
H           -5.78046493402220       -4.47960398346845        0.38246484875240
H           -4.49365528044714        4.74507793744342        0.93823506511524
H           -4.96408732460181        5.66368519520868        3.19093521398296
H           -4.79714825160191        4.19998506261948        5.17120693979420
H           -4.16849200153583        1.82922768963261        4.90535253532544
H           -3.70654431562002        0.91946448836052        2.65363243570545
H           -6.46053673862694        2.78627677251489        0.10825077845493
H           -7.97822626831047        3.73247200070188       -1.59289541480214
H           -7.13080299615950        4.27748893412390       -3.84173064622334
H           -4.75857026588619        3.87328971401074       -4.40176806432124
H           -3.23085000865212        2.95735202556549       -2.66856159473647
H           -1.46191695565676        0.42066343500170       -0.00051947050606
H           -0.03255049515600       -0.85018508565776       -1.36330766189393
H            2.22316809176880       -1.80029166111671       -1.31992592101188
H            3.24801335204002       -1.39719891508187        1.19233026482812
H            5.05136726946003        0.20186356880277        1.12532019618036
H            6.79365621364802        1.14495600250518        1.55407533557571
H            8.61303538079540        2.73142152831199        1.46405745835536
H            8.41320479748577        4.41796520397720       -0.08775967035153
H            8.68592765631919        6.85994628197288        0.02095007176861
H           10.91154114432103        7.88760931898335       -0.01542556154019
H           12.94353376887576        6.49232414649092       -0.21212796470169
H           14.73459047720878        4.42881492214006       -0.46166252010323
H           15.83436753163979        2.22029618631157       -0.62089324230384
H           14.51485231154404        0.15524066679351       -0.53508280739703
H           12.06326626469404        0.22283837101915       -0.33745890736419
H           10.34825581958504        0.58891464208794       -1.82793980555827
H            8.52279499496796       -0.99235695594930       -1.77669571052691
H            7.38285342268054       -2.57545508179445       -1.21696020008560
H            5.55262498190162       -4.14538062299113       -1.14420273848944
H            2.67712554999856       -3.84801431725603       -2.72894942469790
H            2.82791880170954       -5.82843478493469       -4.19364869586094
H            3.40835423794891       -8.02714571660918       -3.26957230077164
H            3.84520968161698       -8.29713195104923       -0.85298881678581
H            4.22439023583195       -8.03874585072927        1.69934317479865
H            4.41221253428483       -7.30501221122064        4.05134377754868
H            4.00355528362171       -4.96362859110106        4.66376464711666
H            3.41113156977382       -3.29750696421593        2.94116336819760
H            0.96608880703413       -4.65705083173563        1.59409662031999
H           -1.27916254074711       -3.68858636776839        1.57428605559793
H           -3.20781487010986       -3.49178379326117        0.21953718855166

          :  Hamiltonian                  GFN2-xTB          :
         :: gradient norm              0.000043648633 Eh/a0 ::
         :: HOMO-LUMO gap              0.066843748115 eV    ::
         :: SCC energy              -220.461434225478 Eh    ::
         :: -> dispersion             -0.219812914496 Eh    ::
         :: -> Gsolv                  -0.093963487281 Eh    ::
         :: repulsion energy           3.955310751251 Eh    ::

    * Orbital Energies and Occupations

         #    Occupation            Energy/Eh            Energy/eV
      -------------------------------------------------------------
         1        2.0000           -0.7462301             -20.3060
       ...           ...                  ...                  ...
       190        2.0000           -0.4061786             -11.0527
       191        2.0000           -0.4054435             -11.0327
       192        2.0000           -0.4051278             -11.0241
       193        2.0000           -0.4042354             -10.9998
       194        2.0000           -0.3990522             -10.8588
       195        2.0000           -0.3969385             -10.8012
       196        2.0000           -0.3937478             -10.7144
       197        2.0000           -0.3898630             -10.6087
       198        2.0000           -0.3880245             -10.5587
       199        2.0000           -0.3825571             -10.4099
       200        1.9998           -0.3796147             -10.3298
       201        1.0002           -0.3635383              -9.8924
       202        0.7845           -0.2692336              -7.3262 (HOMO)
       203        0.2154           -0.2667781              -7.2594 (LUMO)
       204        0.0001           -0.2591647              -7.0522
       205        0.0000           -0.2553663              -6.9489
       206        0.0000           -0.2532249              -6.8906
       207                         -0.2488672              -6.7720
       208                         -0.2473428              -6.7305
       209                         -0.2449735              -6.6661
       210                         -0.2434255              -6.6239
       211                         -0.2369530              -6.4478
       212                         -0.2361688              -6.4265
       213                         -0.2351230              -6.3980
       ...                                ...                  ...
       403                          1.1909216              32.4066
      -------------------------------------------------------------
                  HL-Gap            0.0024556 Eh            0.0668 eV

     #   Z          covCN         q      C6AA      α(0)
     1   8 O        0.808    -0.401    21.723     6.248
     2  15 P        4.076     0.051   157.956    22.577
     3   6 C        2.921     0.012    27.748     8.638
     4   6 C        2.980    -0.024    28.587     8.770
     5   6 C        2.920    -0.026    28.650     8.777
     6   6 C        2.920    -0.024    28.597     8.769
     7   6 C        2.918    -0.027    28.678     8.782
     8   6 C        3.020    -0.020    28.482     8.754
     9   6 C        2.921     0.019    27.580     8.612
    10   6 C        3.019    -0.019    28.454     8.750
    11   6 C        2.919    -0.025    28.633     8.775
    12   6 C        2.921    -0.025    28.618     8.773
    13   6 C        2.920    -0.027    28.665     8.780
    14   6 C        2.985    -0.016    28.406     8.743
    15   6 C        2.907    -0.018    28.449     8.746
    16   6 C        3.047    -0.033    28.768     8.797
    17   6 C        2.917    -0.038    28.935     8.821
    18   6 C        2.912    -0.038    28.948     8.823
    19   6 C        3.056    -0.025    28.567     8.765
    20   6 C        3.122     0.130    24.990     8.187
    21   8 O        1.714    -0.233    17.857     5.706
    22   6 C        3.121     0.127    25.048     8.196
    23   6 C        2.906    -0.019    28.485     8.751
    24  15 P        4.080     0.055   157.813    22.566
    25   8 O        0.808    -0.404    21.786     6.257
    26   6 C        2.921     0.015    27.671     8.626
    27   6 C        3.014    -0.018    28.448     8.749
    28   6 C        2.919    -0.025    28.631     8.775
    29   6 C        2.920    -0.024    28.606     8.771
    30   6 C        2.920    -0.026    28.649     8.777
    31   6 C        2.985    -0.021    28.517     8.760
    32   6 C        2.921     0.014    27.691     8.629
    33   6 C        2.975    -0.020    28.501     8.757
    34   6 C        2.920    -0.024    28.615     8.772
    35   6 C        2.920    -0.023    28.580     8.767
    36   6 C        2.919    -0.027    28.679     8.782
    37   6 C        3.031    -0.020    28.466     8.751
    38   6 C        3.055    -0.037    28.864     8.811
    39   6 C        2.974     0.004    27.931     8.669
    40   6 C        2.977     0.008    27.833     8.654
    41   6 C        2.924    -0.034    28.842     8.807
    42   6 C        2.922    -0.033    28.814     8.803
    43   6 C        2.978     0.016    27.642     8.624
    44   6 C        3.946     0.011    20.325     6.406
    45   6 C        2.982     0.013    27.724     8.637
    46   6 C        2.914    -0.033    28.834     8.805
    47   6 C        2.917    -0.038    28.946     8.823
    48   6 C        2.966     0.005    27.903     8.665
    49   6 C        2.966     0.006    27.895     8.663
    50   6 C        2.915    -0.037    28.910     8.817
    51   6 C        2.910    -0.041    29.023     8.834
    52   6 C        2.910     0.043    27.044     8.527
    53   7 N        2.795     0.009    21.107     6.823
    54   6 C        3.067     0.042    26.999     8.520
    55   6 C        2.909    -0.039    28.976     8.827
    56   6 C        2.922    -0.034    28.843     8.807
    57   6 C        2.919    -0.031    28.782     8.798
    58   6 C        2.911    -0.030    28.738     8.790
    59   6 C        3.061    -0.011    28.239     8.714
    60   6 C        3.061    -0.011    28.238     8.714
    61   6 C        2.911    -0.030    28.738     8.791
    62   6 C        2.919    -0.031    28.784     8.798
    63   6 C        2.922    -0.034    28.846     8.808
    64   6 C        2.909    -0.039    28.979     8.827
    65   6 C        3.066     0.042    26.999     8.520
    66   6 C        2.910    -0.041    29.026     8.834
    67   6 C        2.915    -0.037    28.914     8.818
    68   6 C        2.917    -0.038    28.951     8.823
    69   6 C        2.913    -0.035    28.876     8.812
    70   6 C        3.055     0.005    27.865     8.657
    71   6 C        2.914    -0.034    28.846     8.807
    72   6 C        2.922    -0.033    28.816     8.803
    73   6 C        2.920    -0.033    28.826     8.804
    74   6 C        2.914    -0.035    28.872     8.811
    75   6 C        3.034     0.001    27.978     8.676
    76   6 C        3.033     0.001    27.984     8.677
    77   6 C        2.914    -0.035    28.861     8.809
    78   6 C        2.920    -0.033    28.833     8.806
    79   6 C        2.922    -0.033    28.821     8.804
    80   6 C        2.914    -0.034    28.836     8.806
    81   6 C        3.061     0.006    27.838     8.652
    82   6 C        2.922    -0.036    28.894     8.815
    83   6 C        2.924    -0.035    28.863     8.810
    84   6 C        2.918    -0.044    29.086     8.844
    85   6 C        3.053    -0.026    28.594     8.770
    86   1 H        0.926     0.038     2.480     2.463
    87   1 H        0.926     0.041     2.436     2.441
    88   1 H        0.926     0.048     2.343     2.393
    89   1 H        0.926     0.046     2.368     2.406
    90   1 H        0.925     0.051     2.313     2.378
    91   1 H        0.925     0.038     2.481     2.463
    92   1 H        0.926     0.047     2.355     2.400
    93   1 H        0.926     0.047     2.352     2.398
    94   1 H        0.926     0.041     2.429     2.437
    95   1 H        0.925     0.030     2.580     2.512
    96   1 H        0.926     0.053     2.280     2.361
    97   1 H        0.926     0.046     2.368     2.406
    98   1 H        0.926     0.048     2.347     2.396
    99   1 H        0.925     0.038     2.482     2.464
   100   1 H        0.926     0.047     2.355     2.400
   101   1 H        0.926     0.049     2.335     2.390
   102   1 H        0.926     0.044     2.396     2.420
   103   1 H        0.925     0.031     2.570     2.507
   104   1 H        0.926     0.038     2.482     2.463
   105   1 H        0.926     0.040     2.448     2.447
   106   1 H        0.926     0.047     2.355     2.400
   107   1 H        0.926     0.046     2.374     2.409
   108   1 H        0.925     0.048     2.348     2.396
   109   1 H        0.926     0.058     2.220     2.330
   110   1 H        0.926     0.034     2.534     2.489
   111   1 H        0.926     0.036     2.503     2.474
   112   1 H        0.926     0.030     2.591     2.517
   113   1 H        0.926     0.035     2.518     2.482
   114   1 H        0.926     0.041     2.431     2.438
   115   1 H        0.926     0.043     2.413     2.429
   116   1 H        0.926     0.045     2.381     2.413
   117   1 H        0.926     0.040     2.449     2.447
   118   1 H        0.926     0.040     2.450     2.448
   119   1 H        0.926     0.042     2.421     2.433
   120   1 H        0.926     0.042     2.423     2.434
   121   1 H        0.926     0.040     2.449     2.447
   122   1 H        0.926     0.040     2.444     2.445
   123   1 H        0.926     0.046     2.377     2.411
   124   1 H        0.926     0.043     2.406     2.426
   125   1 H        0.926     0.042     2.423     2.434
   126   1 H        0.926     0.035     2.511     2.478
   127   1 H        0.926     0.028     2.608     2.525
   128   1 H        0.926     0.031     2.569     2.506
   129   1 H        0.926     0.032     2.553     2.499
   130   1 H        0.926     0.032     2.551     2.498
   131   1 H        0.926     0.034     2.536     2.491
   132   1 H        0.926     0.034     2.530     2.487
   133   1 H        0.926     0.033     2.547     2.495
   134   1 H        0.926     0.033     2.547     2.496
   135   1 H        0.926     0.032     2.564     2.504
   136   1 H        0.926     0.034     2.532     2.488
   137   1 H        0.926     0.035     2.519     2.482
   138   1 H        0.926     0.048     2.345     2.395

molecular dipole:
                 x           y           z       tot (Debye)
 q only:        6.657       1.065      -0.455
   full:        6.518       0.957      -0.451      16.784

 projected vibrational frequencies (cm⁻¹)
eigval :       -0.00    -0.00    -0.00    -0.00     0.00     0.00
eigval :        2.85     6.58    10.22    13.66    16.22    18.12
eigval :       19.73    22.16    28.28    29.40    31.10    33.18
eigval :       34.95    36.36    41.70    44.30    50.16    51.78
eigval :       55.40    62.95    66.15    68.26    77.68    80.34
eigval :       82.77    86.43    88.01    89.51    93.45    96.27
eigval :      102.04   110.55   117.54   126.38   133.27   140.08
eigval :      145.50   147.37   150.96   155.35   158.44   167.86
eigval :      174.77   196.82   201.49   207.89   215.28   217.37
eigval :      228.59   231.31   237.64   239.44   241.47   246.67
eigval :      256.55   257.73   269.60   272.84   273.95   275.82
eigval :      280.47   292.56   297.16   300.95   307.40   324.78
eigval :      334.90   336.75   354.20   361.98   365.02   367.29
eigval :      368.49   370.78   376.84   381.04   383.27   388.82
eigval :      394.57   397.02   403.58   410.32   413.23   414.80
eigval :      416.99   429.49   434.76   438.33   442.52   445.62
eigval :      451.82   457.47   465.49   474.08   480.17   481.71
eigval :      495.38   499.82   504.50   511.59   511.89   516.21
eigval :      525.88   531.75   537.78   542.64   548.52   549.54
eigval :      569.41   571.06   582.52   584.86   585.32   585.74
eigval :      586.30   586.64   590.81   592.55   594.51   594.98
eigval :      608.52   611.29   620.16   634.48   645.93   656.12
eigval :      657.79   658.72   660.44   661.20   670.17   672.32
eigval :      675.08   677.35   683.10   689.78   692.29   699.57
eigval :      700.12   706.37   715.00   719.00   720.49   725.48
eigval :      739.85   741.13   743.02   743.75   744.83   752.74
eigval :      753.98   765.62   766.13   773.84   781.46   785.30
eigval :      786.28   788.60   794.61   797.35   808.40   810.80
eigval :      834.58   839.66   859.82   866.46   867.25   868.24
eigval :      869.12   874.77   875.71   876.88   877.43   878.93
eigval :      880.13   880.51   891.76   892.85   895.20   896.75
eigval :      898.67   901.06   901.95   903.44   905.92   906.28
eigval :      906.85   907.13   910.33   910.93   911.69   911.99
eigval :      913.22   918.83   921.25   921.75   923.25   923.55
eigval :      925.26   926.17   926.46   929.26   929.73   932.79
eigval :      933.04   933.31   934.42   935.19   936.73   960.75
eigval :      971.85   972.20   975.46   976.34   985.36  1002.52
eigval :     1005.47  1006.77  1015.75  1058.07  1065.86  1068.03
eigval :     1073.76  1076.43  1076.92  1077.38  1077.69  1079.25
eigval :     1091.58  1101.70  1104.32  1107.53  1111.62  1112.27
eigval :     1113.12  1113.69  1119.80  1121.88  1127.56  1129.16
eigval :     1131.97  1137.02  1141.15  1144.95  1152.10  1152.67
eigval :     1163.47  1170.36  1170.71  1171.20  1172.21  1176.68
eigval :     1177.12  1177.88  1178.52  1179.30  1180.60  1181.86
eigval :     1187.82  1188.92  1189.99  1191.34  1195.54  1201.82
eigval :     1204.62  1207.95  1208.48  1211.41  1213.33  1219.28
eigval :     1220.14  1228.39  1231.85  1237.71  1238.50  1248.40
eigval :     1252.92  1262.21  1264.23  1267.94  1269.34  1270.34
eigval :     1270.83  1272.62  1275.42  1281.52  1283.58  1301.66
eigval :     1309.18  1317.33  1317.97  1319.33  1322.04  1322.64
eigval :     1323.58  1325.19  1329.12  1333.87  1342.85  1355.64
eigval :     1359.50  1361.07  1363.31  1367.33  1372.05  1378.80
eigval :     1396.92  1402.01  1402.84  1403.33  1420.60  1420.88
eigval :     1421.84  1422.98  1424.50  1425.85  1432.93  1439.66
eigval :     1448.31  1450.78  1451.53  1453.11  1454.00  1455.24
eigval :     1457.04  1458.52  1461.75  1466.32  1473.85  1476.88
eigval :     1490.04  1499.22  1538.01  1542.14  1544.43  1550.00
eigval :     1551.53  1556.66  1565.27  1566.97  1576.79  1577.95
eigval :     1578.91  1579.50  1580.33  1581.77  1583.77  1584.77
eigval :     1585.45  1586.41  1586.73  1591.19  1592.95  1598.18
eigval :     1600.58  3048.47  3054.10  3055.86  3057.36  3065.09
eigval :     3067.83  3069.60  3069.84  3070.23  3071.71  3074.29
eigval :     3075.34  3076.08  3076.20  3076.44  3076.76  3077.34
eigval :     3078.36  3079.11  3079.77  3079.79  3080.83  3081.22
eigval :     3081.79  3082.06  3083.04  3083.76  3084.52  3085.08
eigval :     3085.72  3086.41  3087.51  3087.71  3087.76  3089.23
eigval :     3089.95  3090.49  3090.99  3091.08  3092.37  3094.27
eigval :     3095.53  3097.17  3099.17  3100.07  3100.61  3100.78
eigval :     3101.66  3102.18  3102.74  3102.97  3107.71  3109.85

   temp. (K)  partition function   enthalpy   heat capacity  entropy
                                   cal/mol     cal/K/mol   cal/K/mol   J/K/mol
 298.15  VIB  0.263E+36            42497.540    260.573    269.354
         ROT  0.677E+09              888.752      2.981     43.389
         INT  0.178E+45            43386.292    263.554    312.743
         TR   0.366E+29             1481.254      4.968     46.915
         TOT                       44867.5459   268.5219   359.6577  1504.8080

       T/K    H(0)-H(T)+PV         H(T)/Eh          T*S/Eh         G(T)/Eh
   ------------------------------------------------------------------------
    298.15    0.715010E-01    0.111785E+01    0.170885E+00    0.946965E+00
   ------------------------------------------------------------------------

         :::::::::::::::::::::::::::::::::::::::::::::::::::::
         ::                  THERMODYNAMIC                  ::
         :::::::::::::::::::::::::::::::::::::::::::::::::::::
         :: total free energy        -215.559158523754 Eh   ::
         ::.................................................::
         :: total energy             -216.506123476695 Eh   ::
         :: zero point energy           1.046348963200 Eh   ::
         :: G(RRHO) w/o ZPVE           -0.099384010259 Eh   ::
         :: G(RRHO) contrib.            0.946964952941 Eh   ::
         :::::::::::::::::::::::::::::::::::::::::::::::::::::

           -------------------------------------------------
          | TOTAL ENERGY             -216.506123476695 Eh   |
          | TOTAL ENTHALPY           -215.388273527808 Eh   |
          | TOTAL FREE ENERGY        -215.559158523754 Eh   |
          | GRADIENT NORM               0.000043125461 Eh/α |
          | HOMO-LUMO GAP               0.066819753641 eV   |
           -------------------------------------------------

 * finished run on 2025/07/17 at 12:25:34.524
