   * xtb version 6.7.1 (edcfbbe) compiled by 'albert@albert-system' on 2024-07-22

   ID    Z sym.   atoms
    1    8 O      1, 21, 25
    2   15 P      2, 24
    3    6 C      3-20, 22, 23, 26-52, 54-85
    4    7 N      53
    5    1 H      86-138

          program call               : xtb data2507/toluene/9PhCzFDBFDPO/9PhCzFDBFDPO_toluene_S0_crest.xyz --gfn 2 --gbsa toluene --ohess vtight --parallel 40 --molden --ceasefiles --namespace data2507/toluene/9PhCzFDBFDPO/9PhCzFDBFDPO_toluene_S0_finalOpt
      * Solvation model:               GBSA
        Solvent                        toluene
        Solvent mass                       9.2140E+01 g/mol
          :  Hamiltonian                  GFN2-xTB          :
 * total energy  :  -216.6063750 Eh     change       -0.3880473E-08 Eh
 * total energy  :  -216.6065753 Eh     change       -0.2003320E-03 Eh
 * total energy  :  -216.6066910 Eh     change       -0.1156663E-03 Eh
 * total energy  :  -216.6067364 Eh     change       -0.4541583E-04 Eh
 * total energy  :  -216.6067816 Eh     change       -0.4518314E-04 Eh
 * total energy  :  -216.6068203 Eh     change       -0.3873356E-04 Eh
 * total energy  :  -216.6068338 Eh     change       -0.1348489E-04 Eh
 * total energy  :  -216.6068445 Eh     change       -0.1064761E-04 Eh
 * total energy  :  -216.6068654 Eh     change       -0.2098044E-04 Eh
 * total energy  :  -216.6068827 Eh     change       -0.1722135E-04 Eh
 * total energy  :  -216.6070090 Eh     change       -0.4599172E-06 Eh
 * total energy  :  -216.6070094 Eh     change       -0.3391102E-06 Eh
 * total energy  :  -216.6070096 Eh     change       -0.2317960E-06 Eh
 * total energy  :  -216.6070098 Eh     change       -0.2427711E-06 Eh
 * total energy  :  -216.6070101 Eh     change       -0.2910001E-06 Eh
 * total energy  :  -216.6070104 Eh     change       -0.2911882E-06 Eh
 * total energy  :  -216.6070107 Eh     change       -0.2704930E-06 Eh
 * total energy  :  -216.6070109 Eh     change       -0.2230722E-06 Eh
 * total energy  :  -216.6070109 Eh     change       -0.4483979E-08 Eh
   *** GEOMETRY OPTIMIZATION CONVERGED AFTER 44 ITERATIONS ***

 final structure:
================
138
 xtb: 6.7.1 (edcfbbe)
O          -10.64738426127484       -0.37588464967048        0.53608709300962
P           -9.31289561722545        0.07723904020654        0.09779363339987
C           -9.30241810361105        0.65744296656541       -1.62488114845062
C           -8.12620042176394        0.97927821477152       -2.28954805779579
C           -8.17709936185708        1.38277612394083       -3.61114815224000
C           -9.39582565655143        1.46973609686024       -4.26677074634828
C          -10.56961836567405        1.14873865903376       -3.60354373397800
C          -10.52228816928579        0.73719075747944       -2.28327067764285
C           -8.70623068349225        1.43409814060706        1.14684763986893
C           -9.19584296041255        2.70864835595021        0.89581456237597
C           -8.87089931462070        3.75260274724791        1.74353662231312
C           -8.06675636750540        3.51771110062281        2.84773842757307
C           -7.59792601148278        2.24085090726794        3.11077229487121
C           -7.91947744743808        1.19498483030188        2.26304252366707
C           -8.08948956857572       -1.27129418977031        0.14049543375684
C           -8.61805958854513       -2.55735357020850        0.13286983043822
C           -7.81505701329177       -3.69023085881363        0.09560053890700
C           -6.43910489166650       -3.57470540360090        0.05991694931180
C           -5.88512751352322       -2.30118161832411        0.07454321156969
C           -6.70562051070845       -1.15679953988469        0.11475428633159
O           -5.96368101285499       -0.01115603150390        0.13902890507793
C           -4.65734688778872       -0.39969494379214        0.11763936943312
C           -3.52634739329754        0.40581141449165        0.14473666892966
P           -3.45952412625264        2.22136195674005        0.29223427909335
O           -2.08686231211482        2.71456554139140        0.06062815808527
C           -4.01920110900535        2.62650266421094        1.97887256172318
C           -4.36296394153492        3.94443784387528        2.24904333482469
C           -4.62694822696871        4.33681256761669        3.54848985791034
C           -4.53856942983464        3.41519605387575        4.58028140602458
C           -4.18748429825772        2.10196239215168        4.31202438628441
C           -3.92243480350354        1.70625564966148        3.01169223487590
C           -4.64891904430521        2.95358006948754       -0.86921687088110
C           -5.98548117336561        3.15366477294674       -0.55489551682098
C           -6.81047289007590        3.78990758761749       -1.46559007841772
C           -6.30950806772738        4.21191381335875       -2.68686362717857
C           -4.97719680033674        3.99976737211382       -3.00529456907083
C           -4.14558529414000        3.37483720233043       -2.09380976622504
C           -2.29348474653392       -0.23072946046089        0.09869657655389
C           -2.15184837928065       -1.62029846028347        0.04305330605641
C           -0.81092231465875       -2.22356432467245        0.01023574608576
C            0.21052464119714       -1.64951903836243       -0.74335264476382
C            1.47220701092187       -2.20970574516106       -0.76400675695587
C            1.75758994913081       -3.35165188846435       -0.02239770073613
C            3.13151381524362       -3.98562947689387       -0.09294158555496
C            4.24635469794049       -2.95911481553545       -0.14917207045138
C            4.17445695068037       -1.80410259560593        0.62257219119291
C            5.20668416061355       -0.88710590037173        0.62079178890937
C            6.35156864376695       -1.10235319945782       -0.14349180999361
C            7.44741456786121       -0.12251752135180       -0.15208495236180
C            7.17916266584075        1.24475518818563       -0.19274136536141
C            8.20424673700376        2.16957425917185       -0.20281140846495
C            9.52929961366802        1.74418722508453       -0.17667944293593
N           10.57529273177785        2.68078253409313       -0.18962323103108
C           10.72967555327539        3.70770790367504       -1.09886346600907
C            9.95353737083559        4.03619195193280       -2.20190989992111
C           10.34893039461909        5.11316810099048       -2.97206076569456
C           11.49349813569723        5.84675836480394       -2.66468431851840
C           12.28171053002469        5.51159794313131       -1.58171480429816
C           11.90490062011608        4.43270662978559       -0.79170807104461
C           12.47831711022144        3.80700005413087        0.36700040169485
C           13.60576177965685        4.06713652305667        1.13598918899265
C           13.86357001435971        3.26124551143828        2.22712255592301
C           13.00645412037423        2.21494537646096        2.56369406090748
C           11.87930540080228        1.93611449110874        1.81456584208115
C           11.62704608984378        2.72831322419783        0.70287890968478
C            9.80824025459288        0.38096845207097       -0.13747738388306
C            8.77765771493514       -0.53765025113828       -0.12320170041376
C            6.42838630513891       -2.26895537678805       -0.90006655339508
C            5.39253534943613       -3.18370440563583       -0.90115200641566
C            3.13943429270609       -4.94980025037482       -1.26544941310346
C            2.89257059727323       -4.68908672721897       -2.59665806751307
C            2.94155467248871       -5.74094309017197       -3.50225905191434
C            3.22935464699940       -7.03004004449374       -3.07929018229028
C            3.47022449350834       -7.29957994495093       -1.74141055805785
C            3.42077078788414       -6.25395942079045       -0.83368043458812
C            3.61452699895319       -6.23367887732807        0.60761357213824
C            3.91730943044242       -7.25204824026557        1.49703420984063
C            4.03580161111244       -6.94503772775408        2.84327815876218
C            3.85915481912375       -5.64478080959743        3.29217698001656
C            3.55917329839464       -4.61986120691718        2.40432972107651
C            3.43230929325461       -4.92055984643912        1.06462870192127
C            0.73605392359558       -3.93528892608691        0.71628806494150
C           -0.52896182949436       -3.37949029086519        0.73369316618287
C           -3.29217597803057       -2.41453568492227        0.03388334274649
C           -4.53583754835768       -1.80241566222412        0.06835582289222
H           -7.18260029297832        0.92251905767691       -1.76929673132593
H           -7.26295967880118        1.63209605776215       -4.12915166556266
H           -9.43015247702956        1.78585683871395       -5.29894993010364
H          -11.51892964361492        1.21505009262455       -4.11445625479567
H          -11.42083542941356        0.47155371891073       -1.74330812596997
H           -9.83511439131183        2.86456390320930        0.03596814347442
H           -9.24670621339617        4.74612577290500        1.54760101525490
H           -7.81150190800477        4.32929982242726        3.51195070655149
H           -6.98200958161911        2.05982072546847        3.97838043584044
H           -7.56704057104667        0.19309809238224        2.46739844643605
H           -9.69431953593919       -2.65113068590582        0.16622569584351
H           -8.27593835583734       -4.66604557717735        0.09252559264542
H           -5.80408899976108       -4.44582989363908        0.02601888492237
H           -4.41266680928816        4.65454090688659        1.43376096161646
H           -4.89119737202375        5.36281063691829        3.75819963391750
H           -4.73878669995520        3.72228603959832        5.59636739996032
H           -4.11192345879350        1.38547169922858        5.11734383936685
H           -3.63493983054090        0.68583731373957        2.79605084690909
H           -6.36937848109338        2.81845846254463        0.39714977432843
H           -7.84788536427629        3.95604955888548       -1.21935701489213
H           -6.95969058622413        4.70986956455211       -3.39088228805842
H           -4.58575509372704        4.32760144490896       -3.95728214662985
H           -3.09632530503526        3.22039857465197       -2.30558221604932
H           -1.41532462878734        0.39859400386450        0.12926492963968
H            0.00886566170660       -0.76601418314771       -1.33126634545168
H            2.24893414223639       -1.74633364599629       -1.35485437610393
H            3.29664860273962       -1.61397566078640        1.22324068013401
H            5.13308140415960       -0.00189205082295        1.23585538277934
H            6.15521382511941        1.58650682797561       -0.22870451720092
H            7.98437027665241        3.22688164973304       -0.22133339066286
H            9.07364337823478        3.46496220068271       -2.45707981613654
H            9.75936364975516        5.39078426010390       -3.83399988577845
H           11.76833086216447        6.68349124214767       -3.29027113947777
H           13.17633101426816        6.07151542367149       -1.35256949668686
H           14.26242378791926        4.88684547983052        0.88460524737831
H           14.73640385813734        3.44566139217348        2.83640117812602
H           13.22641218770314        1.61109878597693        3.43227720750249
H           11.21258967842137        1.13349181679521        2.09223948971032
H           10.83577808934555        0.04825192856626       -0.12845579473537
H            9.00639530112969       -1.59221748569794       -0.07792911484790
H            7.30005915757847       -2.45335121388917       -1.51104475051165
H            5.47596820219436       -4.07992721434761       -1.49864989991454
H            2.66814179553129       -3.68793582390595       -2.93348233032660
H            2.75314344632785       -5.55172912244748       -4.54919851911452
H            3.26374735390685       -7.83328310834716       -3.80134513332177
H            3.69045298524447       -8.30496053700756       -1.41411936998311
H            4.05753242886060       -8.26509052186284        1.14993632630515
H            4.26991471785729       -7.72679637421004        3.55163776490445
H            3.95670429780580       -5.42546294566266        4.34564774836045
H            3.42368799514322       -3.60986219723648        2.76165443316835
H            0.93196820421589       -4.82948173210694        1.28975286378958
H           -1.30038360856139       -3.83589684502122        1.33641038688051
H           -3.21716372118386       -3.48906920599101       -0.01927607624279

          :  Hamiltonian                  GFN2-xTB          :
         :: gradient norm              0.000055967637 Eh/a0 ::
         :: HOMO-LUMO gap              2.302716575494 eV    ::
         :: SCC energy              -220.583136390362 Eh    ::
         :: -> dispersion             -0.219549236301 Eh    ::
         :: -> Gsolv                  -0.090807298589 Eh    ::
         :: repulsion energy           3.976125461059 Eh    ::

    * Orbital Energies and Occupations

         #    Occupation            Energy/Eh            Energy/eV
      -------------------------------------------------------------
         1        2.0000           -0.7553029             -20.5528
       ...           ...                  ...                  ...
       189        2.0000           -0.4088802             -11.1262
       190        2.0000           -0.4084631             -11.1148
       191        2.0000           -0.4065803             -11.0636
       192        2.0000           -0.4051020             -11.0234
       193        2.0000           -0.4045046             -11.0071
       194        2.0000           -0.4038391             -10.9890
       195        2.0000           -0.4027094             -10.9583
       196        2.0000           -0.3968261             -10.7982
       197        2.0000           -0.3899816             -10.6119
       198        2.0000           -0.3837268             -10.4417
       199        2.0000           -0.3797177             -10.3326
       200        2.0000           -0.3772444             -10.2653
       201        2.0000           -0.3599701              -9.7953 (HOMO)
       202                         -0.2753468              -7.4926 (LUMO)
       203                         -0.2661499              -7.2423
       204                         -0.2545005              -6.9253
       205                         -0.2531518              -6.8886
       206                         -0.2512909              -6.8380
       207                         -0.2496536              -6.7934
       208                         -0.2479440              -6.7469
       209                         -0.2468674              -6.7176
       210                         -0.2426459              -6.6027
       211                         -0.2407676              -6.5516
       212                         -0.2389495              -6.5021
       ...                                ...                  ...
       403                          1.1889369              32.3526
      -------------------------------------------------------------
                  HL-Gap            0.0846233 Eh            2.3027 eV

     #   Z          covCN         q      C6AA      α(0)
     1   8 O        0.808    -0.399    21.677     6.241
     2  15 P        4.079     0.067   157.286    22.529
     3   6 C        2.921     0.011    27.768     8.641
     4   6 C        2.980    -0.024    28.598     8.772
     5   6 C        2.920    -0.025    28.633     8.775
     6   6 C        2.920    -0.022    28.562     8.764
     7   6 C        2.919    -0.026    28.656     8.778
     8   6 C        3.021    -0.019    28.467     8.752
     9   6 C        2.921     0.018    27.609     8.617
    10   6 C        3.021    -0.019    28.450     8.749
    11   6 C        2.919    -0.025    28.617     8.772
    12   6 C        2.921    -0.024    28.600     8.770
    13   6 C        2.920    -0.026    28.654     8.778
    14   6 C        2.985    -0.017    28.420     8.745
    15   6 C        2.908    -0.013    28.341     8.729
    16   6 C        3.050    -0.024    28.544     8.762
    17   6 C        2.919    -0.035    28.866     8.810
    18   6 C        2.913    -0.028    28.704     8.785
    19   6 C        3.056    -0.018    28.396     8.739
    20   6 C        3.122     0.132    24.950     8.180
    21   8 O        1.714    -0.222    17.679     5.677
    22   6 C        3.122     0.129    25.019     8.192
    23   6 C        2.906    -0.015    28.384     8.736
    24  15 P        4.082     0.069   157.181    22.521
    25   8 O        0.808    -0.403    21.758     6.253
    26   6 C        2.921     0.014    27.699     8.631
    27   6 C        3.015    -0.018    28.447     8.749
    28   6 C        2.919    -0.024    28.615     8.772
    29   6 C        2.920    -0.023    28.589     8.768
    30   6 C        2.920    -0.025    28.639     8.776
    31   6 C        2.985    -0.021    28.525     8.761
    32   6 C        2.922     0.013    27.714     8.633
    33   6 C        2.976    -0.020    28.510     8.758
    34   6 C        2.920    -0.024    28.607     8.771
    35   6 C        2.920    -0.022    28.555     8.763
    36   6 C        2.919    -0.026    28.659     8.779
    37   6 C        3.032    -0.019    28.458     8.750
    38   6 C        3.058    -0.029    28.661     8.780
    39   6 C        2.975     0.008    27.827     8.653
    40   6 C        2.977     0.008    27.847     8.656
    41   6 C        2.924    -0.033    28.831     8.805
    42   6 C        2.922    -0.033    28.813     8.803
    43   6 C        2.979     0.018    27.598     8.617
    44   6 C        3.946     0.008    20.376     6.414
    45   6 C        2.979     0.016    27.652     8.626
    46   6 C        2.922    -0.034    28.856     8.809
    47   6 C        2.924    -0.035    28.880     8.813
    48   6 C        2.976     0.007    27.857     8.658
    49   6 C        2.975     0.008    27.827     8.653
    50   6 C        2.925    -0.033    28.830     8.805
    51   6 C        2.920    -0.043    29.065     8.841
    52   6 C        2.912     0.062    26.617     8.460
    53   7 N        2.802    -0.047    22.147     6.990
    54   6 C        3.076     0.048    26.852     8.496
    55   6 C        2.909    -0.052    29.291     8.874
    56   6 C        2.924    -0.035    28.879     8.813
    57   6 C        2.919    -0.043    29.071     8.842
    58   6 C        2.912    -0.035    28.876     8.812
    59   6 C        3.067    -0.019    28.416     8.741
    60   6 C        3.067    -0.019    28.416     8.741
    61   6 C        2.912    -0.035    28.876     8.812
    62   6 C        2.919    -0.043    29.071     8.842
    63   6 C        2.924    -0.035    28.880     8.813
    64   6 C        2.909    -0.052    29.291     8.875
    65   6 C        3.076     0.048    26.853     8.496
    66   6 C        2.920    -0.043    29.066     8.841
    67   6 C        2.924    -0.033    28.832     8.806
    68   6 C        2.924    -0.035    28.880     8.813
    69   6 C        2.922    -0.036    28.904     8.816
    70   6 C        3.056     0.004    27.880     8.659
    71   6 C        2.914    -0.034    28.852     8.808
    72   6 C        2.922    -0.033    28.823     8.804
    73   6 C        2.921    -0.033    28.834     8.806
    74   6 C        2.914    -0.035    28.870     8.811
    75   6 C        3.034     0.000    27.987     8.677
    76   6 C        3.034     0.000    27.990     8.678
    77   6 C        2.914    -0.035    28.870     8.811
    78   6 C        2.921    -0.034    28.835     8.806
    79   6 C        2.922    -0.033    28.824     8.804
    80   6 C        2.914    -0.034    28.851     8.808
    81   6 C        3.057     0.004    27.883     8.660
    82   6 C        2.922    -0.035    28.881     8.813
    83   6 C        2.924    -0.034    28.859     8.810
    84   6 C        2.918    -0.035    28.879     8.812
    85   6 C        3.053    -0.019    28.427     8.744
    86   1 H        0.926     0.041     2.436     2.441
    87   1 H        0.926     0.043     2.409     2.427
    88   1 H        0.926     0.049     2.328     2.386
    89   1 H        0.926     0.047     2.353     2.399
    90   1 H        0.925     0.053     2.288     2.366
    91   1 H        0.925     0.039     2.461     2.453
    92   1 H        0.926     0.048     2.345     2.394
    93   1 H        0.926     0.048     2.343     2.393
    94   1 H        0.926     0.043     2.412     2.429
    95   1 H        0.925     0.032     2.552     2.498
    96   1 H        0.926     0.064     2.155     2.296
    97   1 H        0.926     0.056     2.246     2.344
    98   1 H        0.926     0.059     2.207     2.323
    99   1 H        0.925     0.039     2.464     2.455
   100   1 H        0.926     0.048     2.346     2.395
   101   1 H        0.926     0.049     2.328     2.386
   102   1 H        0.926     0.045     2.378     2.411
   103   1 H        0.925     0.033     2.545     2.495
   104   1 H        0.926     0.041     2.437     2.441
   105   1 H        0.926     0.042     2.419     2.432
   106   1 H        0.926     0.048     2.339     2.392
   107   1 H        0.926     0.047     2.362     2.403
   108   1 H        0.925     0.049     2.328     2.386
   109   1 H        0.926     0.067     2.116     2.275
   110   1 H        0.926     0.036     2.509     2.477
   111   1 H        0.926     0.036     2.499     2.472
   112   1 H        0.926     0.033     2.549     2.497
   113   1 H        0.926     0.035     2.522     2.484
   114   1 H        0.926     0.041     2.435     2.440
   115   1 H        0.926     0.041     2.438     2.442
   116   1 H        0.926     0.029     2.595     2.519
   117   1 H        0.926     0.029     2.597     2.520
   118   1 H        0.926     0.027     2.629     2.535
   119   1 H        0.926     0.029     2.596     2.519
   120   1 H        0.926     0.029     2.596     2.520
   121   1 H        0.926     0.027     2.629     2.535
   122   1 H        0.926     0.029     2.596     2.520
   123   1 H        0.926     0.029     2.595     2.519
   124   1 H        0.926     0.041     2.436     2.441
   125   1 H        0.926     0.041     2.435     2.440
   126   1 H        0.926     0.034     2.525     2.485
   127   1 H        0.926     0.031     2.570     2.507
   128   1 H        0.926     0.031     2.570     2.507
   129   1 H        0.926     0.032     2.560     2.502
   130   1 H        0.926     0.032     2.561     2.503
   131   1 H        0.926     0.033     2.545     2.495
   132   1 H        0.926     0.033     2.546     2.495
   133   1 H        0.926     0.032     2.562     2.503
   134   1 H        0.926     0.032     2.560     2.502
   135   1 H        0.926     0.031     2.570     2.507
   136   1 H        0.926     0.035     2.517     2.481
   137   1 H        0.926     0.037     2.484     2.464
   138   1 H        0.926     0.059     2.214     2.327

molecular dipole:
                 x           y           z       tot (Debye)
 q only:       -0.323      -0.727      -0.373
   full:       -0.370      -0.780      -0.390       2.408

 projected vibrational frequencies (cm⁻¹)
eigval :       -0.00    -0.00    -0.00     0.00     0.00     0.00
eigval :       -1.15     5.19     7.88    12.21    14.14    18.11
eigval :       20.03    21.09    24.20    29.36    29.55    32.69
eigval :       36.38    38.37    38.60    40.13    48.47    50.48
eigval :       53.43    56.59    62.60    67.96    74.13    76.82
eigval :       78.91    82.96    85.01    87.77    92.50    94.28
eigval :      100.45   105.48   110.45   124.84   136.65   143.66
eigval :      144.71   149.80   152.35   155.42   164.15   171.97
eigval :      176.64   193.74   202.12   203.96   211.14   217.79
eigval :      228.35   230.72   235.94   238.58   241.59   255.67
eigval :      256.69   259.23   266.08   271.21   271.82   275.27
eigval :      281.62   294.39   298.01   302.04   318.84   334.73
eigval :      336.86   353.27   361.57   365.73   367.53   369.23
eigval :      369.99   372.83   379.18   381.79   383.67   390.41
eigval :      394.74   398.93   410.04   414.68   417.36   421.24
eigval :      429.24   431.91   434.60   440.48   445.57   454.11
eigval :      457.76   467.84   476.64   483.27   485.43   497.41
eigval :      502.65   506.59   513.18   517.95   519.00   528.53
eigval :      532.06   536.50   540.68   541.73   545.00   555.41
eigval :      573.14   582.09   585.13   585.33   585.89   586.63
eigval :      587.50   592.04   594.51   596.40   606.18   607.45
eigval :      615.14   618.44   622.85   635.77   657.54   657.81
eigval :      658.85   660.82   663.77   673.85   675.47   679.64
eigval :      682.61   686.65   690.90   698.43   700.17   703.84
eigval :      708.60   709.57   716.10   721.09   722.12   728.29
eigval :      740.46   740.93   742.60   748.53   752.44   754.34
eigval :      760.71   766.78   775.31   780.56   783.11   790.09
eigval :      800.85   804.05   815.10   832.22   840.53   854.97
eigval :      863.71   866.04   872.83   874.65   875.95   876.23
eigval :      876.85   877.31   877.43   880.20   881.92   882.14
eigval :      894.48   896.40   897.26   898.89   899.58   901.72
eigval :      902.48   902.89   905.34   905.85   906.79   908.24
eigval :      911.94   915.03   917.88   918.10   920.72   922.03
eigval :      923.52   925.06   925.25   926.25   926.36   926.37
eigval :      928.33   930.73   932.15   932.92   933.43   933.73
eigval :      935.20   935.57   937.01   939.35   939.54   971.66
eigval :      972.24   975.54   976.39   996.11  1006.70  1010.96
eigval :     1014.63  1023.64  1062.76  1069.17  1072.54  1074.77
eigval :     1076.39  1077.02  1077.50  1077.76  1080.10  1081.78
eigval :     1092.34  1102.19  1107.60  1111.84  1111.96  1113.23
eigval :     1113.80  1116.04  1121.42  1122.54  1129.32  1130.22
eigval :     1134.45  1142.67  1146.73  1147.71  1149.86  1158.66
eigval :     1173.12  1173.85  1174.82  1175.46  1176.31  1176.51
eigval :     1176.99  1179.22  1179.94  1181.76  1182.84  1183.33
eigval :     1188.16  1189.02  1189.53  1191.32  1199.06  1203.06
eigval :     1205.14  1208.36  1212.72  1215.64  1220.94  1226.70
eigval :     1228.00  1235.83  1236.11  1240.18  1242.78  1253.20
eigval :     1261.69  1266.44  1269.31  1269.63  1270.76  1271.94
eigval :     1276.08  1276.70  1284.06  1294.95  1301.48  1303.60
eigval :     1306.46  1313.55  1314.04  1317.89  1319.07  1320.55
eigval :     1321.77  1322.19  1324.94  1338.46  1351.30  1355.73
eigval :     1360.66  1364.15  1366.82  1376.99  1385.15  1391.35
eigval :     1401.86  1411.95  1420.57  1421.78  1423.14  1424.32
eigval :     1427.22  1427.48  1429.61  1430.15  1450.69  1451.28
eigval :     1452.05  1453.72  1455.17  1460.35  1468.59  1470.65
eigval :     1474.41  1476.71  1487.10  1498.80  1506.89  1552.07
eigval :     1557.39  1566.86  1570.65  1573.40  1575.00  1581.33
eigval :     1581.92  1582.83  1583.94  1584.39  1584.67  1584.86
eigval :     1584.94  1586.11  1586.17  1587.13  1591.92  1592.83
eigval :     1596.76  1596.93  1599.85  1602.47  1603.81  1607.76
eigval :     1613.11  3047.19  3053.53  3058.14  3063.76  3067.35
eigval :     3068.98  3069.05  3069.22  3069.39  3070.30  3071.37
eigval :     3074.14  3074.57  3075.18  3075.37  3075.48  3075.92
eigval :     3076.19  3076.85  3077.65  3078.70  3078.73  3078.98
eigval :     3080.28  3080.90  3081.04  3081.09  3082.56  3083.11
eigval :     3083.15  3083.31  3084.06  3084.17  3085.82  3087.05
eigval :     3087.10  3089.15  3089.61  3089.75  3089.89  3089.95
eigval :     3091.06  3091.57  3092.05  3092.06  3092.27  3092.88
eigval :     3093.02  3100.59  3101.31  3102.89  3103.01  3105.25

   temp. (K)  partition function   enthalpy   heat capacity  entropy
                                   cal/mol     cal/K/mol   cal/K/mol   J/K/mol
 298.15  VIB  0.227E+37            42276.221    257.904    270.196
         ROT  0.678E+09              888.752      2.981     43.390
         INT  0.154E+46            43164.973    260.885    313.586
         TR   0.366E+29             1481.254      4.968     46.915
         TOT                       44646.2273   265.8530   360.5004  1508.3337

       T/K    H(0)-H(T)+PV         H(T)/Eh          T*S/Eh         G(T)/Eh
   ------------------------------------------------------------------------
    298.15    0.711483E-01    0.112205E+01    0.171285E+00    0.950766E+00
   ------------------------------------------------------------------------

         :::::::::::::::::::::::::::::::::::::::::::::::::::::
         ::                  THERMODYNAMIC                  ::
         :::::::::::::::::::::::::::::::::::::::::::::::::::::
         :: total free energy        -215.656245345436 Eh   ::
         ::.................................................::
         :: total energy             -216.607010927802 Eh   ::
         :: zero point energy           1.050902671043 Eh   ::
         :: G(RRHO) w/o ZPVE           -0.100137088677 Eh   ::
         :: G(RRHO) contrib.            0.950765582366 Eh   ::
         :::::::::::::::::::::::::::::::::::::::::::::::::::::

           -------------------------------------------------
          | TOTAL ENERGY             -216.607010927802 Eh   |
          | TOTAL ENTHALPY           -215.484959964748 Eh   |
          | TOTAL FREE ENERGY        -215.656245345436 Eh   |
          | GRADIENT NORM               0.000055840253 Eh/α |
          | HOMO-LUMO GAP               2.302716969898 eV   |
           -------------------------------------------------

 * finished run on 2025/07/17 at 11:49:52.260
