   * xtb version 6.7.1 (edcfbbe) compiled by 'albert@albert-system' on 2024-07-22

   ID    Z sym.   atoms
    1    6 C      1-6, 8-13, 15-19, 22-26, 28-33, 35-47, 49-54, 56-63, 65, 66
    2    8 O      7, 34, 55
    3    7 N      14, 20, 21, 27, 48, 64
    4    1 H      67-102

          program call               : xtb data2507/gas/TPXZ-as-TAZ/TPXZ-as-TAZ_gas_S0_crest.xyz --gfn 2 --ohess vtight --parallel 40 --molden --ceasefiles --namespace data2507/gas/TPXZ-as-TAZ/TPXZ-as-TAZ_gas_S0_finalOpt
          :  Hamiltonian                  GFN2-xTB          :
 * total energy  :  -170.2178083 Eh     change       -0.4204225E-08 Eh
 * total energy  :  -170.2178090 Eh     change       -0.7461438E-06 Eh
 * total energy  :  -170.2178100 Eh     change       -0.1007968E-05 Eh
 * total energy  :  -170.2178119 Eh     change       -0.1840790E-05 Eh
 * total energy  :  -170.2178139 Eh     change       -0.1994206E-05 Eh
 * total energy  :  -170.2178152 Eh     change       -0.1335413E-05 Eh
 * total energy  :  -170.2178161 Eh     change       -0.8768238E-06 Eh
 * total energy  :  -170.2178169 Eh     change       -0.8031649E-06 Eh
 * total energy  :  -170.2178176 Eh     change       -0.7652433E-06 Eh
 * total energy  :  -170.2178182 Eh     change       -0.5617414E-06 Eh
 * total energy  :  -170.2178199 Eh     change       -0.3755775E-06 Eh
 * total energy  :  -170.2178203 Eh     change       -0.3853325E-06 Eh
 * total energy  :  -170.2178206 Eh     change       -0.3927717E-06 Eh
 * total energy  :  -170.2178211 Eh     change       -0.4283786E-06 Eh
 * total energy  :  -170.2178216 Eh     change       -0.4882869E-06 Eh
 * total energy  :  -170.2178221 Eh     change       -0.5009962E-06 Eh
 * total energy  :  -170.2178225 Eh     change       -0.4090490E-06 Eh
 * total energy  :  -170.2178228 Eh     change       -0.3199677E-06 Eh
 * total energy  :  -170.2178228 Eh     change       -0.4645472E-08 Eh
   *** GEOMETRY OPTIMIZATION CONVERGED AFTER 22 ITERATIONS ***

 final structure:
================
102
 xtb: 6.7.1 (edcfbbe)
C            9.74701259619244        0.74915027484346       -3.93799899497539
C            8.39405424826175        0.52969594575307       -3.77792639475858
C            7.88634098979402        0.14580599868517       -2.54606230081412
C            8.72332152930942       -0.01320815878571       -1.44849174263687
C           10.09990981565594        0.17470783430135       -1.63192162427051
C           10.60082760573473        0.55995440774893       -2.86161729811650
O           11.01197077282039       -0.02761560243630       -0.62701275476000
C           10.52924085633495       -0.41924112318219        0.59663971564585
C           11.45862760808117       -0.61137402890477        1.60202081032279
C           11.04740992050301       -0.97192036956100        2.87645738393554
C            9.70052905209955       -1.11762969790402        3.13944721931247
C            8.76463665564235       -0.92862288382591        2.13402786970379
C            9.16207670026779       -0.60233563186971        0.84331155855896
N            8.24550923437175       -0.40145215944443       -0.19345734228862
C            6.86683402917807       -0.58757212647762        0.02280717773852
C            6.37842067267194       -1.83677386987704        0.40492399692253
C            5.02912378091505       -2.01865846825101        0.61725791821144
C            4.14167724235764       -0.95440008624239        0.45132462229552
C            2.71838530771366       -1.14813807582678        0.67502806197677
N            2.29847453748317       -2.30436077673809        1.20585301492940
N            1.04467048508421       -2.58612199925944        1.11753901776500
C            0.15444342655674       -1.71589614870242        0.67162904654485
C           -1.21389372350201       -2.15194586552839        0.43240129870009
C           -1.78935340834441       -3.13288664460473        1.23935503246195
C           -3.12244464594374       -3.46010775731107        1.09821794411939
C           -3.90013148728644       -2.81962582077275        0.13713861432596
N           -5.28191780355877       -3.07775919297598        0.03310907390616
C           -5.76073939460787       -4.33367238503232       -0.34405613638907
C           -4.91357773531904       -5.39851657871924       -0.62137738640340
C           -5.42479790203307       -6.63163340636038       -0.99728510221687
C           -6.78745492492268       -6.81704131385275       -1.11041275158187
C           -7.64536786010551       -5.75481345214061       -0.86423957594418
C           -7.14141494235387       -4.52265346229092       -0.49296848569326
O           -8.04962154538430       -3.50977054880706       -0.30196282200588
C           -7.56547428327309       -2.29512901553117        0.11572970265140
C           -8.49151932225941       -1.29986170389131        0.36659516849519
C           -8.07813024475023       -0.05778610396399        0.82593651459985
C           -6.73670379537882        0.17318372268526        1.05054538837252
C           -5.80290343926559       -0.81910907732178        0.79342553575319
C           -6.19732405451651       -2.05665750912284        0.30063645939975
C           -3.31011902996250       -1.89152226463178       -0.71876098175667
C           -1.98082505412691       -1.56170867078812       -0.57469976477295
C            0.58486608342006       -0.36305081053553        0.52526054663781
C           -0.34225905698721        0.76144056184968        0.49970648120743
C           -1.52644524023257        0.73468713978789        1.23984458725874
C           -2.45713704034315        1.73885608322068        1.09518229325339
C           -2.22575823467965        2.79103546503996        0.21008347765662
N           -3.22793507749708        3.75915344168310        0.00683972406962
C           -4.45587039828753        3.37827312447119       -0.54275165714844
C           -4.68804895964783        2.09389049426456       -1.01867134801128
C           -5.91658037447543        1.74888996113188       -1.56099778244018
C           -6.92872840637620        2.68285882971663       -1.64316150297652
C           -6.70107262245191        3.97916367585240       -1.20526153493546
C           -5.47546940143109        4.33038847938210       -0.67040753814928
O           -5.30981934405517        5.63983114939956       -0.29371103031649
C           -4.07729414241386        6.01116058998219        0.18446146438707
C           -3.90988285585407        7.34177670329253        0.51906983538671
C           -2.70495347862684        7.78588967975263        1.04383066628003
C           -1.67800737560883        6.88657738212581        1.24560678841109
C           -1.83894244161111        5.55115334687438        0.90817760278238
C           -3.02863548632989        5.09699875652503        0.35405584374666
C           -1.01698518424091        2.85649183474123       -0.47815129894449
C           -0.08193513254310        1.85310463776356       -0.32787747732661
N            1.88087555370342       -0.14519127850673        0.42188503160068
C            4.63204643920069        0.29463954360859        0.06814956408838
C            5.98134599332647        0.47691252294995       -0.14299434651945
H           10.14650522483848        1.05292321859319       -4.89261681630155
H            7.71872225142544        0.65056047600563       -4.61095985217275
H            6.82917603183756       -0.04082329274365       -2.44137487986785
H           11.66560966242124        0.70062734627103       -2.95688929283612
H           12.50104902032251       -0.46729078092610        1.36695112146968
H           11.77976571503510       -1.12310515132077        3.65359801769341
H            9.36226279463361       -1.37624923144592        4.13098190899038
H            7.71463301656390       -1.02785552363789        2.35971702241636
H            7.06679995832267       -2.66064505756768        0.52227325678482
H            4.63787357206988       -2.98148855933310        0.90591442250307
H           -1.18257582124054       -3.60418645738362        1.99687443796633
H           -3.57660828992457       -4.19357789936105        1.74770379208862
H           -3.84579418905571       -5.26103049989414       -0.55352121589924
H           -4.74403336018050       -7.44309933249856       -1.20359482481452
H           -7.19026708003959       -7.77511894039984       -1.39843297730353
H           -8.71384167147709       -5.86087810098843       -0.96306714493301
H           -9.53411151193987       -1.51942899972940        0.20088054024289
H           -8.80645652712585        0.71467875610419        1.01429309590050
H           -6.40482596865362        1.12882046566602        1.42558593357933
H           -4.75698162962092       -0.63027077233427        0.97860943370834
H           -3.90928093284878       -1.42559834111314       -1.48707182229349
H           -1.52860319810318       -0.84848908665608       -1.24826813469477
H           -1.70821631862495       -0.06947341762311        1.93726203976953
H           -3.37900741550065        1.71483714252855        1.65710858364564
H           -3.90191765742504        1.35696252174407       -0.96611132919938
H           -6.07502454915112        0.74252578713890       -1.91588035786746
H           -7.88909560528331        2.41563784980475       -2.05404168848772
H           -7.46339000851763        4.73849436817053       -1.27538069675039
H           -4.73922398936177        8.01416872333261        0.36854834173078
H           -2.58357019558176        8.82621506914327        1.30084045720876
H           -0.74179749331331        7.21298448408631        1.67159647295175
H           -1.03533690182471        4.85455029015491        1.08879502940526
H           -0.83011927344286        3.68169359012460       -1.14916255108268
H            0.84546034438248        1.87889301611681       -0.87919632453706
H            3.94049778103655        1.11501414966267       -0.04411220734185
H            6.36549087375932        1.44549754605201       -0.42759631733549

          :  Hamiltonian                  GFN2-xTB          :
         :: gradient norm              0.000043864484 Eh/a0 ::
         :: HOMO-LUMO gap              1.264974217780 eV    ::
         :: SCC energy              -173.141710753419 Eh    ::
         :: -> dispersion             -0.154581935744 Eh    ::
         :: repulsion energy           2.923887958107 Eh    ::

    * Orbital Energies and Occupations

         #    Occupation            Energy/Eh            Energy/eV
      -------------------------------------------------------------
         1        2.0000           -0.7296087             -19.8537
       ...           ...                  ...                  ...
       144        2.0000           -0.4157638             -11.3135
       145        2.0000           -0.4151199             -11.2960
       146        2.0000           -0.4142249             -11.2716
       147        2.0000           -0.4124814             -11.2242
       148        2.0000           -0.4123079             -11.2195
       149        2.0000           -0.4012606             -10.9189
       150        2.0000           -0.3927745             -10.6879
       151        2.0000           -0.3900474             -10.6137
       152        2.0000           -0.3891471             -10.5892
       153        2.0000           -0.3548700              -9.6565
       154        2.0000           -0.3456234              -9.4049
       155        2.0000           -0.3437599              -9.3542
       156        2.0000           -0.3429836              -9.3331 (HOMO)
       157                         -0.2964968              -8.0681 (LUMO)
       158                         -0.2935826              -7.9888
       159                         -0.2561972              -6.9715
       160                         -0.2486484              -6.7661
       161                         -0.2407260              -6.5505
       162                         -0.2404873              -6.5440
       163                         -0.2392146              -6.5094
       164                         -0.2380273              -6.4771
       165                         -0.2376844              -6.4677
       166                         -0.2375294              -6.4635
       167                         -0.2317407              -6.3060
       ...                                ...                  ...
       300                          0.6756051              18.3841
      -------------------------------------------------------------
                  HL-Gap            0.0464869 Eh            1.2650 eV

     #   Z          covCN         q      C6AA      α(0)
     1   6 C        2.919    -0.040    28.992     8.830
     2   6 C        2.919    -0.039    28.962     8.825
     3   6 C        2.924    -0.060    29.489     8.905
     4   6 C        2.922     0.042    27.054     8.530
     5   6 C        2.884     0.125    25.255     8.239
     6   6 C        2.920    -0.056    29.395     8.891
     7   8 O        1.709    -0.254    18.212     5.762
     8   6 C        2.884     0.125    25.259     8.240
     9   6 C        2.920    -0.056    29.392     8.890
    10   6 C        2.919    -0.040    28.988     8.829
    11   6 C        2.919    -0.038    28.954     8.824
    12   6 C        2.924    -0.060    29.482     8.904
    13   6 C        2.922     0.042    27.056     8.530
    14   7 N        2.751    -0.068    22.557     7.054
    15   6 C        2.921     0.069    26.451     8.434
    16   6 C        2.920    -0.039    28.981     8.828
    17   6 C        2.923    -0.027    28.685     8.783
    18   6 C        2.982    -0.002    28.080     8.692
    19   6 C        2.925     0.166    24.419     8.104
    20   7 N        1.932    -0.169    25.448     7.480
    21   7 N        1.955    -0.112    24.183     7.292
    22   6 C        2.926     0.065    26.534     8.448
    23   6 C        2.978     0.003    27.962     8.674
    24   6 C        2.924    -0.029    28.720     8.788
    25   6 C        2.920    -0.039    28.977     8.827
    26   6 C        2.922     0.067    26.491     8.441
    27   7 N        2.752    -0.071    22.621     7.064
    28   6 C        2.921     0.042    27.048     8.529
    29   6 C        2.923    -0.060    29.500     8.907
    30   6 C        2.919    -0.038    28.956     8.824
    31   6 C        2.919    -0.040    29.001     8.831
    32   6 C        2.920    -0.056    29.393     8.891
    33   6 C        2.883     0.124    25.273     8.242
    34   8 O        1.709    -0.255    18.230     5.765
    35   6 C        2.883     0.125    25.264     8.240
    36   6 C        2.920    -0.056    29.395     8.891
    37   6 C        2.919    -0.040    28.984     8.828
    38   6 C        2.919    -0.036    28.897     8.815
    39   6 C        2.924    -0.059    29.462     8.901
    40   6 C        2.924     0.042    27.057     8.530
    41   6 C        2.921    -0.039    28.979     8.828
    42   6 C        2.923    -0.031    28.785     8.798
    43   6 C        2.965     0.099    25.803     8.332
    44   6 C        2.978     0.001    28.001     8.680
    45   6 C        2.922    -0.030    28.741     8.792
    46   6 C        2.921    -0.039    28.966     8.826
    47   6 C        2.922     0.069    26.462     8.436
    48   7 N        2.752    -0.071    22.608     7.062
    49   6 C        2.924     0.042    27.063     8.531
    50   6 C        2.924    -0.058    29.450     8.899
    51   6 C        2.919    -0.036    28.886     8.813
    52   6 C        2.919    -0.039    28.968     8.826
    53   6 C        2.920    -0.056    29.387     8.890
    54   6 C        2.883     0.125    25.260     8.240
    55   8 O        1.709    -0.254    18.216     5.762
    56   6 C        2.884     0.125    25.265     8.240
    57   6 C        2.920    -0.056    29.388     8.890
    58   6 C        2.919    -0.040    28.993     8.830
    59   6 C        2.919    -0.038    28.957     8.824
    60   6 C        2.923    -0.060    29.499     8.907
    61   6 C        2.921     0.042    27.051     8.529
    62   6 C        2.920    -0.040    28.998     8.831
    63   6 C        2.924    -0.026    28.655     8.779
    64   7 N        1.852    -0.242    27.163     7.724
    65   6 C        2.923    -0.027    28.673     8.781
    66   6 C        2.920    -0.041    29.008     8.832
    67   1 H        0.926     0.038     2.471     2.458
    68   1 H        0.926     0.036     2.504     2.474
    69   1 H        0.926     0.035     2.512     2.478
    70   1 H        0.926     0.051     2.310     2.377
    71   1 H        0.926     0.051     2.310     2.377
    72   1 H        0.926     0.039     2.467     2.456
    73   1 H        0.926     0.037     2.489     2.467
    74   1 H        0.926     0.037     2.491     2.468
    75   1 H        0.926     0.047     2.360     2.402
    76   1 H        0.926     0.063     2.159     2.298
    77   1 H        0.926     0.057     2.229     2.335
    78   1 H        0.926     0.047     2.353     2.399
    79   1 H        0.926     0.036     2.509     2.477
    80   1 H        0.926     0.037     2.495     2.470
    81   1 H        0.926     0.038     2.473     2.459
    82   1 H        0.926     0.050     2.315     2.379
    83   1 H        0.926     0.051     2.306     2.375
    84   1 H        0.926     0.038     2.469     2.457
    85   1 H        0.926     0.031     2.570     2.507
    86   1 H        0.926     0.030     2.584     2.514
    87   1 H        0.926     0.042     2.419     2.432
    88   1 H        0.926     0.032     2.553     2.498
    89   1 H        0.926     0.036     2.504     2.475
    90   1 H        0.926     0.044     2.396     2.421
    91   1 H        0.926     0.031     2.573     2.508
    92   1 H        0.926     0.032     2.551     2.498
    93   1 H        0.926     0.039     2.456     2.451
    94   1 H        0.926     0.052     2.299     2.371
    95   1 H        0.926     0.051     2.308     2.376
    96   1 H        0.926     0.039     2.466     2.456
    97   1 H        0.926     0.037     2.495     2.470
    98   1 H        0.926     0.035     2.516     2.481
    99   1 H        0.926     0.047     2.356     2.400
   100   1 H        0.926     0.053     2.281     2.362
   101   1 H        0.926     0.057     2.231     2.336
   102   1 H        0.926     0.045     2.380     2.413

molecular dipole:
                 x           y           z       tot (Debye)
 q only:        0.175       0.207      -0.090
   full:       -0.018       0.391      -0.200       1.117

 projected vibrational frequencies (cm⁻¹)
eigval :       -0.00    -0.00    -0.00    -0.00     0.00     0.00
eigval :        6.84     8.51     8.99    12.55    13.75    23.93
eigval :       25.15    26.57    35.29    37.13    40.75    49.21
eigval :       49.76    59.19    65.65    74.06    74.61    80.60
eigval :       89.70    98.13   109.61   114.95   119.76   123.60
eigval :      124.16   128.78   159.89   178.16   188.26   193.31
eigval :      198.76   204.77   232.66   241.43   247.68   251.54
eigval :      254.04   254.46   264.06   272.01   274.78   280.44
eigval :      286.87   322.88   338.21   349.66   356.05   369.58
eigval :      370.85   377.54   379.84   381.22   388.45   392.94
eigval :      397.91   403.47   407.41   417.28   421.42   425.75
eigval :      429.02   430.44   430.77   432.11   442.78   445.91
eigval :      450.71   455.81   472.79   484.48   497.66   506.02
eigval :      510.04   510.68   511.08   522.49   522.93   523.17
eigval :      536.71   545.31   553.21   568.19   578.63   583.10
eigval :      586.57   588.56   593.58   601.36   606.31   609.33
eigval :      613.47   629.77   640.20   646.30   659.31   660.23
eigval :      660.49   661.25   661.43   661.98   667.85   676.02
eigval :      687.62   691.79   697.12   705.09   726.45   735.90
eigval :      756.69   777.77   778.00   779.12   779.17   779.22
eigval :      779.60   797.43   803.28   804.40   819.56   821.24
eigval :      827.30   854.52   855.17   855.63   859.48   861.62
eigval :      863.92   864.05   864.79   866.62   867.06   873.78
eigval :      874.24   878.11   896.15   896.96   897.67   897.81
eigval :      898.12   898.75   913.14   913.61   913.97   914.28
eigval :      914.50   914.78   915.29   915.75   917.01   917.40
eigval :      917.73   923.59   925.30   928.67   930.73   931.67
eigval :      932.02   935.14   999.41  1006.48  1016.67  1047.49
eigval :     1086.23  1090.04  1090.31  1090.67  1091.54  1091.65
eigval :     1092.02  1108.15  1108.42  1108.60  1120.69  1120.74
eigval :     1121.58  1124.55  1130.71  1131.39  1145.12  1170.92
eigval :     1171.13  1171.83  1175.62  1176.00  1176.12  1177.12
eigval :     1182.69  1183.61  1187.81  1190.46  1192.29  1201.28
eigval :     1201.66  1202.27  1204.74  1221.83  1224.14  1226.66
eigval :     1242.84  1243.17  1243.40  1249.40  1259.22  1261.87
eigval :     1262.15  1262.57  1263.54  1263.86  1303.83  1308.52
eigval :     1309.86  1310.72  1310.94  1311.53  1316.77  1317.66
eigval :     1320.74  1337.48  1339.63  1340.51  1341.43  1352.92
eigval :     1354.78  1358.24  1370.70  1390.62  1396.43  1405.83
eigval :     1408.99  1420.94  1424.74  1425.07  1428.50  1443.14
eigval :     1443.47  1443.79  1474.61  1480.76  1485.13  1487.03
eigval :     1487.47  1489.58  1490.76  1505.06  1505.99  1506.61
eigval :     1552.50  1553.61  1557.61  1567.62  1567.82  1567.96
eigval :     1580.50  1581.06  1581.12  1584.04  1585.04  1587.79
eigval :     1590.98  1591.06  1591.92  1603.01  1603.49  1603.78
eigval :     3079.42  3083.52  3086.15  3088.50  3088.64  3088.98
eigval :     3089.33  3089.60  3089.68  3089.91  3090.06  3091.01
eigval :     3092.90  3095.07  3098.81  3099.10  3099.31  3099.33
eigval :     3099.68  3100.67  3101.53  3105.16  3105.27  3105.41
eigval :     3105.98  3106.24  3106.65  3106.81  3107.62  3109.63
eigval :     3113.04  3113.11  3113.55  3113.61  3113.91  3114.47

   temp. (K)  partition function   enthalpy   heat capacity  entropy
                                   cal/mol     cal/K/mol   cal/K/mol   J/K/mol
 298.15  VIB  0.128E+26            30486.212    191.281    191.197
         ROT  0.296E+09              888.752      2.981     41.746
         INT  0.380E+34            31374.964    194.262    232.943
         TR   0.241E+29             1481.254      4.968     46.086
         TOT                       32856.2179   199.2305   279.0296  1167.4600

       T/K    H(0)-H(T)+PV         H(T)/Eh          T*S/Eh         G(T)/Eh
   ------------------------------------------------------------------------
    298.15    0.523597E-01    0.814395E+00    0.132576E+00    0.681819E+00
   ------------------------------------------------------------------------

         :::::::::::::::::::::::::::::::::::::::::::::::::::::
         ::                  THERMODYNAMIC                  ::
         :::::::::::::::::::::::::::::::::::::::::::::::::::::
         :: total free energy        -169.536004186625 Eh   ::
         ::.................................................::
         :: total energy             -170.217822795310 Eh   ::
         :: zero point energy           0.762034871404 Eh   ::
         :: G(RRHO) w/o ZPVE           -0.080216262720 Eh   ::
         :: G(RRHO) contrib.            0.681818608684 Eh   ::
         :::::::::::::::::::::::::::::::::::::::::::::::::::::

           -------------------------------------------------
          | TOTAL ENERGY             -170.217822795310 Eh   |
          | TOTAL ENTHALPY           -169.403428207771 Eh   |
          | TOTAL FREE ENERGY        -169.536004186625 Eh   |
          | GRADIENT NORM               0.000043863099 Eh/α |
          | HOMO-LUMO GAP               1.264972864372 eV   |
           -------------------------------------------------

 * finished run on 2025/08/25 at 21:38:27.447
