   * xtb version 6.7.1 (edcfbbe) compiled by 'albert@albert-system' on 2024-07-22

   ID    Z sym.   atoms
    1    6 C      1-6, 8-13, 15-19, 22-26, 28-33, 35-47, 49-54, 56-63, 65, 66
    2    8 O      7, 34, 55
    3    7 N      14, 20, 21, 27, 48, 64
    4    1 H      67-102

          program call               : xtb data2507/gas/TPXZ-as-TAZ/TPXZ-as-TAZ_gas_S0_finalOpt.xtbopt.xyz --gfn 2 --spinpol --tblite --uhf 2 --ohess vtight --parallel 40 --molden --ceasefiles --namespace data2507/gas/TPXZ-as-TAZ/TPXZ-as-TAZ_gas_T1_preOpt
 * total energy  :  -170.1641553 Eh     change        0.8507783E-08 Eh
 * total energy  :  -170.1668208 Eh     change       -0.2665537E-02 Eh
 * total energy  :  -170.1680715 Eh     change       -0.1250698E-02 Eh
 * total energy  :  -170.1685064 Eh     change       -0.4348690E-03 Eh
 * total energy  :  -170.1690053 Eh     change       -0.4989131E-03 Eh
 * total energy  :  -170.1691590 Eh     change       -0.1536685E-03 Eh
 * total energy  :  -170.1692921 Eh     change       -0.1330797E-03 Eh
 * total energy  :  -170.1693576 Eh     change       -0.6554322E-04 Eh
 * total energy  :  -170.1694306 Eh     change       -0.7301683E-04 Eh
 * total energy  :  -170.1694765 Eh     change       -0.4585879E-04 Eh
 * total energy  :  -170.1699159 Eh     change       -0.8644939E-06 Eh
 * total energy  :  -170.1699164 Eh     change       -0.4726827E-06 Eh
 * total energy  :  -170.1699167 Eh     change       -0.3207840E-06 Eh
 * total energy  :  -170.1699174 Eh     change       -0.6860948E-06 Eh
 * total energy  :  -170.1699176 Eh     change       -0.2462278E-06 Eh
 * total energy  :  -170.1699179 Eh     change       -0.2708415E-06 Eh
 * total energy  :  -170.1699181 Eh     change       -0.1859160E-06 Eh
 * total energy  :  -170.1699182 Eh     change       -0.1378301E-06 Eh
 * total energy  :  -170.1699182 Eh     change       -0.8266483E-08 Eh
   *** GEOMETRY OPTIMIZATION CONVERGED AFTER 59 ITERATIONS ***

 final structure:
================
102
 xtb: 6.7.1 (edcfbbe)
C            9.97120718325873        1.21303021640506       -3.69800448999605
C            8.61602455251522        0.95758686343688       -3.63743833271220
C            8.04918633724342        0.44701693164239       -2.47989358664040
C            8.82897330186314        0.19336445721450       -1.35803796919176
C           10.20906407123211        0.42475884063174       -1.44131167551640
C           10.76857873285969        0.93618575823024       -2.59757714830615
O           11.06587740920044        0.14619369768665       -0.40654129929389
C           10.52407338893383       -0.37054516452292        0.74332348759883
C           11.39711119021899       -0.64083767317397        1.78077998583492
C           10.92057104475795       -1.13470872480724        2.98591935883578
C            9.56506255099094       -1.33810024541541        3.14931553209389
C            8.68525740149878       -1.07093882628639        2.11179484066993
C            9.14965947407361       -0.60537517032623        0.88768313903466
N            8.29194301776801       -0.32315502175695       -0.17737525226856
C            6.90561557877908       -0.55923763069016       -0.06358052719043
C            6.42972443936528       -1.85581536490838        0.12098363122381
C            5.07473381228679       -2.08562529551562        0.23260379249683
C            4.17376887671754       -1.02467202763238        0.15953283118178
C            2.74106206426146       -1.26502646903216        0.27684254411990
N            2.32507023875147       -2.50812210817618        0.52182922805330
N            1.05049466229029       -2.78625654839969        0.51088294222056
C            0.12865132579977       -1.85720923664699        0.39808883734814
C           -1.27726488807995       -2.24555737369975        0.28960944832684
C           -1.84764447504584       -3.13491351082196        1.19602222950586
C           -3.19601508774926       -3.42866205238591        1.13223962383336
C           -3.99034315062254       -2.84580322509095        0.14986036698341
N           -5.38108825878408       -3.07981728031615        0.11309588580503
C           -5.89302684482633       -4.35287696143102       -0.13790764924452
C           -5.07309000141995       -5.45157086500465       -0.36436714192619
C           -5.61690856813567       -6.70213199557304       -0.61297860620154
C           -6.98631280538027       -6.87389158004357       -0.64940581819834
C           -7.81833736501493       -5.78147629977342       -0.45486909076321
C           -7.28188567037884       -4.53116123511647       -0.20908073971183
O           -8.16621577323206       -3.49216429094494       -0.06076739877575
C           -7.64713992665994       -2.24994054872491        0.20273990324223
C           -8.54818732341562       -1.21646943658959        0.38281226378770
C           -8.09810446396570        0.05910845940523        0.68847765806808
C           -6.74430754109277        0.28825380982260        0.83049574246449
C           -5.83610216535134       -0.74161586030328        0.64228519398487
C           -6.26843393302779       -2.01869128884720        0.30448337279120
C           -3.40952046804580       -2.00536959351311       -0.79802440674827
C           -2.06630257348285       -1.71035270504205       -0.73023831283795
C            0.55053215950802       -0.50668202099181        0.29134551623474
C           -0.35756217571763        0.60786760704731        0.28919591500876
C           -1.55484485989124        0.58601183245057        1.02479176201396
C           -2.45492118209660        1.61944729240002        0.92913583861247
C           -2.18928233215438        2.71193592181595        0.10447746082781
N           -3.16900202303174        3.72145108900842       -0.05136668576810
C           -4.38365599750458        3.41192966627661       -0.65706997775065
C           -4.63032496626529        2.16886591999930       -1.23003895962073
C           -5.85443990791772        1.88944421133511       -1.81581004337670
C           -6.84877403364797        2.84720328832656       -1.84701108298572
C           -6.60855802110811        4.10256833022530       -1.30825638948504
C           -5.38741615228501        4.38952518768860       -0.72655290870087
O           -5.20748483066219        5.65934705623103       -0.24006856381483
C           -3.99304453368368        5.95592780146569        0.32653219443544
C           -3.81681851920633        7.24193180801403        0.80204667289285
C           -2.62567056208499        7.60353940950942        1.41396193959095
C           -1.62103216112801        6.66690269990610        1.55939634928954
C           -1.79018858260928        5.37685891028234        1.08289903917901
C           -2.96780816465408        5.00538155913593        0.44434284226468
C           -0.97042195775066        2.78485751240984       -0.56636542512918
C           -0.06256806152465        1.75513453479470       -0.46384585388875
N            1.89292134132546       -0.27756249939188        0.14846670407661
C            4.65245878094215        0.27178049055046       -0.02467850038401
C            6.00715595186144        0.50342394984478       -0.13485864507211
H           10.41588460667582        1.61437526517619       -4.59482802386141
H            7.98560342775197        1.14932262692581       -4.49199304377357
H            6.99177533619195        0.23612169029101       -2.45170375089006
H           11.83327501363340        1.10537960471130       -2.61762195621331
H           12.44739805360948       -0.45218843626893        1.62610972996721
H           11.60925157555759       -1.34549001649115        3.78866789600601
H            9.17696926373895       -1.70361080683984        4.08748607314882
H            7.62692049446612       -1.21855157532333        2.25839677811577
H            7.13119445917748       -2.67566613652531        0.16905015299556
H            4.69161899456372       -3.08474339113129        0.37032654993478
H           -1.23130422553097       -3.56837934019142        1.96880650334057
H           -3.64474355414522       -4.09277060328343        1.85612448372047
H           -4.00178277343405       -5.32657669185543       -0.35612996892073
H           -4.95717296612524       -7.53917161059864       -0.78158946935101
H           -7.41364617705308       -7.84580411765537       -0.83851956841340
H           -8.89148926453482       -5.87731857218820       -0.49663387750078
H           -9.59978590972843       -1.43391814207980        0.28539711728493
H           -8.80654692878972        0.86056015545270        0.82412529203455
H           -6.38370709298376        1.27202619726768        1.08717545537367
H           -4.78113833422493       -0.55217162365294        0.76218295017361
H           -4.02450532325238       -1.58328041867991       -1.57904552158066
H           -1.61825243564518       -1.06039128405478       -1.46690984770580
H           -1.76162515872941       -0.23907106336314        1.68912872638329
H           -3.37703259237395        1.59537774317531        1.49209077649222
H           -3.85705660982186        1.41710223031576       -1.21522650078030
H           -6.02571453054730        0.91443387598413       -2.24483611621994
H           -7.80569497288541        2.62943784194064       -2.29370676889608
H           -7.35746055584326        4.87794936911167       -1.33313748011507
H           -4.62687205927971        7.94459050909238        0.68923685560997
H           -2.49595855088123        8.60956031980269        1.78032978826685
H           -0.69613826806403        6.93132827451991        2.04846464275767
H           -1.00655671401401        4.64730161404766        1.21313825098257
H           -0.75377562626081        3.64508992356579       -1.18308274398907
H            0.87465768454564        1.79768910310399       -0.99694357948447
H            3.94650387688533        1.08640544331296       -0.06971059034666
H            6.38311467819051        1.50695165305186       -0.27005393410069

 projected vibrational frequencies (cm⁻¹)
eigval :       -0.00     0.00     0.00     0.00     0.00     0.00
eigval :        3.99     6.62     7.68    10.78    12.85    23.08
eigval :       24.26    26.72    35.14    37.18    40.87    49.17
eigval :       50.63    58.61    59.57    72.60    73.23    77.65
eigval :       88.51    96.29   105.50   113.85   116.66   121.30
eigval :      123.96   126.56   162.70   175.55   182.72   191.48
eigval :      202.41   204.23   228.12   239.52   245.93   249.95
eigval :      252.89   253.37   262.67   272.13   274.53   279.61
eigval :      287.21   308.28   324.60   347.00   353.30   368.68
eigval :      372.19   373.80   377.03   379.78   382.49   392.30
eigval :      395.10   395.34   404.30   411.98   416.28   422.91
eigval :      426.34   429.46   429.63   430.71   439.18   447.07
eigval :      448.97   451.69   465.97   482.17   496.44   506.47
eigval :      508.05   508.95   509.80   522.55   523.09   523.90
eigval :      531.12   545.58   548.46   556.70   570.57   577.48
eigval :      585.39   586.77   589.87   595.64   601.60   606.71
eigval :      609.59   618.90   626.03   637.98   642.49   658.81
eigval :      661.34   661.92   662.35   662.58   663.46   664.13
eigval :      669.98   679.78   688.79   692.11   698.29   716.61
eigval :      735.26   775.76   777.87   778.26   778.32   778.51
eigval :      778.60   791.10   799.68   801.76   804.12   810.74
eigval :      823.64   830.75   851.05   854.66   855.50   855.66
eigval :      860.68   862.68   863.53   864.31   865.72   866.10
eigval :      867.29   873.52   876.94   895.67   897.05   897.14
eigval :      897.40   898.11   898.38   906.66   911.24   912.78
eigval :      913.57   913.87   914.11   914.72   915.28   915.50
eigval :      917.20   917.56   919.68   922.80   924.59   925.88
eigval :      926.19   930.06   932.61   976.94  1004.29  1013.35
eigval :     1028.62  1072.86  1087.94  1089.32  1089.53  1089.68
eigval :     1090.85  1091.24  1109.04  1109.06  1109.35  1119.78
eigval :     1120.67  1121.12  1121.69  1129.24  1131.99  1142.26
eigval :     1163.39  1169.73  1171.08  1171.55  1174.97  1175.00
eigval :     1175.25  1177.84  1181.37  1182.53  1188.77  1190.59
eigval :     1193.32  1202.27  1202.36  1202.65  1219.48  1223.23
eigval :     1224.63  1240.85  1242.01  1242.28  1254.58  1259.16
eigval :     1260.56  1261.31  1262.96  1264.05  1280.74  1294.65
eigval :     1304.35  1309.51  1310.77  1311.43  1313.04  1315.53
eigval :     1319.31  1320.56  1323.48  1336.41  1338.20  1338.34
eigval :     1348.63  1349.58  1351.42  1376.45  1400.54  1405.65
eigval :     1406.00  1414.02  1423.38  1423.91  1424.11  1428.86
eigval :     1443.11  1443.28  1443.66  1470.87  1475.12  1481.61
eigval :     1482.81  1483.62  1486.38  1488.86  1495.84  1498.18
eigval :     1521.79  1554.48  1560.38  1563.64  1566.54  1566.91
eigval :     1575.25  1576.76  1578.26  1578.68  1583.63  1584.72
eigval :     1586.05  1587.34  1589.11  1596.24  1598.55  1600.66
eigval :     3075.80  3080.20  3083.03  3086.06  3086.66  3087.46
eigval :     3089.94  3090.05  3090.40  3090.75  3090.82  3092.64
eigval :     3093.87  3094.41  3099.74  3099.77  3099.95  3100.01
eigval :     3100.18  3100.43  3100.67  3102.06  3103.92  3104.96
eigval :     3106.62  3107.07  3107.38  3107.62  3107.70  3109.06
eigval :     3112.73  3113.06  3113.14  3113.52  3113.66  3114.31

   temp. (K)  partition function   enthalpy   heat capacity  entropy
                                   cal/mol     cal/K/mol   cal/K/mol   J/K/mol
 298.15  VIB  0.686E+26            30753.053    192.712    194.005
         ROT  0.298E+09              888.752      2.981     41.755
         INT  0.204E+35            31641.805    195.693    235.760
         TR   0.241E+29             1481.254      4.968     46.086
         TOT                       33123.0594   200.6610   281.8468  1179.2470

       T/K    H(0)-H(T)+PV         H(T)/Eh          T*S/Eh         G(T)/Eh
   ------------------------------------------------------------------------
    298.15    0.527850E-01    0.811512E+00    0.133915E+00    0.677597E+00
   ------------------------------------------------------------------------

         :::::::::::::::::::::::::::::::::::::::::::::::::::::
         ::                  THERMODYNAMIC                  ::
         :::::::::::::::::::::::::::::::::::::::::::::::::::::
         :: total free energy        -169.492320953399 Eh   ::
         ::.................................................::
         :: total energy             -170.169918233261 Eh   ::
         :: zero point energy           0.758726833854 Eh   ::
         :: G(RRHO) w/o ZPVE           -0.081129553991 Eh   ::
         :: G(RRHO) contrib.            0.677597279863 Eh   ::
         :::::::::::::::::::::::::::::::::::::::::::::::::::::

           -------------------------------------------------
          | TOTAL ENERGY             -170.169918233261 Eh   |
          | TOTAL ENTHALPY           -169.358406444315 Eh   |
          | TOTAL FREE ENERGY        -169.492320953399 Eh   |
          | GRADIENT NORM               0.000201959788 Eh/α |
           -------------------------------------------------

 * finished run on 2025/08/25 at 21:38:55.121
