   * xtb version 6.7.1 (edcfbbe) compiled by 'albert@albert-system' on 2024-07-22

   ID    Z sym.   atoms
    1    6 C      1-6, 8-13, 15-19, 22-26, 28-33, 35-47, 49-54, 56-63, 65, 66
    2    8 O      7, 34, 55
    3    7 N      14, 20, 21, 27, 48, 64
    4    1 H      67-102

          program call               : xtb data2507/gas/TPXZ-as-TAZ/TPXZ-as-TAZ_gas_T1_crest.xyz --gfn 2 --spinpol --tblite --uhf 2 --ohess vtight --parallel 40 --molden --ceasefiles --namespace data2507/gas/TPXZ-as-TAZ/TPXZ-as-TAZ_gas_T1_finalOpt
 * total energy  :  -170.1687128 Eh     change       -0.1614202E-07 Eh
 * total energy  :  -170.1688595 Eh     change       -0.1466807E-03 Eh
 * total energy  :  -170.1690868 Eh     change       -0.2273267E-03 Eh
 * total energy  :  -170.1691571 Eh     change       -0.7030994E-04 Eh
 * total energy  :  -170.1693250 Eh     change       -0.1678512E-03 Eh
 * total energy  :  -170.1693844 Eh     change       -0.5946013E-04 Eh
 * total energy  :  -170.1695518 Eh     change       -0.1673910E-03 Eh
 * total energy  :  -170.1696345 Eh     change       -0.8263952E-04 Eh
 * total energy  :  -170.1696933 Eh     change       -0.5881503E-04 Eh
 * total energy  :  -170.1697297 Eh     change       -0.3642710E-04 Eh
 * total energy  :  -170.1700551 Eh     change       -0.5383643E-06 Eh
 * total energy  :  -170.1700556 Eh     change       -0.5464474E-06 Eh
 * total energy  :  -170.1700558 Eh     change       -0.1980348E-06 Eh
 * total energy  :  -170.1700562 Eh     change       -0.4129301E-06 Eh
 * total energy  :  -170.1700567 Eh     change       -0.4167524E-06 Eh
 * total energy  :  -170.1700570 Eh     change       -0.3683134E-06 Eh
 * total energy  :  -170.1700571 Eh     change       -0.1236741E-06 Eh
 * total energy  :  -170.1700574 Eh     change       -0.2315562E-06 Eh
 * total energy  :  -170.1700574 Eh     change       -0.3745629E-07 Eh
   *** GEOMETRY OPTIMIZATION CONVERGED AFTER 70 ITERATIONS ***

 final structure:
================
102
 xtb: 6.7.1 (edcfbbe)
C           10.53675728555224       -2.33559458351944       -3.02597226665731
C            9.17283738420978       -2.53581879996444       -2.95243893788782
C            8.41805932684951       -1.88035798229753       -1.99210781203131
C            9.01831796729234       -1.02059473957802       -1.08005142025756
C           10.39816356197627       -0.79736455219998       -1.18613015734342
C           11.14649919074895       -1.45571669632137       -2.14451739476929
O           11.06615783271281        0.08247602372558       -0.37277616858161
C           10.33440438468960        0.74631821971662        0.57888015039032
C           11.02164045591713        1.62281840335603        1.39823425587362
C           10.35727723958039        2.30637990122462        2.40538222223983
C            9.00712640423778        2.09156316118521        2.59685664917332
C            8.31255427469542        1.21581737121291        1.77692129222584
C            8.95636305478233        0.54757444655909        0.74237213778875
N            8.28849549063536       -0.34227479363507       -0.10151361202166
C            6.90219625652456       -0.55964128720843        0.03772304805773
C            6.42333242793205       -1.82335976360671        0.37862283532185
C            5.06768972866079       -2.03690825264723        0.50970285295722
C            4.16842207506951       -0.99118276653664        0.30743204490654
C            2.73596984929036       -1.21488605508204        0.44837447806290
N            2.31850133710550       -2.42381554329931        0.83535207846064
N            1.04408520175953       -2.70164909294691        0.83753877509242
C            0.12407414699139       -1.79359957914160        0.61843333101774
C           -1.27975737758707       -2.19442826083295        0.52992496299806
C           -1.86141286956759       -2.98974235435481        1.51327716586842
C           -3.20840003301792       -3.29196215199131        1.46093036701696
C           -3.98965175643582       -2.81310937514592        0.41400822174873
N           -5.37951662369416       -3.05351020932169        0.38211370597586
C           -5.88601943485816       -4.34688311415867        0.25427800112189
C           -5.06128240451835       -5.46013746399822        0.14884127395799
C           -5.59965917333963       -6.73113241689695        0.02136914662822
C           -6.96817804877279       -6.91000325734823       -0.01274247575492
C           -7.80462294506622       -5.80615116904498        0.06124002076769
C           -7.27358597366848       -4.53573801060412        0.18557460715920
O           -8.16158473715532       -3.48971685112258        0.21809195726316
C           -7.64789333450411       -2.22558378913394        0.36098124619539
C           -8.55281187998594       -1.18186578472795        0.42476870720712
C           -8.10867524779405        0.11939105680899        0.60561069739656
C           -6.75718067461548        0.36564307683587        0.74047715872395
C           -5.84496565716471       -0.67532272955062        0.66814488018601
C           -6.27095956384214       -1.98115418932560        0.45552287816127
C           -3.39692214144569       -2.07063424786182       -0.60547613244921
C           -2.05520958869690       -1.76617586311079       -0.54903515315687
C            0.54670699458171       -0.45776448258622        0.37451449284735
C           -0.36071122492806        0.64874762589205        0.25208315529494
C           -1.56740213431678        0.69695358562467        0.97188431221757
C           -2.46709138641852        1.71404772311738        0.76466702546958
C           -2.19252395838427        2.72133622688525       -0.15963039041325
N           -3.17149149778172        3.70841417574440       -0.42602484010310
C           -4.37747912542646        3.33841032337377       -1.01475809234718
C           -4.61565141139847        2.04439685450778       -1.46561244657957
C           -5.83131631286903        1.70632640873466       -2.03788359779013
C           -6.82555346152530        2.65452058357618       -2.17736902366988
C           -6.59354612345184        3.95728376709587       -1.76156742712929
C           -5.38086219862998        4.30237454318822       -1.19392054384990
O           -5.20870092028419        5.61428980718635       -0.83202822138736
C           -4.00284314490737        5.96728158007905       -0.27957926047385
C           -3.83464939927337        7.29386621058777        0.07099675726621
C           -2.65266015835979        7.71608087694673        0.66148387459167
C           -1.64923472332617        6.80036908659724        0.91130662790754
C           -1.81040443926747        5.46967340685557        0.56038964470216
C           -2.97860258859373        5.03498213638645       -0.05523543460504
C           -0.96522830354724        2.73101492393288       -0.81928835851476
C           -0.05781991106467        1.71838580575058       -0.60583037065841
N            1.88886144551721       -0.24974579154535        0.20735552473789
C            4.65023304170326        0.27390121243811       -0.02704861746867
C            6.00507379735020        0.48771783830472       -0.16455358932228
H           11.12869266857632       -2.84724709503154       -3.76820763834032
H            8.68073644392046       -3.20188457371136       -3.64423011017110
H            7.35096849304912       -2.03329107554532       -1.95703587765064
H           12.20607747577605       -1.26055621106305       -2.18712565580229
H           12.07954684782751        1.75135222326203        1.23415165202503
H           10.90071311611505        2.99029166417196        3.03787344872147
H            8.48036394555296        2.60048812318689        3.38927674597796
H            7.26173685114197        1.04425854450073        1.94910527851252
H            7.12415893616711       -2.62845594854951        0.54362068870900
H            4.68252025537772       -3.00861479110539        0.77724593550652
H           -1.25505403278127       -3.34184039706531        2.33384673341695
H           -3.66641543162993       -3.88122903961344        2.24156275999261
H           -3.99039967739767       -5.33146221304010        0.15662266542122
H           -4.93632591890729       -7.57880445012521       -0.05462486958016
H           -7.39134742689183       -7.89741959507356       -0.10752235388718
H           -8.87701630974601       -5.90928134950891        0.01736742686126
H           -9.60279062536448       -1.41097070504553        0.33699428306430
H           -8.82009572044981        0.92838723681900        0.65094012929081
H           -6.40138909009826        1.37130224285002        0.90106214615118
H           -4.79189830997771       -0.47163625922562        0.78119135994612
H           -4.00159691705591       -1.73068386759142       -1.43321908975133
H           -1.59797194898654       -1.19173712767637       -1.34076959376652
H           -1.78163042464747       -0.05926957569058        1.71154701233349
H           -3.39604049356115        1.74301956158559        1.31608959119663
H           -3.84233531094469        1.29918965625321       -1.36591382908021
H           -5.99614444246210        0.69341193026010       -2.37088528185217
H           -7.77593881308438        2.39205347866448       -2.61390077406997
H           -7.34235276364986        4.72509540743236       -1.87314979937540
H           -4.64369914002858        7.98030446028393       -0.12109393045785
H           -2.52911047655300        8.75329926149422        0.92991418103422
H           -0.73150366850873        7.11338164743093        1.38493903079871
H           -1.02799718167499        4.75800250228098        0.77173940927206
H           -0.74188885251781        3.52739367502317       -1.51444222690205
H            0.88572544091432        1.71052390319828       -1.12932187778435
H            3.94460313740923        1.07512235453191       -0.18267596991055
H            6.38191897012768        1.46306757807093       -0.43541021184419

 projected vibrational frequencies (cm⁻¹)
eigval :       -0.00    -0.00    -0.00     0.00     0.00     0.00
eigval :        6.57     7.96     8.20    11.25    13.73    24.09
eigval :       24.67    26.79    35.33    37.46    41.39    49.12
eigval :       52.14    58.95    61.61    73.47    73.93    79.00
eigval :       88.09    96.83   105.12   113.99   117.60   121.06
eigval :      124.67   126.24   164.17   176.05   182.90   193.08
eigval :      202.10   203.70   228.43   239.55   246.19   250.35
eigval :      253.35   253.73   263.78   271.39   274.91   279.83
eigval :      287.39   311.00   321.36   348.31   355.61   368.57
eigval :      371.48   375.79   376.72   379.51   383.66   392.98
eigval :      394.55   397.76   403.16   409.58   416.24   424.00
eigval :      426.27   429.71   430.20   431.07   438.67   447.01
eigval :      449.03   450.52   466.86   483.22   495.75   505.36
eigval :      508.14   509.01   509.90   523.02   523.03   523.99
eigval :      530.84   545.63   549.31   556.89   570.36   578.22
eigval :      584.64   586.66   589.91   596.10   601.97   607.52
eigval :      609.55   618.06   627.23   638.24   642.77   659.17
eigval :      661.25   661.91   662.56   662.60   663.63   664.15
eigval :      670.08   679.11   689.04   691.17   697.85   716.53
eigval :      734.41   776.14   778.23   778.63   778.96   779.04
eigval :      779.10   785.04   797.30   801.93   804.09   810.08
eigval :      824.38   828.98   848.31   854.52   855.36   855.92
eigval :      860.75   862.67   864.20   864.77   866.35   866.70
eigval :      867.34   874.02   877.51   896.05   897.48   897.80
eigval :      897.90   898.80   898.85   906.70   911.36   913.18
eigval :      913.73   914.29   914.56   915.44   915.49   915.98
eigval :      917.30   917.60   919.77   923.14   924.60   926.50
eigval :      926.76   930.39   933.35   977.28  1003.64  1012.83
eigval :     1027.97  1073.41  1088.25  1089.69  1089.87  1089.97
eigval :     1091.02  1091.49  1109.10  1109.31  1109.33  1119.76
eigval :     1120.81  1121.28  1121.84  1129.53  1132.28  1143.22
eigval :     1164.49  1170.31  1170.89  1171.79  1175.57  1175.66
eigval :     1175.95  1177.85  1182.02  1183.21  1188.57  1191.01
eigval :     1193.89  1202.35  1202.78  1202.88  1222.31  1223.37
eigval :     1226.08  1241.15  1242.39  1242.69  1254.73  1259.31
eigval :     1260.93  1261.44  1263.30  1264.46  1279.33  1293.29
eigval :     1304.84  1309.67  1310.89  1311.54  1313.08  1315.67
eigval :     1319.38  1320.54  1323.58  1336.64  1337.94  1338.38
eigval :     1348.90  1350.34  1351.56  1377.75  1402.84  1406.35
eigval :     1408.49  1418.91  1423.90  1424.15  1424.54  1433.08
eigval :     1443.34  1443.45  1444.10  1470.54  1474.96  1481.81
eigval :     1482.85  1483.00  1486.97  1489.13  1496.16  1498.05
eigval :     1520.47  1554.81  1559.13  1563.57  1566.60  1567.01
eigval :     1575.19  1576.36  1578.43  1578.53  1583.54  1584.36
eigval :     1586.41  1587.41  1589.07  1596.04  1597.95  1599.96
eigval :     3075.75  3080.16  3083.31  3086.06  3086.95  3087.41
eigval :     3090.13  3090.44  3090.64  3090.88  3090.93  3092.80
eigval :     3093.99  3094.62  3099.96  3100.10  3100.13  3100.20
eigval :     3100.29  3100.35  3100.70  3102.10  3103.69  3104.38
eigval :     3106.88  3107.52  3107.59  3107.81  3107.99  3109.14
eigval :     3113.04  3113.45  3113.52  3113.74  3113.92  3114.36

   temp. (K)  partition function   enthalpy   heat capacity  entropy
                                   cal/mol     cal/K/mol   cal/K/mol   J/K/mol
 298.15  VIB  0.241E+26            30721.094    192.786    192.933
         ROT  0.298E+09              888.752      2.981     41.756
         INT  0.719E+34            31609.846    195.766    234.690
         TR   0.241E+29             1481.254      4.968     46.086
         TOT                       33091.1001   200.7346   280.7761  1174.7670

       T/K    H(0)-H(T)+PV         H(T)/Eh          T*S/Eh         G(T)/Eh
   ------------------------------------------------------------------------
    298.15    0.527340E-01    0.811612E+00    0.133406E+00    0.678206E+00
   ------------------------------------------------------------------------

         :::::::::::::::::::::::::::::::::::::::::::::::::::::
         ::                  THERMODYNAMIC                  ::
         :::::::::::::::::::::::::::::::::::::::::::::::::::::
         :: total free energy        -169.491851212044 Eh   ::
         ::.................................................::
         :: total energy             -170.170057466540 Eh   ::
         :: zero point energy           0.758877996629 Eh   ::
         :: G(RRHO) w/o ZPVE           -0.080671742133 Eh   ::
         :: G(RRHO) contrib.            0.678206254496 Eh   ::
         :::::::::::::::::::::::::::::::::::::::::::::::::::::

           -------------------------------------------------
          | TOTAL ENERGY             -170.170057466540 Eh   |
          | TOTAL ENTHALPY           -169.358445445296 Eh   |
          | TOTAL FREE ENERGY        -169.491851212044 Eh   |
          | GRADIENT NORM               0.000194113403 Eh/α |
           -------------------------------------------------

 * finished run on 2025/08/25 at 21:50:13.848
