   * xtb version 6.7.1 (edcfbbe) compiled by 'albert@albert-system' on 2024-07-22

   ID    Z sym.   atoms
    1    6 C      1-9, 11-15, 17-22, 24-31
    2    7 N      10
    3    8 O      16, 23
    4    1 H      32-52

          program call               : xtb data2507/gas/ACRXTN/ACRXTN_gas_S0_finalOpt.xtbopt.xyz --gfn 2 --spinpol --tblite --uhf 2 --ohess vtight --parallel 40 --molden --ceasefiles --namespace data2507/gas/ACRXTN/ACRXTN_gas_T1_preOpt
 * total energy  :   -81.6748323 Eh     change        0.1783710E-07 Eh
 * total energy  :   -81.6778503 Eh     change       -0.3018056E-02 Eh
 * total energy  :   -81.6785916 Eh     change       -0.7412705E-03 Eh
 * total energy  :   -81.6786567 Eh     change       -0.6503269E-04 Eh
 * total energy  :   -81.6786853 Eh     change       -0.2860363E-04 Eh
 * total energy  :   -81.6787019 Eh     change       -0.1666985E-04 Eh
 * total energy  :   -81.6787177 Eh     change       -0.1575627E-04 Eh
 * total energy  :   -81.6787341 Eh     change       -0.1643858E-04 Eh
 * total energy  :   -81.6787450 Eh     change       -0.1089641E-04 Eh
 * total energy  :   -81.6787577 Eh     change       -0.1264138E-04 Eh
 * total energy  :   -81.6788125 Eh     change       -0.7850924E-06 Eh
 * total energy  :   -81.6788131 Eh     change       -0.5335798E-06 Eh
 * total energy  :   -81.6788135 Eh     change       -0.4625173E-06 Eh
 * total energy  :   -81.6788142 Eh     change       -0.7037278E-06 Eh
 * total energy  :   -81.6788151 Eh     change       -0.8286266E-06 Eh
 * total energy  :   -81.6788157 Eh     change       -0.6617575E-06 Eh
 * total energy  :   -81.6788162 Eh     change       -0.5010348E-06 Eh
 * total energy  :   -81.6788167 Eh     change       -0.4727947E-06 Eh
 * total energy  :   -81.6788168 Eh     change       -0.8858403E-07 Eh
   *** GEOMETRY OPTIMIZATION CONVERGED AFTER 31 ITERATIONS ***

 final structure:
================
52
 xtb: 6.7.1 (edcfbbe)
C           -5.06168219391657       -0.84357449364913        1.86260858063550
C           -3.70795998328487       -0.46171845938593        1.26449834915685
C           -2.71837644897595       -0.23307119035501        2.42594141285466
C           -3.77873429663185        0.79764738919890        0.42127006279660
C           -4.84364559564078        1.68188619746057        0.41533698777922
C           -4.82933484787032        2.81022709358660       -0.38994831656384
C           -3.75412893499929        3.05446281323191       -1.22774377263363
C           -2.68134357619694        2.18547435040401       -1.24173615906471
C           -2.67446767939261        1.07660978408544       -0.39839211593507
N           -1.62228820590344        0.15092355079949       -0.41824528705965
C           -0.28736932986265        0.50625001888325       -0.30529586277066
C            0.10312427089357        1.84607863985150       -0.14709004507818
C            1.42677266348686        2.18806898909883       -0.03460678607672
C            2.44105899682869        1.20407703919815       -0.02171175630027
C            3.82525008188819        1.56106050548856        0.10740810195854
O            4.20955871822086        2.76303756283867        0.17859782222996
C            4.74700380989519        0.44484735515376        0.10421457001237
C            6.13197557734622        0.65292550472727        0.20137449966961
C            7.00015547287943       -0.41761641429794        0.22603544393721
C            6.51690153816839       -1.71485965300856        0.15249669132610
C            5.14958511515209       -1.94131779745992        0.05256691317336
C            4.26970886372071       -0.87448176749522        0.02467421895111
O            2.93703585159904       -1.17319652328907       -0.08315277217264
C            2.04399947518807       -0.14749023608138       -0.12542659267844
C            0.71636075954232       -0.48895403251747       -0.23785259271120
C           -2.07275728608820       -1.17529660437291       -0.47171590757578
C           -1.54431543367439       -2.08402799388496       -1.38632306408888
C           -2.04025533757817       -3.37121205052043       -1.44238876796024
C           -3.07624731445301       -3.74906103883539       -0.60483248185434
C           -3.63609185552039       -2.83053900042884        0.26986259816989
C           -3.15416080905612       -1.53528930750466        0.34661563962843
H           -4.96400526477422       -1.74281185368055        2.46537286374736
H           -5.79906843171251       -1.01701907078694        1.08207694430957
H           -5.41748408925210       -0.05314692741323        2.51843238277205
H           -1.73072286444938        0.04294199248081        2.06688541786095
H           -3.08361682344214        0.56469274302236        3.06904963678795
H           -2.62604517799942       -1.14274589241475        3.01529256828189
H           -5.70191701776763        1.50319128177062        1.04212030827932
H           -5.66841768765775        3.48867637314182       -0.37401430684711
H           -3.75597913139974        3.91390046678513       -1.88043217794485
H           -1.86177298792222        2.33872741285988       -1.92696197833975
H           -0.64068244034147        2.62316047324698       -0.07611310154874
H            1.72559075341675        3.21664080101088        0.08586074745197
H            6.48815262060343        1.66926122484076        0.25961162108709
H            8.06256114882638       -0.24020533242372        0.30340397743418
H            7.19543496897280       -2.55362293924794        0.17027319600847
H            4.74984458500725       -2.94160259412704       -0.00685351127647
H            0.46908353534857       -1.53692116904061       -0.23629840913029
H           -0.77281928370707       -1.76466302037375       -2.06985937460467
H           -1.62718357851098       -4.07404674858647       -2.14955944982536
H           -3.46443908643719       -4.75526392686503       -0.64353605777783
H           -4.45714958522715       -3.14299648940455        0.89409087317369

 projected vibrational frequencies (cm⁻¹)
eigval :       -0.00    -0.00    -0.00     0.00     0.00     0.00
eigval :       18.88    27.90    47.43    58.32    65.18    91.25
eigval :      119.27   130.90   136.01   153.97   169.09   178.79
eigval :      192.04   213.07   232.53   247.94   264.16   273.10
eigval :      283.59   300.16   315.57   332.96   344.20   352.44
eigval :      358.89   377.79   397.80   407.97   418.08   428.05
eigval :      453.46   456.49   485.89   490.98   495.38   500.40
eigval :      518.43   540.49   547.05   557.37   561.50   571.42
eigval :      589.77   598.49   630.14   638.70   670.81   674.37
eigval :      688.78   699.28   720.35   722.40   763.63   773.03
eigval :      778.46   794.22   809.77   813.98   821.52   847.33
eigval :      847.90   873.36   882.02   886.64   892.61   900.67
eigval :      906.19   907.29   914.26   915.80   933.44   936.09
eigval :      943.07   967.33   986.19  1009.60  1072.56  1073.68
eigval :     1075.16  1094.49  1096.64  1103.11  1112.32  1135.48
eigval :     1149.60  1162.46  1167.87  1175.11  1179.92  1181.64
eigval :     1188.35  1200.61  1207.11  1217.40  1228.21  1236.66
eigval :     1246.83  1258.29  1267.35  1270.44  1278.80  1312.98
eigval :     1324.42  1328.32  1330.32  1347.98  1393.49  1399.41
eigval :     1409.87  1416.19  1419.76  1422.37  1429.55  1433.94
eigval :     1446.36  1454.92  1466.12  1470.71  1491.31  1493.60
eigval :     1505.96  1514.90  1522.18  1543.92  1556.17  1561.45
eigval :     1564.68  1570.34  1582.04  3030.99  3032.75  3035.05
eigval :     3036.89  3049.40  3054.58  3080.31  3087.30  3087.45
eigval :     3092.04  3093.65  3094.29  3102.18  3102.70  3103.52
eigval :     3103.64  3108.61  3114.64  3115.03  3116.50  3125.71

   temp. (K)  partition function   enthalpy   heat capacity  entropy
                                   cal/mol     cal/K/mol   cal/K/mol   J/K/mol
 298.15  VIB  0.936E+09            13887.921     94.078     82.285
         ROT  0.203E+08              888.752      2.981     36.415
         INT  0.190E+17            14776.673     97.059    118.700
         TR   0.784E+28             1481.254      4.968     43.856
         TOT                       16257.9272   102.0267   162.5559   680.1337

       T/K    H(0)-H(T)+PV         H(T)/Eh          T*S/Eh         G(T)/Eh
   ------------------------------------------------------------------------
    298.15    0.259087E-01    0.426215E+00    0.772355E-01    0.348980E+00
   ------------------------------------------------------------------------

         :::::::::::::::::::::::::::::::::::::::::::::::::::::
         ::                  THERMODYNAMIC                  ::
         :::::::::::::::::::::::::::::::::::::::::::::::::::::
         :: total free energy         -81.329836995031 Eh   ::
         ::.................................................::
         :: total energy              -81.678816790834 Eh   ::
         :: zero point energy           0.400306670972 Eh   ::
         :: G(RRHO) w/o ZPVE           -0.051326875169 Eh   ::
         :: G(RRHO) contrib.            0.348979795803 Eh   ::
         :::::::::::::::::::::::::::::::::::::::::::::::::::::

           -------------------------------------------------
          | TOTAL ENERGY              -81.678816790834 Eh   |
          | TOTAL ENTHALPY            -81.252601463739 Eh   |
          | TOTAL FREE ENERGY         -81.329836995031 Eh   |
          | GRADIENT NORM               0.000057715588 Eh/α |
           -------------------------------------------------

 * finished run on 2025/07/16 at 13:02:06.280
