   * xtb version 6.7.1 (edcfbbe) compiled by 'albert@albert-system' on 2024-07-22

   ID    Z sym.   atoms
    1    6 C      1-9, 11-15, 17-22, 24-31
    2    7 N      10
    3    8 O      16, 23
    4    1 H      32-52

          program call               : xtb data2507/gas/ACRXTN/ACRXTN_gas_T1_crest.xyz --gfn 2 --spinpol --tblite --uhf 2 --ohess vtight --parallel 40 --molden --ceasefiles --namespace data2507/gas/ACRXTN/ACRXTN_gas_T1_finalOpt
 * total energy  :   -81.6872070 Eh     change       -0.5808474E-08 Eh
 * total energy  :   -81.6872459 Eh     change       -0.3891631E-04 Eh
 * total energy  :   -81.6872594 Eh     change       -0.1348406E-04 Eh
 * total energy  :   -81.6872608 Eh     change       -0.1384337E-05 Eh
 * total energy  :   -81.6872604 Eh     change        0.3838127E-06 Eh
 * total energy  :   -81.6872615 Eh     change       -0.1104157E-05 Eh
 * total energy  :   -81.6872621 Eh     change       -0.6153491E-06 Eh
 * total energy  :   -81.6872629 Eh     change       -0.8431978E-06 Eh
 * total energy  :   -81.6872639 Eh     change       -0.9442902E-06 Eh
 * total energy  :   -81.6872647 Eh     change       -0.8043403E-06 Eh
 * total energy  :   -81.6872878 Eh     change       -0.1315953E-05 Eh
 * total energy  :   -81.6872888 Eh     change       -0.1046209E-05 Eh
 * total energy  :   -81.6872892 Eh     change       -0.3795886E-06 Eh
 * total energy  :   -81.6872894 Eh     change       -0.1755688E-06 Eh
 * total energy  :   -81.6872896 Eh     change       -0.2091734E-06 Eh
 * total energy  :   -81.6872899 Eh     change       -0.2866495E-06 Eh
 * total energy  :   -81.6872901 Eh     change       -0.2424813E-06 Eh
 * total energy  :   -81.6872901 Eh     change        0.1568488E-07 Eh
 * total energy  :   -81.6872901 Eh     change       -0.2713070E-07 Eh
   *** GEOMETRY OPTIMIZATION CONVERGED AFTER 45 ITERATIONS ***

 final structure:
================
52
 xtb: 6.7.1 (edcfbbe)
C           -5.60768973938820        0.01146488822866       -0.63941039971283
C           -4.46348767098990        0.11730202221811        0.38694118245304
C           -5.03656941186235        0.30991690869546        1.80422661385415
C           -3.61202845052630        1.32007216672113        0.04114181270984
C           -4.18354542827888        2.58448192241575        0.01231218558460
C           -3.44774649854401        3.71246136213430       -0.30184162916397
C           -2.09910442542954        3.58884345965180       -0.60090859173592
C           -1.50412149354079        2.34859307175109       -0.57947835174888
C           -2.24530291362498        1.20202266178650       -0.25737295660112
N           -1.61927746886759       -0.02422169129632       -0.24380093662267
C           -0.22502369841891       -0.09053755286455       -0.53399517880560
C            0.22168221338876       -0.32438691262267       -1.83128397649800
C            1.56853431863158       -0.38360117824892       -2.09513684959776
C            2.51787555416201       -0.20808956001431       -1.06135329469094
C            3.91961057781352       -0.26776120700715       -1.33997846515093
O            4.37789246363961       -0.47682094596169       -2.50040487425037
C            4.78456493108884       -0.07185610221084       -0.19198134337547
C            6.18003271747572       -0.10454213946045       -0.32748463131991
C            6.99306339281074        0.08378343566877        0.77063190373658
C            6.44103058375934        0.30735501624466        2.02188824318596
C            5.06112450397629        0.34314636536394        2.17536516127390
C            4.23566187260760        0.15572395238259        1.08029538647823
O            2.88729272520116        0.20460075592904        1.30570287375657
C            2.04714481272575        0.02621837328534        0.24870008590219
C            0.69425703569858        0.08478495118031        0.50936423752875
C           -2.29513283451809       -1.18630442602853        0.05334834143340
C           -1.60086489891682       -2.40520437605433        0.05036837767184
C           -2.24758159442346       -3.58480529098209        0.33841122217976
C           -3.60177063195681       -3.57403100326972        0.63780760748946
C           -4.28963400402769       -2.37435025332180        0.64598831109301
C           -3.66528010089450       -1.16851851577564        0.35912066710144
H           -6.25166029678471       -0.83379629934716       -0.41493018518436
H           -5.19819436270135       -0.12365706903965       -1.63855781607567
H           -6.21480858652588        0.91199803810551       -0.63600020911107
H           -4.22501888017715        0.38427292996326        2.52540522541085
H           -5.63051082757345        1.21751398943416        1.86073408431083
H           -5.66792112430221       -0.52876661901252        2.08297640692958
H           -5.23204230423312        2.69968267230822        0.24041478767421
H           -3.92359317703724        4.68079751244006       -0.31463148955308
H           -1.51334926183447        4.45993831457725       -0.85072701256478
H           -0.45629858970849        2.24813649951321       -0.81293702839123
H           -0.49898962210521       -0.45736353148227       -2.62443238875171
H            1.94132311908872       -0.56258767769960       -3.09058078207572
H            6.59089717844881       -0.27978892605260       -1.30910534041081
H            8.06575286414860        0.05594044815067        0.64953684690783
H            7.07591217706122        0.45458764534646        2.88190143268142
H            4.60765934115963        0.51564691112483        3.13892452646286
H            0.35356472045836        0.26559679366649        1.51656801724056
H           -0.54776063028023       -2.40904471710611       -0.18102717025191
H           -1.69767727416933       -4.51317287550984        0.33062583158084
H           -4.11832697674706       -4.49370851007889        0.86503070330528
H           -5.34215358045741       -2.38498164464117        0.88420277410778

 projected vibrational frequencies (cm⁻¹)
eigval :       -0.00    -0.00     0.00     0.00     0.00     0.00
eigval :        7.23    20.72    27.32    51.85    58.15    91.40
eigval :       97.46   103.57   129.58   135.23   149.83   154.78
eigval :      192.94   216.38   221.00   232.51   240.82   252.04
eigval :      278.97   296.33   312.76   325.80   332.14   342.64
eigval :      379.77   380.53   384.43   408.45   410.19   420.87
eigval :      446.71   448.87   494.25   503.18   504.30   518.93
eigval :      526.09   541.21   541.59   542.84   552.65   584.09
eigval :      596.44   617.84   642.55   648.32   664.62   675.57
eigval :      687.83   698.21   701.96   726.80   765.16   774.19
eigval :      776.07   796.90   817.95   825.26   829.30   846.46
eigval :      848.87   870.32   870.93   879.82   883.43   901.99
eigval :      906.14   911.31   915.89   916.52   923.38   923.66
eigval :      937.14   958.23   987.43  1013.21  1074.34  1074.90
eigval :     1080.82  1094.25  1103.48  1104.91  1111.60  1137.56
eigval :     1144.93  1150.23  1166.77  1172.96  1176.61  1182.58
eigval :     1183.93  1191.25  1208.21  1217.28  1232.71  1239.32
eigval :     1240.53  1252.93  1258.31  1294.07  1304.63  1314.26
eigval :     1328.21  1330.20  1335.84  1342.74  1391.47  1401.65
eigval :     1416.99  1419.46  1421.54  1426.53  1431.98  1433.13
eigval :     1455.94  1470.94  1478.46  1486.68  1487.33  1489.07
eigval :     1497.53  1500.95  1520.33  1550.11  1552.51  1566.59
eigval :     1570.59  1578.50  1589.79  3031.41  3033.05  3045.75
eigval :     3048.18  3054.24  3057.77  3080.60  3083.82  3087.07
eigval :     3087.25  3091.90  3093.39  3093.50  3102.43  3102.60
eigval :     3103.69  3105.71  3108.97  3112.38  3113.24  3113.76

   temp. (K)  partition function   enthalpy   heat capacity  entropy
                                   cal/mol     cal/K/mol   cal/K/mol   J/K/mol
 298.15  VIB  0.141E+11            14158.212     93.553     85.827
         ROT  0.207E+08              888.752      2.981     36.456
         INT  0.292E+18            15046.965     96.534    122.283
         TR   0.784E+28             1481.254      4.968     43.856
         TOT                       16528.2186   101.5018   166.1388   695.1249

       T/K    H(0)-H(T)+PV         H(T)/Eh          T*S/Eh         G(T)/Eh
   ------------------------------------------------------------------------
    298.15    0.263394E-01    0.426247E+00    0.789379E-01    0.347309E+00
   ------------------------------------------------------------------------

         :::::::::::::::::::::::::::::::::::::::::::::::::::::
         ::                  THERMODYNAMIC                  ::
         :::::::::::::::::::::::::::::::::::::::::::::::::::::
         :: total free energy         -81.339980975305 Eh   ::
         ::.................................................::
         :: total energy              -81.687290124234 Eh   ::
         :: zero point energy           0.399907673671 Eh   ::
         :: G(RRHO) w/o ZPVE           -0.052598524742 Eh   ::
         :: G(RRHO) contrib.            0.347309148929 Eh   ::
         :::::::::::::::::::::::::::::::::::::::::::::::::::::

           -------------------------------------------------
          | TOTAL ENERGY              -81.687290124234 Eh   |
          | TOTAL ENTHALPY            -81.261043057653 Eh   |
          | TOTAL FREE ENERGY         -81.339980975305 Eh   |
          | GRADIENT NORM               0.000092827179 Eh/α |
           -------------------------------------------------

 * finished run on 2025/07/16 at 13:03:46.761
