   * xtb version 6.7.1 (edcfbbe) compiled by 'albert@albert-system' on 2024-07-22

   ID    Z sym.   atoms
    1    6 C      1-9, 11-15, 17-22, 24-31
    2    7 N      10
    3    8 O      16, 23
    4    1 H      32-52

          program call               : xtb data2507/gas/ACRXTN/ACRXTN_gas_S0_crest.xyz --gfn 2 --ohess vtight --parallel 40 --molden --ceasefiles --namespace data2507/gas/ACRXTN/ACRXTN_gas_S0_finalOpt
          :  Hamiltonian                  GFN2-xTB          :
 * total energy  :   -81.7694695 Eh     change       -0.1426926E-08 Eh
 * total energy  :   -81.7694703 Eh     change       -0.8701385E-06 Eh
 * total energy  :   -81.7694710 Eh     change       -0.6708501E-06 Eh
 * total energy  :   -81.7694720 Eh     change       -0.9997258E-06 Eh
 * total energy  :   -81.7694726 Eh     change       -0.6233314E-06 Eh
 * total energy  :   -81.7694728 Eh     change       -0.1620796E-06 Eh
 * total energy  :   -81.7694728 Eh     change       -0.4948690E-07 Eh
   *** GEOMETRY OPTIMIZATION CONVERGED AFTER 7 ITERATIONS ***

 final structure:
================
52
 xtb: 6.7.1 (edcfbbe)
C           -4.95547226341978       -0.82938087639378        1.92585616740021
C           -3.63069709628006       -0.45149264486722        1.26397205647381
C           -2.59025161764612       -0.21520322883688        2.37736009077343
C           -3.74243580288386        0.80346732836332        0.41556944668936
C           -4.81683459924897        1.67876925416844        0.44474230942456
C           -4.84525968399041        2.79643288910752       -0.37247552902389
C           -3.80981903264340        3.03959167005956       -1.25711184380583
C           -2.73450656926312        2.17282100506910       -1.31086647317255
C           -2.68537991750097        1.07747420495089       -0.45780649297906
N           -1.62392263415125        0.15026262265240       -0.52446029879255
C           -0.30183134783404        0.49712330386043       -0.36414165363599
C            0.07660320238283        1.84255652566138       -0.17854839099900
C            1.39243229953191        2.18259881489179       -0.01658863114103
C            2.40683485267088        1.21816179832177       -0.01276994897237
C            3.80875912425717        1.59619106606816        0.14859154509143
O            4.18985609256391        2.75080129163360        0.25937281901887
C            4.72785006529286        0.44325855326362        0.16788332539629
C            6.10280280297774        0.63879429624048        0.31384958578814
C            6.96888137128108       -0.43053356809735        0.33589643058053
C            6.47128188372373       -1.72415877082945        0.21224607486737
C            5.11849543829939       -1.94263514522618        0.06752756374347
C            4.23760120656227       -0.86070930171378        0.04409493367051
O            2.92038338504828       -1.14589325684811       -0.10340994845296
C            2.02755133758703       -0.12358475270922       -0.13787425875705
C            0.69542655261833       -0.47661128010509       -0.30085599679319
C           -2.08320825859434       -1.18390898227817       -0.54372971747556
C           -1.60064888965377       -2.09595328457461       -1.47370877438005
C           -2.10157387778021       -3.38401239383161       -1.49924149277708
C           -3.10089143629986       -3.75081817932944       -0.61581085697214
C           -3.61475433860863       -2.82677768640366        0.27854404705808
C           -3.11877104899219       -1.53340391513896        0.32871493603198
H           -4.83052584201688       -1.72444174465146        2.53011835224408
H           -5.72778880557453       -1.00840090846811        1.18110561150071
H           -5.28162259891094       -0.03415052380991        2.59149707573190
H           -1.61957194067465        0.05855553709425        1.97357413919385
H           -2.92633890695811        0.58678174472467        3.03131115539362
H           -2.47112272105630       -1.12108932801052        2.96814311962664
H           -5.64691676014346        1.50073780135862        1.10877906884522
H           -5.68743908523770        3.47026243024895       -0.32678161832527
H           -3.84346102296026        3.89474786672102       -1.91496174536580
H           -1.93911226655646        2.33067477282684       -2.02359214322108
H           -0.67695099232256        2.61163797960271       -0.13654988484476
H            1.68493557983352        3.21253769255930        0.12018510651857
H            6.45356834536793        1.65558687582522        0.40766479153964
H            8.03009341453612       -0.26968425135873        0.44857205730774
H            7.14777402682816       -2.56557022535321        0.22928312910504
H            4.71526634120079       -2.93855192163741       -0.02964559018934
H            0.46120066744399       -1.52672831024030       -0.35274631477340
H           -0.85024907920901       -1.78696086947589       -2.18548152524540
H           -1.72063736934898       -4.09407553006396       -2.21759623579792
H           -3.49526564599271       -4.75565980555982       -0.63148800112140
H           -4.40963522425436       -3.13155165826120        0.93958047759974

          :  Hamiltonian                  GFN2-xTB          :
         :: gradient norm              0.000023659555 Eh/a0 ::
         :: HOMO-LUMO gap              2.417587854396 eV    ::
         :: SCC energy               -83.159334655221 Eh    ::
         :: -> dispersion             -0.069423171275 Eh    ::
         :: repulsion energy           1.389861819184 Eh    ::

    * Orbital Energies and Occupations

         #    Occupation            Energy/Eh            Energy/eV
      -------------------------------------------------------------
         1        2.0000           -0.7407056             -20.1556
       ...           ...                  ...                  ...
        63        2.0000           -0.4345619             -11.8250
        64        2.0000           -0.4259292             -11.5901
        65        2.0000           -0.4250037             -11.5649
        66        2.0000           -0.4237464             -11.5307
        67        2.0000           -0.4189331             -11.3998
        68        2.0000           -0.4142385             -11.2720
        69        2.0000           -0.4132560             -11.2453
        70        2.0000           -0.4092394             -11.1360
        71        2.0000           -0.4064587             -11.0603
        72        2.0000           -0.4053993             -11.0315
        73        2.0000           -0.3854230             -10.4879
        74        2.0000           -0.3746842             -10.1957
        75        2.0000           -0.3625937              -9.8667 (HOMO)
        76                         -0.2737489              -7.4491 (LUMO)
        77                         -0.2414402              -6.5699
        78                         -0.2355838              -6.4106
        79                         -0.2347080              -6.3867
        80                         -0.2298261              -6.2539
        81                         -0.2271143              -6.1801
        82                         -0.2188324              -5.9547
        83                         -0.2122788              -5.7764
        84                         -0.1670941              -4.5469
        85                         -0.1104533              -3.0056
        86                         -0.1002435              -2.7278
       ...                                ...                  ...
       145                          0.7134578              19.4142
      -------------------------------------------------------------
                  HL-Gap            0.0888448 Eh            2.4176 eV

     #   Z          covCN         q      C6AA      α(0)
     1   6 C        3.759    -0.107    22.597     6.777
     2   6 C        3.911     0.023    20.134     6.378
     3   6 C        3.762    -0.099    22.446     6.754
     4   6 C        2.988    -0.006    28.171     8.706
     5   6 C        2.923    -0.038    28.940     8.822
     6   6 C        2.919    -0.036    28.898     8.815
     7   6 C        2.920    -0.033    28.811     8.802
     8   6 C        2.920    -0.045    29.123     8.850
     9   6 C        2.952     0.056    26.751     8.483
    10   7 N        2.754    -0.063    22.464     7.039
    11   6 C        2.911     0.074    26.349     8.417
    12   6 C        2.920    -0.064    29.605     8.923
    13   6 C        2.922    -0.022    28.560     8.764
    14   6 C        2.973    -0.055    29.364     8.889
    15   6 C        2.830     0.222    23.338     7.916
    16   8 O        0.857    -0.411    21.893     6.273
    17   6 C        2.975    -0.041    29.012     8.835
    18   6 C        2.924    -0.020    28.516     8.757
    19   6 C        2.916    -0.037    28.909     8.817
    20   6 C        2.921    -0.024    28.609     8.771
    21   6 C        2.916    -0.053    29.313     8.878
    22   6 C        2.886     0.142    24.913     8.183
    23   8 O        1.711    -0.221    17.665     5.675
    24   6 C        2.885     0.140    24.938     8.187
    25   6 C        2.921    -0.087    30.179     9.009
    26   6 C        2.951     0.055    26.759     8.484
    27   6 C        2.920    -0.045    29.124     8.850
    28   6 C        2.920    -0.033    28.811     8.802
    29   6 C        2.919    -0.036    28.899     8.816
    30   6 C        2.923    -0.038    28.940     8.822
    31   6 C        2.988    -0.006    28.166     8.706
    32   1 H        0.925     0.041     2.430     2.438
    33   1 H        0.925     0.039     2.463     2.454
    34   1 H        0.925     0.042     2.427     2.436
    35   1 H        0.925     0.037     2.488     2.467
    36   1 H        0.925     0.040     2.451     2.448
    37   1 H        0.925     0.039     2.456     2.451
    38   1 H        0.926     0.041     2.437     2.441
    39   1 H        0.926     0.035     2.519     2.482
    40   1 H        0.926     0.037     2.495     2.470
    41   1 H        0.926     0.041     2.433     2.439
    42   1 H        0.926     0.045     2.389     2.417
    43   1 H        0.926     0.065     2.145     2.290
    44   1 H        0.926     0.066     2.125     2.279
    45   1 H        0.926     0.042     2.418     2.432
    46   1 H        0.926     0.044     2.401     2.423
    47   1 H        0.926     0.051     2.306     2.375
    48   1 H        0.926     0.053     2.287     2.365
    49   1 H        0.926     0.041     2.435     2.440
    50   1 H        0.926     0.036     2.503     2.474
    51   1 H        0.926     0.034     2.523     2.484
    52   1 H        0.926     0.041     2.438     2.441

molecular dipole:
                 x           y           z       tot (Debye)
 q only:       -1.597      -1.240       0.061
   full:       -1.595      -1.404       0.036       5.402

 projected vibrational frequencies (cm⁻¹)
eigval :       -0.00    -0.00    -0.00     0.00     0.00     0.00
eigval :       20.03    29.29    47.66    57.22    64.51    91.67
eigval :      117.42   130.40   135.63   155.10   174.91   180.61
eigval :      188.81   208.29   230.22   262.13   270.45   273.61
eigval :      286.64   304.88   317.92   338.14   349.80   363.17
eigval :      383.31   389.84   404.79   412.46   424.80   433.84
eigval :      456.40   463.96   493.61   499.50   499.96   527.03
eigval :      553.74   557.72   563.76   574.13   587.29   597.17
eigval :      610.07   627.62   647.61   672.16   679.59   693.95
eigval :      706.19   725.71   731.90   736.79   778.34   784.93
eigval :      789.37   810.56   825.25   827.75   856.23   861.69
eigval :      880.82   887.19   890.32   908.38   914.53   918.33
eigval :      921.24   922.29   924.44   928.27   936.86   940.98
eigval :      944.94   967.58  1001.03  1010.38  1074.00  1077.41
eigval :     1079.65  1099.50  1106.93  1109.66  1136.33  1138.49
eigval :     1152.32  1169.39  1172.06  1178.99  1183.56  1191.05
eigval :     1197.58  1218.57  1225.78  1231.37  1238.39  1248.42
eigval :     1258.97  1269.01  1274.61  1279.88  1294.91  1321.43
eigval :     1327.46  1339.01  1342.86  1374.01  1399.97  1417.22
eigval :     1423.00  1435.35  1439.90  1445.09  1450.05  1455.03
eigval :     1471.80  1490.74  1493.29  1495.92  1507.85  1523.79
eigval :     1539.76  1571.74  1576.94  1584.69  1589.38  1589.91
eigval :     1597.02  1602.65  1677.20  3027.89  3030.25  3032.49
eigval :     3035.30  3046.67  3056.32  3082.26  3082.73  3084.13
eigval :     3089.02  3089.59  3092.56  3098.16  3098.79  3099.60
eigval :     3101.25  3105.26  3112.34  3112.77  3116.85  3124.79

   temp. (K)  partition function   enthalpy   heat capacity  entropy
                                   cal/mol     cal/K/mol   cal/K/mol   J/K/mol
 298.15  VIB  0.659E+09            13606.788     92.210     80.757
         ROT  0.202E+08              888.752      2.981     36.406
         INT  0.133E+17            14495.540     95.191    117.163
         TR   0.784E+28             1481.254      4.968     43.856
         TOT                       15976.7943   100.1590   161.0190   673.7035

       T/K    H(0)-H(T)+PV         H(T)/Eh          T*S/Eh         G(T)/Eh
   ------------------------------------------------------------------------
    298.15    0.254606E-01    0.429822E+00    0.765053E-01    0.353316E+00
   ------------------------------------------------------------------------

         :::::::::::::::::::::::::::::::::::::::::::::::::::::
         ::                  THERMODYNAMIC                  ::
         :::::::::::::::::::::::::::::::::::::::::::::::::::::
         :: total free energy         -81.416156370763 Eh   ::
         ::.................................................::
         :: total energy              -81.769472836038 Eh   ::
         :: zero point energy           0.404361143980 Eh   ::
         :: G(RRHO) w/o ZPVE           -0.051044678705 Eh   ::
         :: G(RRHO) contrib.            0.353316465275 Eh   ::
         :::::::::::::::::::::::::::::::::::::::::::::::::::::

           -------------------------------------------------
          | TOTAL ENERGY              -81.769472836038 Eh   |
          | TOTAL ENTHALPY            -81.339651049747 Eh   |
          | TOTAL FREE ENERGY         -81.416156370763 Eh   |
          | GRADIENT NORM               0.000023624101 Eh/α |
          | HOMO-LUMO GAP               2.417590701308 eV   |
           -------------------------------------------------

 * finished run on 2025/07/16 at 13:02:02.478
