   * xtb version 6.7.1 (edcfbbe) compiled by 'albert@albert-system' on 2024-07-22

   ID    Z sym.   atoms
    1    6 C      1-9, 11-15, 17-22, 24-31
    2    7 N      10
    3    8 O      16, 23
    4    1 H      32-52

          program call               : xtb data2507/gas/ACRXTN/ACRXTN.xyz --gfn 2 --ohess vtight --parallel 40 --molden --ceasefiles --namespace data2507/gas/ACRXTN/ACRXTN_gas_S0_preOpt
          :  Hamiltonian                  GFN2-xTB          :
 * total energy  :   -81.7538582 Eh     change       -0.5653931E-09 Eh
 * total energy  :   -81.7652758 Eh     change       -0.1141763E-01 Eh
 * total energy  :   -81.7684774 Eh     change       -0.3201627E-02 Eh
 * total energy  :   -81.7689266 Eh     change       -0.4491460E-03 Eh
 * total energy  :   -81.7691296 Eh     change       -0.2030115E-03 Eh
 * total energy  :   -81.7691478 Eh     change       -0.1823066E-04 Eh
 * total energy  :   -81.7691521 Eh     change       -0.4259192E-05 Eh
 * total energy  :   -81.7691531 Eh     change       -0.1037612E-05 Eh
 * total energy  :   -81.7691538 Eh     change       -0.6654016E-06 Eh
 * total energy  :   -81.7691542 Eh     change       -0.4107246E-06 Eh
 * total energy  :   -81.7691545 Eh     change       -0.2592696E-06 Eh
 * total energy  :   -81.7691546 Eh     change       -0.1858370E-06 Eh
 * total energy  :   -81.7691548 Eh     change       -0.1486338E-06 Eh
 * total energy  :   -81.7691550 Eh     change       -0.1575641E-06 Eh
 * total energy  :   -81.7691552 Eh     change       -0.2178684E-06 Eh
 * total energy  :   -81.7691554 Eh     change       -0.2778511E-06 Eh
 * total energy  :   -81.7691557 Eh     change       -0.2028744E-06 Eh
 * total energy  :   -81.7691557 Eh     change       -0.5554287E-07 Eh
   *** GEOMETRY OPTIMIZATION CONVERGED AFTER 18 ITERATIONS ***

 final structure:
================
52
 xtb: 6.7.1 (edcfbbe)
C           -5.06515148067014       -0.00001148667500       -0.71178438481902
C           -3.92829624005532       -0.00001409635370        0.32636810431972
C           -4.50840145803708       -0.00003364597936        1.75241374632014
C           -3.10036231184990        1.25746808912608        0.13891660521683
C           -3.70310307223158        2.50076611611095        0.27208010223676
C           -2.99859838543874        3.67951047916341        0.11086223689239
C           -1.65060319924798        3.62639165818982       -0.19372799714863
C           -1.02584993707816        2.40468131152580       -0.33114336039647
C           -1.73665291699627        1.21276182824158       -0.16697582718249
N           -1.08079419141629        0.00001425641147       -0.30980897504776
C            0.30566772451710        0.00002957795340       -0.61553734090284
C            0.72532247296737        0.00009496184360       -1.94857080766312
C            2.06884825228614        0.00010194989748       -2.23793719018474
C            3.02412852464061        0.00005102497236       -1.21752400052762
C            4.45953446566929        0.00007771718881       -1.54374744728694
O            4.88280614919731        0.00011339443468       -2.68551092671042
C            5.33120598487422        0.00000924670045       -0.35850131627991
C            6.72119195709463        0.00001170482518       -0.50467161765896
C            7.54437149842226       -0.00002471125632        0.59758488402399
C            6.98990838974077       -0.00007858244977        1.87461974632712
C            5.62265598927614       -0.00009652541571        2.04466245346963
C            4.78446168919665       -0.00004841761707        0.92922151909206
O            3.44881768528195       -0.00006364410678        1.16471397092499
C            2.59578889252681       -0.00001397447236        0.11505732848170
C            1.23283973098782       -0.00002486408170        0.41034240011841
C           -1.73663442047352       -1.21274660908694       -0.16700100024055
C           -1.02581641192280       -2.40465196738408       -0.33120690237031
C           -1.65055218276429       -3.62637472925744       -0.19382250844387
C           -2.99854564752023       -3.67952012342760        0.11077030235366
C           -3.70306673986428       -2.50078992118884        0.27202015761267
C           -3.10034332864303       -1.25747993201047        0.13888999115928
H           -5.69218302064160       -0.88030018496714       -0.60106526866092
H           -4.64786203473818       -0.00000446175960       -1.71703808994611
H           -5.69218822002373        0.88027209371223       -0.60105466281079
H           -3.69956961275618       -0.00002649391374        2.48076954416598
H           -5.12213637775141        0.88032655565505        1.92179169172312
H           -5.12210785989137       -0.88041617042599        1.92177892980577
H           -4.75478933937290        2.55795301104160        0.50890259313899
H           -3.49915278062177        4.62924946924747        0.22158858015010
H           -1.08194265883939        4.53477149122980       -0.32547406748636
H            0.02618324417930        2.36896712085987       -0.57033579337523
H           -0.01431142900913        0.00014003373801       -2.73421887384685
H            2.42696262796059        0.00015926049715       -3.25627012022099
H            7.11678369396977        0.00008163238364       -1.50912522734954
H            8.61649727259136       -0.00000839112493        0.47600345725652
H            7.63398017003639       -0.00012315083723        2.74095385259563
H            5.17567248664496       -0.00014583017267        3.02628991551698
H            0.91488926201489       -0.00007927067988        1.44114120001311
H            0.02621391092404       -2.36891668324753       -0.57040800491947
H           -1.08187929111438       -4.53474298036873       -0.32559597502043
H           -3.49908623129419       -4.62926892457141        0.22147342299617
H           -4.75475229473680       -2.55799721211786        0.50884095058868

          :  Hamiltonian                  GFN2-xTB          :
         :: gradient norm              0.000024663800 Eh/a0 ::
         :: HOMO-LUMO gap              1.487820917708 eV    ::
         :: SCC energy               -83.159712086859 Eh    ::
         :: -> dispersion             -0.068777124266 Eh    ::
         :: repulsion energy           1.390556379914 Eh    ::

    * Orbital Energies and Occupations

         #    Occupation            Energy/Eh            Energy/eV
      -------------------------------------------------------------
         1        2.0000           -0.7575003             -20.6126
       ...           ...                  ...                  ...
        63        2.0000           -0.4381480             -11.9226
        64        2.0000           -0.4354754             -11.8499
        65        2.0000           -0.4301993             -11.7063
        66        2.0000           -0.4270310             -11.6201
        67        2.0000           -0.4240746             -11.5397
        68        2.0000           -0.4093109             -11.1379
        69        2.0000           -0.4078870             -11.0992
        70        2.0000           -0.4037323             -10.9861
        71        2.0000           -0.4009231             -10.9097
        72        2.0000           -0.3979386             -10.8285
        73        2.0000           -0.3927660             -10.6877
        74        2.0000           -0.3925954             -10.6831
        75        2.0000           -0.3474731              -9.4552 (HOMO)
        76                         -0.2927968              -7.9674 (LUMO)
        77                         -0.2565985              -6.9824
        78                         -0.2475933              -6.7374
        79                         -0.2290317              -6.2323
        80                         -0.2240343              -6.0963
        81                         -0.2190671              -5.9611
        82                         -0.2180421              -5.9332
        83                         -0.1901088              -5.1731
        84                         -0.1894553              -5.1553
        85                         -0.1224053              -3.3308
        86                         -0.0909703              -2.4754
       ...                                ...                  ...
       145                          0.6982108              18.9993
      -------------------------------------------------------------
                  HL-Gap            0.0546763 Eh            1.4878 eV

     #   Z          covCN         q      C6AA      α(0)
     1   6 C        3.761    -0.103    22.521     6.765
     2   6 C        3.909     0.021    20.159     6.382
     3   6 C        3.761    -0.103    22.519     6.765
     4   6 C        2.979    -0.014    28.345     8.733
     5   6 C        2.928    -0.036    28.891     8.815
     6   6 C        2.917    -0.044    29.104     8.847
     7   6 C        2.920    -0.032    28.808     8.802
     8   6 C        2.924    -0.059    29.469     8.902
     9   6 C        2.929     0.058    26.701     8.474
    10   7 N        2.755    -0.071    22.616     7.063
    11   6 C        2.929     0.081    26.197     8.394
    12   6 C        2.918    -0.044    29.102     8.846
    13   6 C        2.923    -0.019    28.490     8.753
    14   6 C        2.974    -0.043    29.056     8.842
    15   6 C        2.830     0.225    23.275     7.906
    16   8 O        0.857    -0.393    21.532     6.221
    17   6 C        2.974    -0.040    28.983     8.831
    18   6 C        2.923    -0.019    28.476     8.751
    19   6 C        2.916    -0.034    28.845     8.807
    20   6 C        2.921    -0.021    28.538     8.760
    21   6 C        2.916    -0.050    29.252     8.869
    22   6 C        2.886     0.143    24.895     8.180
    23   8 O        1.711    -0.210    17.486     5.646
    24   6 C        2.885     0.144    24.867     8.175
    25   6 C        2.919    -0.062    29.533     8.912
    26   6 C        2.929     0.058    26.701     8.474
    27   6 C        2.924    -0.059    29.469     8.902
    28   6 C        2.920    -0.032    28.808     8.802
    29   6 C        2.917    -0.044    29.104     8.847
    30   6 C        2.928    -0.036    28.891     8.815
    31   6 C        2.979    -0.014    28.345     8.733
    32   1 H        0.925     0.040     2.454     2.450
    33   1 H        0.925     0.032     2.563     2.504
    34   1 H        0.925     0.040     2.454     2.450
    35   1 H        0.925     0.031     2.569     2.506
    36   1 H        0.925     0.040     2.455     2.450
    37   1 H        0.925     0.040     2.455     2.450
    38   1 H        0.926     0.031     2.576     2.510
    39   1 H        0.926     0.027     2.630     2.536
    40   1 H        0.926     0.028     2.615     2.529
    41   1 H        0.926     0.021     2.720     2.579
    42   1 H        0.926     0.056     2.252     2.347
    43   1 H        0.926     0.075     2.031     2.229
    44   1 H        0.926     0.070     2.084     2.257
    45   1 H        0.926     0.048     2.347     2.396
    46   1 H        0.926     0.049     2.327     2.385
    47   1 H        0.926     0.057     2.236     2.338
    48   1 H        0.926     0.064     2.150     2.293
    49   1 H        0.926     0.021     2.720     2.579
    50   1 H        0.926     0.028     2.615     2.529
    51   1 H        0.926     0.027     2.630     2.536
    52   1 H        0.926     0.031     2.576     2.510

molecular dipole:
                 x           y           z       tot (Debye)
 q only:       -0.133      -0.000       1.037
   full:       -0.115      -0.000       1.182       3.019

 projected vibrational frequencies (cm⁻¹)
eigval :       -0.00    -0.00     0.00     0.00     0.00     0.00
eigval :      -12.45    20.08    27.39    45.29    52.11    95.91
eigval :       99.40   105.23   126.57   129.02   151.41   156.96
eigval :      190.47   211.61   219.70   229.78   237.21   264.81
eigval :      288.72   296.24   315.17   330.61   334.12   345.57
eigval :      378.31   382.26   395.32   411.53   415.72   433.69
eigval :      449.15   461.18   490.00   499.52   512.99   515.43
eigval :      542.32   547.54   555.72   557.06   586.47   616.70
eigval :      620.66   647.54   650.21   671.00   681.75   684.56
eigval :      692.87   703.19   736.89   742.88   776.34   777.64
eigval :      790.29   822.45   828.51   835.16   861.95   864.77
eigval :      865.32   875.65   882.40   912.86   913.70   917.29
eigval :      921.05   921.08   922.60   922.83   924.49   929.72
eigval :      938.67   957.22   998.52  1014.38  1076.68  1077.37
eigval :     1083.32  1109.47  1112.71  1119.00  1124.92  1140.86
eigval :     1151.40  1160.90  1170.70  1180.34  1183.33  1187.24
eigval :     1187.41  1211.83  1222.36  1233.34  1239.51  1249.41
eigval :     1251.97  1268.90  1272.53  1294.57  1314.69  1325.67
eigval :     1334.86  1342.74  1345.73  1348.46  1402.65  1411.43
eigval :     1420.76  1434.32  1436.78  1444.47  1445.78  1464.93
eigval :     1482.04  1489.94  1490.75  1497.33  1500.49  1505.42
eigval :     1549.60  1572.73  1576.30  1585.02  1592.10  1593.33
eigval :     1596.87  1603.46  1688.12  3027.04  3029.24  3039.82
eigval :     3042.52  3048.62  3052.50  3078.63  3078.78  3083.04
eigval :     3083.15  3088.51  3092.45  3092.72  3095.86  3096.70
eigval :     3098.79  3099.60  3104.18  3106.03  3108.83  3110.02

   temp. (K)  partition function   enthalpy   heat capacity  entropy
                                   cal/mol     cal/K/mol   cal/K/mol   J/K/mol
 298.15  VIB  0.880E+10            13970.906     91.847     84.378
         ROT  0.207E+08              888.752      2.981     36.459
         INT  0.182E+18            14859.658     94.828    120.837
         TR   0.784E+28             1481.254      4.968     43.856
         TOT                       16340.9122    99.7961   164.6931   689.0759

       T/K    H(0)-H(T)+PV         H(T)/Eh          T*S/Eh         G(T)/Eh
   ------------------------------------------------------------------------
    298.15    0.260409E-01    0.429293E+00    0.782510E-01    0.351042E+00
   ------------------------------------------------------------------------

         :::::::::::::::::::::::::::::::::::::::::::::::::::::
         ::                  THERMODYNAMIC                  ::
         :::::::::::::::::::::::::::::::::::::::::::::::::::::
         :: total free energy         -81.418114059534 Eh   ::
         ::.................................................::
         :: total energy              -81.769155706945 Eh   ::
         :: zero point energy           0.403251752360 Eh   ::
         :: G(RRHO) w/o ZPVE           -0.052210104949 Eh   ::
         :: G(RRHO) contrib.            0.351041647411 Eh   ::
         :::::::::::::::::::::::::::::::::::::::::::::::::::::

           -------------------------------------------------
          | TOTAL ENERGY              -81.769155706945 Eh   |
          | TOTAL ENTHALPY            -81.339863053465 Eh   |
          | TOTAL FREE ENERGY         -81.418114059534 Eh   |
          | GRADIENT NORM               0.000024667650 Eh/α |
          | HOMO-LUMO GAP               1.487817149824 eV   |
           -------------------------------------------------

 * finished run on 2025/07/16 at 13:00:37.909
