   * xtb version 6.7.1 (edcfbbe) compiled by 'albert@albert-system' on 2024-07-22

   ID    Z sym.   atoms
    1    6 C      1-8, 10-14, 16-21, 23-36, 38-53
    2    7 N      9, 15, 22, 37
    3    1 H      54-91

          program call               : xtb data2507/toluene/PPZTPI/PPZTPI_toluene_S0_crest.xyz --gfn 2 --gbsa toluene --ohess vtight --parallel 40 --molden --ceasefiles --namespace data2507/toluene/PPZTPI/PPZTPI_toluene_S0_finalOpt
      * Solvation model:               GBSA
        Solvent                        toluene
        Solvent mass                       9.2140E+01 g/mol
          :  Hamiltonian                  GFN2-xTB          :
 * total energy  :  -136.1514511 Eh     change       -0.2246878E-08 Eh
 * total energy  :  -136.1515147 Eh     change       -0.6357228E-04 Eh
 * total energy  :  -136.1515681 Eh     change       -0.5345618E-04 Eh
 * total energy  :  -136.1515971 Eh     change       -0.2901206E-04 Eh
 * total energy  :  -136.1516226 Eh     change       -0.2546088E-04 Eh
 * total energy  :  -136.1516645 Eh     change       -0.4184919E-04 Eh
 * total energy  :  -136.1516858 Eh     change       -0.2138685E-04 Eh
 * total energy  :  -136.1517269 Eh     change       -0.4104995E-04 Eh
 * total energy  :  -136.1517583 Eh     change       -0.3137838E-04 Eh
 * total energy  :  -136.1517933 Eh     change       -0.3504259E-04 Eh
 * total energy  :  -136.1527253 Eh     change       -0.5983431E-06 Eh
 * total energy  :  -136.1527259 Eh     change       -0.5861318E-06 Eh
 * total energy  :  -136.1527264 Eh     change       -0.5128971E-06 Eh
 * total energy  :  -136.1527269 Eh     change       -0.5021042E-06 Eh
 * total energy  :  -136.1527275 Eh     change       -0.5888377E-06 Eh
 * total energy  :  -136.1527281 Eh     change       -0.6345016E-06 Eh
 * total energy  :  -136.1527287 Eh     change       -0.6012274E-06 Eh
 * total energy  :  -136.1527293 Eh     change       -0.5455276E-06 Eh
 * total energy  :  -136.1527293 Eh     change       -0.8127358E-08 Eh
   *** GEOMETRY OPTIMIZATION CONVERGED AFTER 94 ITERATIONS ***

 final structure:
================
91
 xtb: 6.7.1 (edcfbbe)
C           -1.90649083443792        6.34034947046382        0.39398562749525
C           -1.27283098196838        5.45338764655079       -0.68843927476666
C           -1.57198729880122        6.07668038714812       -2.05506386455985
C            0.25136410537407        5.41249823827952       -0.50276097293956
C           -1.82525554941397        4.04324069294469       -0.55335623951942
C           -2.54490540560686        3.41283774291360       -1.56329307373523
C           -3.02896928319818        2.12595332644009       -1.40781749813511
C           -2.80660524581489        1.43753968968800       -0.22229112023041
N           -3.25927073493288        0.10878586247100       -0.06262557278215
C           -2.43557064967226       -0.98349239971397        0.08124823028353
C           -0.98266584822032       -0.93258663580179        0.05204180181112
C           -0.27301377184336       -1.79497562914313        0.88973755345617
C            1.10575216019787       -1.78404811124313        0.90578832837293
C            1.80863093943764       -0.91880433872712        0.07012578413995
N            3.22159651494329       -0.89962765969829        0.08695286598068
C            3.93444277874328       -2.02126007599799       -0.34473565340453
C            3.28486585644509       -3.13604965617961       -0.85315904897305
C            3.99717859001919       -4.25983252473846       -1.25344717281094
C            5.37043899371082       -4.27486916475862       -1.14691726876447
C            6.03752000397265       -3.15242205411509       -0.67312361145889
C            5.34069739440861       -2.01442910214491       -0.29377010597301
N            6.01007510026165       -0.87346984985041        0.14278859822510
C            7.43012775744292       -0.85987920083147        0.17267315876597
C            8.15099148637661       -0.76405358637502       -1.01216640662011
C            9.53425551562650       -0.75280748911537       -0.97892712676673
C           10.20238648762440       -0.83173061285209        0.23221590164582
C            9.48463080380093       -0.92480338622929        1.41360255351612
C            8.10122216422630       -0.94181413649732        1.38735988179349
C            5.30228924938425        0.25843265439604        0.53964933761515
C            5.96315952058502        1.41239142761014        0.93504798847100
C            5.25805769232586        2.52708263495017        1.37010803165367
C            3.88226680070100        2.48861320036704        1.42018557920957
C            3.20595701900503        1.34933729180921        1.00125155349848
C            3.89492631604943        0.24031427268628        0.53312068648691
C            1.10560474021685       -0.07879444387394       -0.78873678044633
C           -0.27466023392353       -0.08399505278803       -0.79832580539288
N           -3.11113496059337       -2.09537579667629        0.24905883247334
C           -4.42348309448941       -1.74179726702603        0.21210360689251
C           -5.55891940401594       -2.59339308087160        0.31662776031575
C           -5.41762349383613       -3.97804242524828        0.46279985595133
C           -6.52524664868591       -4.78524433025252        0.53966747823200
C           -7.79432939659941       -4.21327151054824        0.46943300503781
C           -7.94523975601728       -2.85317274270902        0.32967955041032
C           -6.83790261757097       -1.99374853963147        0.25196702599761
C           -6.96534726031605       -0.55108297179842        0.12978252396103
C           -8.21897411443413        0.07813202363154        0.12155503633023
C           -8.35000201478617        1.44471761919904        0.04366834897840
C           -7.21829808502793        2.25210778308090       -0.01594633145950
C           -5.97198500594949        1.67556157842215       -0.01833501960188
C           -5.81659254721936        0.28268252772870        0.03552918552992
C           -4.54833556886373       -0.36470376930843        0.03300322795692
C           -2.09087544468510        2.04993277202401        0.79834604026678
C           -1.61212933517658        3.33370131012410        0.62713437153000
H           -1.53597628170797        7.35919088966464        0.30473151543160
H           -1.67179607470603        5.97913136401401        1.39146197141903
H           -2.98901581174906        6.35626243844464        0.28268368075628
H           -2.64328892557216        6.15884555695249       -2.22371296627262
H           -1.12586945006008        5.49384037946996       -2.85769723538306
H           -1.14989372544117        7.07874424361557       -2.09434378244349
H            0.52195612824226        5.05025170088668        0.48471429588352
H            0.70579034856988        4.75645757681438       -1.24267181057486
H            0.66807171478631        6.40991412951598       -0.62421953623597
H           -2.73830562530845        3.91461763286750       -2.49661239260773
H           -3.58306860207742        1.65020017372025       -2.20480422230762
H           -0.82583997086915       -2.46330695429375        1.53171653657129
H            1.65003774016604       -2.44366155944177        1.56549148956793
H            2.20962893250631       -3.13355409097908       -0.94087245867623
H            3.46371393032942       -5.11432225333010       -1.64126137153348
H            5.93716368440223       -5.14695880618873       -1.43579909085706
H            7.11388264603789       -3.16502851642399       -0.60050528626859
H            7.62087590547018       -0.70218833898861       -1.95148183809822
H           10.09120680130052       -0.67860029800851       -1.90132135695625
H           11.28190625506423       -0.82090639249485        0.25520983551783
H           10.00284342695164       -0.98850334557390        2.35906914694679
H            7.53279900363538       -1.01480492965774        2.30314433530112
H            7.04122009397851        1.44262143511583        0.90701222788087
H            5.79742515408440        3.41123675770754        1.67426364630473
H            3.32094378637504        3.33723366371251        1.77961664851109
H            2.12813515406200        1.32869470304716        1.04345378355444
H            1.65026655793502        0.57571238984703       -1.45319435299949
H           -0.79913857905883        0.55710073385523       -1.48949326887073
H           -4.41727988849236       -4.38145202903257        0.50658725212395
H           -6.41869686327170       -5.85443758385081        0.65056272849427
H           -8.66973401312949       -4.84439900003407        0.52507875578078
H           -8.94676639468260       -2.45667165901936        0.27809555022890
H           -9.11661544169984       -0.51534036386691        0.18466645265828
H           -9.33321933185965        1.89207332200668        0.03957241104777
H           -7.31800633265748        3.32679360378752       -0.05673695598240
H           -5.09651525642719        2.30387650021374       -0.05045296035393
H           -1.91282017508367        1.51468982143311        1.71991129659742
H           -1.06140590720707        3.78381164626864        1.43819571855518

          :  Hamiltonian                  GFN2-xTB          :
         :: gradient norm              0.000069772906 Eh/a0 ::
         :: HOMO-LUMO gap              1.653178030415 eV    ::
         :: SCC energy              -138.639478489332 Eh    ::
         :: -> dispersion             -0.129892059468 Eh    ::
         :: -> Gsolv                  -0.055373026875 Eh    ::
         :: repulsion energy           2.486749219128 Eh    ::

    * Orbital Energies and Occupations

         #    Occupation            Energy/Eh            Energy/eV
      -------------------------------------------------------------
         1        2.0000           -0.6884714             -18.7343
       ...           ...                  ...                  ...
       115        2.0000           -0.4141372             -11.2692
       116        2.0000           -0.4126036             -11.2275
       117        2.0000           -0.4091383             -11.1332
       118        2.0000           -0.4076733             -11.0934
       119        2.0000           -0.4056543             -11.0384
       120        2.0000           -0.4034594             -10.9787
       121        2.0000           -0.4022877             -10.9468
       122        2.0000           -0.3972476             -10.8097
       123        2.0000           -0.3827845             -10.4161
       124        2.0000           -0.3796481             -10.3308
       125        2.0000           -0.3746666             -10.1952
       126        2.0000           -0.3655320              -9.9466
       127        2.0000           -0.3235086              -8.8031 (HOMO)
       128                         -0.2627554              -7.1499 (LUMO)
       129                         -0.2507539              -6.8234
       130                         -0.2444578              -6.6520
       131                         -0.2374808              -6.4622
       132                         -0.2349441              -6.3932
       133                         -0.2337194              -6.3598
       134                         -0.2330181              -6.3407
       135                         -0.2320802              -6.3152
       136                         -0.2283215              -6.2129
       137                         -0.2200964              -5.9891
       138                         -0.2128031              -5.7907
       ...                                ...                  ...
       250                          0.7251218              19.7316
      -------------------------------------------------------------
                  HL-Gap            0.0607532 Eh            1.6532 eV

     #   Z          covCN         q      C6AA      α(0)
     1   6 C        3.761    -0.107    22.591     6.775
     2   6 C        3.903     0.027    20.067     6.368
     3   6 C        3.761    -0.110    22.653     6.785
     4   6 C        3.761    -0.107    22.584     6.774
     5   6 C        2.973     0.014    27.704     8.634
     6   6 C        2.925    -0.037    28.931     8.821
     7   6 C        2.919    -0.041    29.011     8.833
     8   6 C        2.912     0.060    26.658     8.466
     9   7 N        2.840    -0.054    22.275     7.010
    10   6 C        3.195     0.136    24.558     8.080
    11   6 C        2.973    -0.003    28.098     8.695
    12   6 C        2.927    -0.029    28.717     8.788
    13   6 C        2.920    -0.039    28.973     8.827
    14   6 C        2.923     0.068    26.467     8.437
    15   7 N        2.751    -0.081    22.821     7.095
    16   6 C        2.924     0.049    26.907     8.507
    17   6 C        2.923    -0.063    29.575     8.918
    18   6 C        2.918    -0.044    29.100     8.846
    19   6 C        2.918    -0.044    29.085     8.844
    20   6 C        2.923    -0.064    29.589     8.920
    21   6 C        2.926     0.051    26.863     8.500
    22   7 N        2.752    -0.084    22.879     7.104
    23   6 C        2.924     0.068    26.486     8.440
    24   6 C        2.922    -0.039    28.965     8.826
    25   6 C        2.919    -0.028    28.706     8.786
    26   6 C        2.919    -0.031    28.776     8.797
    27   6 C        2.919    -0.028    28.705     8.786
    28   6 C        2.922    -0.039    28.964     8.826
    29   6 C        2.926     0.051    26.860     8.499
    30   6 C        2.924    -0.064    29.589     8.920
    31   6 C        2.918    -0.044    29.092     8.845
    32   6 C        2.918    -0.044    29.104     8.847
    33   6 C        2.923    -0.064    29.582     8.919
    34   6 C        2.924     0.049    26.909     8.507
    35   6 C        2.921    -0.040    28.999     8.831
    36   6 C        2.921    -0.035    28.874     8.812
    37   7 N        1.894    -0.320    29.144     8.003
    38   6 C        3.207     0.060    26.080     8.316
    39   6 C        2.985    -0.003    28.099     8.695
    40   6 C        2.921    -0.034    28.838     8.806
    41   6 C        2.917    -0.032    28.797     8.800
    42   6 C        2.917    -0.034    28.858     8.809
    43   6 C        2.921    -0.037    28.910     8.817
    44   6 C        2.979    -0.005    28.143     8.702
    45   6 C        2.979    -0.002    28.066     8.690
    46   6 C        2.922    -0.035    28.878     8.812
    47   6 C        2.916    -0.034    28.854     8.808
    48   6 C        2.917    -0.033    28.813     8.802
    49   6 C        2.919    -0.041    29.028     8.835
    50   6 C        2.978    -0.005    28.145     8.702
    51   6 C        3.075     0.022    27.426     8.586
    52   6 C        2.920    -0.042    29.034     8.836
    53   6 C        2.928    -0.032    28.793     8.800
    54   1 H        0.925     0.043     2.406     2.425
    55   1 H        0.925     0.039     2.467     2.456
    56   1 H        0.925     0.035     2.517     2.481
    57   1 H        0.925     0.039     2.467     2.456
    58   1 H        0.925     0.039     2.469     2.457
    59   1 H        0.925     0.042     2.427     2.436
    60   1 H        0.925     0.039     2.468     2.456
    61   1 H        0.925     0.035     2.516     2.481
    62   1 H        0.925     0.043     2.409     2.427
    63   1 H        0.926     0.053     2.280     2.361
    64   1 H        0.926     0.038     2.476     2.461
    65   1 H        0.926     0.051     2.307     2.375
    66   1 H        0.926     0.047     2.360     2.402
    67   1 H        0.926     0.027     2.627     2.535
    68   1 H        0.926     0.027     2.630     2.536
    69   1 H        0.926     0.027     2.624     2.533
    70   1 H        0.926     0.028     2.620     2.531
    71   1 H        0.926     0.040     2.449     2.447
    72   1 H        0.926     0.042     2.426     2.436
    73   1 H        0.926     0.041     2.429     2.437
    74   1 H        0.926     0.042     2.425     2.435
    75   1 H        0.926     0.040     2.447     2.446
    76   1 H        0.926     0.027     2.626     2.534
    77   1 H        0.926     0.028     2.621     2.532
    78   1 H        0.926     0.028     2.620     2.531
    79   1 H        0.926     0.027     2.633     2.537
    80   1 H        0.926     0.045     2.377     2.411
    81   1 H        0.926     0.038     2.482     2.463
    82   1 H        0.926     0.043     2.411     2.428
    83   1 H        0.926     0.032     2.555     2.499
    84   1 H        0.926     0.032     2.560     2.502
    85   1 H        0.926     0.035     2.523     2.484
    86   1 H        0.926     0.037     2.494     2.470
    87   1 H        0.926     0.032     2.552     2.498
    88   1 H        0.926     0.032     2.562     2.503
    89   1 H        0.926     0.031     2.575     2.510
    90   1 H        0.926     0.033     2.549     2.497
    91   1 H        0.926     0.045     2.379     2.412

molecular dipole:
                 x           y           z       tot (Debye)
 q only:        1.028       1.748      -0.195
   full:        0.855       2.000      -0.227       5.559

 projected vibrational frequencies (cm⁻¹)
eigval :       -0.00    -0.00    -0.00    -0.00     0.00     0.00
eigval :        9.90    10.29    15.00    19.58    22.65    31.92
eigval :       32.49    38.75    43.28    48.45    54.74    64.13
eigval :       66.69    73.67    80.90    89.74    97.27   115.55
eigval :      119.29   122.80   140.81   164.72   178.58   181.98
eigval :      186.61   205.70   214.23   225.02   229.67   234.70
eigval :      243.84   247.37   249.58   265.05   269.11   299.96
eigval :      300.99   312.30   315.34   350.17   360.88   369.51
eigval :      372.89   374.12   379.81   383.59   389.02   394.13
eigval :      397.95   403.16   408.07   415.63   424.12   429.07
eigval :      430.78   450.22   450.94   454.03   463.49   478.26
eigval :      486.72   506.96   510.67   511.94   517.39   529.29
eigval :      536.80   546.34   584.11   586.05   586.70   591.92
eigval :      594.01   600.49   604.38   611.14   640.59   644.81
eigval :      655.09   655.63   657.36   667.59   671.00   676.97
eigval :      677.97   683.99   698.66   704.80   717.85   736.56
eigval :      740.73   756.65   761.16   765.08   767.40   772.08
eigval :      782.19   789.86   818.76   823.88   852.79   856.79
eigval :      861.71   870.23   872.82   873.79   876.88   882.91
eigval :      885.84   887.16   889.65   903.80   905.24   905.64
eigval :      907.16   910.68   911.52   913.14   916.56   921.58
eigval :      924.22   926.00   928.57   929.62   930.27   931.91
eigval :      939.82   944.49   961.37   962.05   964.93   969.68
eigval :      994.45  1003.95  1016.13  1033.19  1035.58  1037.01
eigval :     1073.05  1077.58  1085.11  1106.85  1110.08  1111.77
eigval :     1113.32  1121.54  1127.03  1130.65  1135.37  1141.11
eigval :     1146.51  1151.63  1172.74  1180.10  1180.31  1180.57
eigval :     1181.42  1182.36  1184.12  1184.39  1194.11  1201.01
eigval :     1213.49  1218.33  1225.66  1232.12  1237.47  1252.46
eigval :     1255.65  1260.66  1261.77  1269.30  1275.61  1276.28
eigval :     1281.72  1284.65  1292.78  1305.48  1308.63  1311.09
eigval :     1312.63  1313.49  1319.42  1332.25  1337.59  1347.75
eigval :     1361.46  1366.95  1377.18  1397.91  1403.44  1404.24
eigval :     1405.60  1408.91  1419.04  1422.41  1428.32  1430.53
eigval :     1431.87  1435.10  1436.78  1463.48  1469.20  1487.94
eigval :     1488.75  1490.08  1492.61  1499.10  1503.24  1510.86
eigval :     1511.05  1513.03  1515.23  1515.96  1540.20  1553.93
eigval :     1555.82  1561.85  1567.53  1569.11  1576.92  1580.64
eigval :     1581.95  1590.39  1592.71  1593.35  1596.68  1598.68
eigval :     1603.08  3023.70  3024.08  3027.66  3028.06  3032.21
eigval :     3033.87  3039.19  3046.45  3052.26  3069.62  3073.02
eigval :     3075.68  3077.21  3077.38  3079.48  3079.56  3079.68
eigval :     3080.51  3083.27  3084.17  3085.12  3086.61  3087.92
eigval :     3088.63  3089.43  3095.79  3096.36  3098.20  3099.15
eigval :     3100.37  3100.57  3101.62  3104.10  3104.50  3105.91
eigval :     3109.37  3116.87  3121.57

   temp. (K)  partition function   enthalpy   heat capacity  entropy
                                   cal/mol     cal/K/mol   cal/K/mol   J/K/mol
 298.15  VIB  0.209E+21            25708.504    161.743    159.889
         ROT  0.124E+09              888.752      2.981     40.014
         INT  0.258E+29            26597.256    164.724    199.902
         TR   0.173E+29             1481.254      4.968     45.424
         TOT                       28078.5098   169.6921   245.3261  1026.4442

       T/K    H(0)-H(T)+PV         H(T)/Eh          T*S/Eh         G(T)/Eh
   ------------------------------------------------------------------------
    298.15    0.447460E-01    0.762424E+00    0.116562E+00    0.645862E+00
   ------------------------------------------------------------------------

         :::::::::::::::::::::::::::::::::::::::::::::::::::::
         ::                  THERMODYNAMIC                  ::
         :::::::::::::::::::::::::::::::::::::::::::::::::::::
         :: total free energy        -135.506867137926 Eh   ::
         ::.................................................::
         :: total energy             -136.152729272691 Eh   ::
         :: zero point energy           0.717678508682 Eh   ::
         :: G(RRHO) w/o ZPVE           -0.071816373917 Eh   ::
         :: G(RRHO) contrib.            0.645862134765 Eh   ::
         :::::::::::::::::::::::::::::::::::::::::::::::::::::

           -------------------------------------------------
          | TOTAL ENERGY             -136.152729272691 Eh   |
          | TOTAL ENTHALPY           -135.390304810459 Eh   |
          | TOTAL FREE ENERGY        -135.506867137926 Eh   |
          | GRADIENT NORM               0.000069783449 Eh/α |
          | HOMO-LUMO GAP               1.653178613297 eV   |
           -------------------------------------------------

 * finished run on 2025/09/04 at 09:46:12.343
