   * xtb version 6.7.1 (edcfbbe) compiled by 'albert@albert-system' on 2024-07-22

   ID    Z sym.   atoms
    1    6 C      1-8, 10-14, 16-21, 23-36, 38-53
    2    7 N      9, 15, 22, 37
    3    1 H      54-91

          program call               : xtb data2507/toluene/PPZTPI/PPZTPI_toluene_S0_finalOpt.xtbopt.xyz --gfn 2 --uhf 2 --gbsa toluene --ohess vtight --parallel 40 --molden --ceasefiles --namespace data2507/toluene/PPZTPI/PPZTPI_toluene_T1_preOpt
      * Solvation model:               GBSA
        Solvent                        toluene
        Solvent mass                       9.2140E+01 g/mol
          :  Hamiltonian                  GFN2-xTB          :
 * total energy  :  -136.0672238 Eh     change       -0.4991648E-08 Eh
 * total energy  :  -136.0715819 Eh     change       -0.4358104E-02 Eh
 * total energy  :  -136.0728832 Eh     change       -0.1301284E-02 Eh
 * total energy  :  -136.0730977 Eh     change       -0.2145694E-03 Eh
 * total energy  :  -136.0735197 Eh     change       -0.4219552E-03 Eh
 * total energy  :  -136.0738433 Eh     change       -0.3236181E-03 Eh
 * total energy  :  -136.0742026 Eh     change       -0.3592496E-03 Eh
 * total energy  :  -136.0743971 Eh     change       -0.1945277E-03 Eh
 * total energy  :  -136.0744893 Eh     change       -0.9226687E-04 Eh
 * total energy  :  -136.0745475 Eh     change       -0.5814865E-04 Eh
 * total energy  :  -136.0751859 Eh     change       -0.9130402E-06 Eh
 * total energy  :  -136.0751869 Eh     change       -0.1012151E-05 Eh
 * total energy  :  -136.0751882 Eh     change       -0.1323757E-05 Eh
 * total energy  :  -136.0751902 Eh     change       -0.1952703E-05 Eh
 * total energy  :  -136.0751927 Eh     change       -0.2507218E-05 Eh
 * total energy  :  -136.0751955 Eh     change       -0.2827479E-05 Eh
 * total energy  :  -136.0751983 Eh     change       -0.2769844E-05 Eh
 * total energy  :  -136.0752010 Eh     change       -0.2686692E-05 Eh
 * total energy  :  -136.0752010 Eh     change       -0.2325032E-07 Eh
   *** GEOMETRY OPTIMIZATION CONVERGED AFTER 94 ITERATIONS ***

 final structure:
================
91
 xtb: 6.7.1 (edcfbbe)
C           -2.03297834056984        6.48165832048588        0.27459219911908
C           -1.42471618081546        5.59250364390460       -0.82043407289097
C           -1.78098291723162        6.19799669654908       -2.18151351744362
C            0.10589313883437        5.57817407489141       -0.68935983921204
C           -1.94945530205698        4.17474707192024       -0.65393104013331
C           -2.69172393156214        3.51917161167102       -1.63224264301671
C           -3.13900132052261        2.22333626038649       -1.45267269414146
C           -2.85641301726415        1.53878989955876       -0.27324647848920
N           -3.25631667864163        0.20786853251848       -0.09103319198054
C           -2.37353016473393       -0.86082340605332        0.17101070668875
C           -0.97171464240629       -0.83822468102119        0.09075510689441
C           -0.24970289658786       -1.92409590140314        0.67315290178593
C            1.11162460343131       -1.96396279498475        0.66716720946554
C            1.85499944604010       -0.92241164974241        0.07300395814565
N            3.26317074909925       -0.93627236615637        0.09811953276358
C            3.95685715746437       -1.98832053825670       -0.47768237185107
C            3.29351373483759       -3.00438474037655       -1.16892269157065
C            3.99054127735546       -4.06948136996541       -1.70450812534201
C            5.36929706037881       -4.14124589741984       -1.56634861065284
C            6.05246401399250       -3.12005590479885       -0.93316251803307
C            5.36841899476706       -2.02676972003057       -0.40503562257492
N            6.05007485059876       -0.97425887478934        0.17375918217708
C            7.47600078652402       -0.99358362261207        0.21174483768098
C            8.20080648717974       -0.63689074768724       -0.91812287455829
C            9.58421015894949       -0.65816285410048       -0.87725005631515
C           10.24053660235451       -1.03147542614103        0.28449500071887
C            9.51400695219038       -1.38587583236663        1.40978700355024
C            8.13022013610832       -1.36902269680631        1.37789142260479
C            5.36730326643690        0.10181078396870        0.70564186934689
C            6.05280935296252        1.17952076042152        1.26347058624877
C            5.36624467193697        2.22746581840406        1.84699784315390
C            3.98036657244333        2.19982820401078        1.90303793672268
C            3.28317581931001        1.14976301596788        1.33852146302096
C            3.95331538419772        0.10471592099388        0.69888544873747
C            1.16271079588697        0.12532162764132       -0.55995446280988
C           -0.20172477967451        0.16588283094337       -0.56538104732124
N           -3.06121788642847       -1.98141101395773        0.45635814136021
C           -4.35279305205821       -1.67288041611070        0.34748686803193
C           -5.46799979350833       -2.55071784276897        0.50004802859299
C           -5.28013022903628       -3.90955891664111        0.75981487532686
C           -6.35903591130589       -4.75845717475414        0.87375367590844
C           -7.64291399283484       -4.24573084350986        0.71977552084269
C           -7.84155645882628       -2.90553443323727        0.46812149167545
C           -6.76770209041319       -2.00668019873420        0.35817007305946
C           -6.94453017614338       -0.58718211324877        0.12999253656751
C           -8.21540814062394       -0.00502206936116        0.07210573296347
C           -8.40199327023880        1.34780739592563       -0.10050768310685
C           -7.29470498839744        2.19477432200331       -0.20296819581156
C           -6.03171581342217        1.67160296339304       -0.16142174776086
C           -5.80953655363667        0.28306573955569       -0.01835185486935
C           -4.53267293789812       -0.30311397228348        0.02882941877859
C           -2.12235812453057        2.18619502376454        0.71976099520886
C           -1.68279272295032        3.47833926328325        0.52484791821252
H           -1.68341705269354        7.50585651207686        0.16238394666090
H           -1.75765325041935        6.13353922121465        1.26637152677275
H           -3.11900600943696        6.47763270789682        0.20220769345859
H           -2.85891769463853        6.26255648129873       -2.31180131487653
H           -1.35781393709640        5.61114335751224       -2.99375159373176
H           -1.37457676525324        7.20536417780463       -2.24707064353996
H            0.41748082646104        5.21516013331230        0.28597830035529
H            0.54172448957432        4.93198742798137       -1.44893230508386
H            0.50116767944482        6.58308054920650       -0.82172643830903
H           -2.92891595972926        4.00822027462723       -2.56286318334915
H           -3.70484729831287        1.72860770997631       -2.23000588060637
H           -0.82676587377465       -2.70255522791441        1.14638655061136
H            1.63749056076899       -2.77517555555014        1.15041582061335
H            2.22384432817041       -2.94833858795001       -1.28827791820037
H            3.45402845012081       -4.84389668117299       -2.22996725832299
H            5.91523586647303       -4.98064104006900       -1.96709456279352
H            7.12650770739608       -3.16180861638888       -0.84858968438455
H            7.67833981079280       -0.34767419195750       -1.81787080066828
H           10.14902059295034       -0.38100521611506       -1.75439867280756
H           11.31949112819596       -1.04631994699147        0.31262485256755
H           10.02394348345425       -1.67767148605913        2.31536852565883
H            7.55347894893724       -1.64334672634136        2.24862698893724
H            7.13069882600125        1.18768925520771        1.24120112527811
H            5.91403637801131        3.05340109836702        2.27246882145340
H            3.43856944540157        2.99696042571582        2.38750003392007
H            2.20716259784086        1.12876164436831        1.39440992833261
H            1.72719802054499        0.88595139217819       -1.08122530178116
H           -0.69876264353899        0.94497552061758       -1.11917815255278
H           -4.26650737494831       -4.26769968642106        0.86061194543994
H           -6.21247220079832       -5.80959224346676        1.07519945146212
H           -8.49691140222020       -4.90419324143852        0.79784668135801
H           -8.85586280950040       -2.55651797947438        0.35300172511579
H           -9.09184280077173       -0.62586856367707        0.17459602687640
H           -9.40128634175164        1.75620671082868       -0.14066882086254
H           -7.43746166726856        3.26080414475660       -0.30968338878310
H           -5.18253736078537        2.33318424450076       -0.22023872773026
H           -1.90022229031345        1.66075757332972        1.63772401705353
H           -1.12029054053465        3.94954911617074        1.31633864913659

          :  Hamiltonian                  GFN2-xTB          :
         :: gradient norm              0.000072184662 Eh/a0 ::
         :: HOMO-LUMO gap              0.191444450359 eV    ::
         :: SCC energy              -138.545425488052 Eh    ::
         :: -> dispersion             -0.129756704907 Eh    ::
         :: -> Gsolv                  -0.062246068390 Eh    ::
         :: repulsion energy           2.470224493370 Eh    ::

    * Orbital Energies and Occupations

         #    Occupation            Energy/Eh            Energy/eV
      -------------------------------------------------------------
         1        2.0000           -0.7002923             -19.0559
       ...           ...                  ...                  ...
       116        2.0000           -0.4076486             -11.0927
       117        2.0000           -0.4060699             -11.0497
       118        2.0000           -0.4043151             -11.0020
       119        2.0000           -0.3999287             -10.8826
       120        2.0000           -0.3977224             -10.8226
       121        2.0000           -0.3947579             -10.7419
       122        2.0000           -0.3862227             -10.5097
       123        2.0000           -0.3833117             -10.4304
       124        2.0000           -0.3697013             -10.0601
       125        2.0000           -0.3625998              -9.8668
       126        1.9964           -0.3499371              -9.5223
       127        1.0036           -0.3392536              -9.2316
       128        0.9759           -0.2592252              -7.0539 (HOMO)
       129        0.0240           -0.2521883              -6.8624 (LUMO)
       130        0.0000           -0.2453352              -6.6759
       131        0.0000           -0.2424673              -6.5979
       132                         -0.2393702              -6.5136
       133                         -0.2386671              -6.4945
       134                         -0.2351196              -6.3979
       135                         -0.2244063              -6.1064
       136                         -0.2236275              -6.0852
       137                         -0.2198880              -5.9835
       138                         -0.2121046              -5.7717
       139                         -0.2055312              -5.5928
       ...                                ...                  ...
       250                          0.7399095              20.1340
      -------------------------------------------------------------
                  HL-Gap            0.0070369 Eh            0.1915 eV

     #   Z          covCN         q      C6AA      α(0)
     1   6 C        3.761    -0.105    22.561     6.771
     2   6 C        3.902     0.026    20.085     6.370
     3   6 C        3.761    -0.108    22.608     6.778
     4   6 C        3.761    -0.106    22.574     6.773
     5   6 C        2.972     0.004    27.923     8.668
     6   6 C        2.924    -0.041    29.020     8.834
     7   6 C        2.919    -0.045    29.120     8.849
     8   6 C        2.909     0.064    26.573     8.453
     9   7 N        2.817    -0.087    22.924     7.111
    10   6 C        3.137     0.123    25.092     8.199
    11   6 C        2.967    -0.022    28.559     8.766
    12   6 C        2.924    -0.043    29.057     8.840
    13   6 C        2.911    -0.045    29.120     8.849
    14   6 C        2.924     0.022    27.506     8.601
    15   7 N        2.750    -0.015    21.544     6.894
    16   6 C        2.929     0.050    26.887     8.504
    17   6 C        2.920    -0.049    29.225     8.865
    18   6 C        2.917    -0.032    28.799     8.800
    19   6 C        2.917    -0.031    28.780     8.797
    20   6 C        2.920    -0.054    29.333     8.882
    21   6 C        2.929     0.051    26.850     8.498
    22   7 N        2.754    -0.033    21.886     6.948
    23   6 C        2.927     0.060    26.658     8.467
    24   6 C        2.921    -0.035    28.882     8.813
    25   6 C        2.920    -0.024    28.611     8.771
    26   6 C        2.919    -0.026    28.652     8.778
    27   6 C        2.920    -0.024    28.609     8.771
    28   6 C        2.921    -0.035    28.881     8.813
    29   6 C        2.929     0.051    26.847     8.497
    30   6 C        2.921    -0.054    29.334     8.882
    31   6 C        2.917    -0.031    28.784     8.798
    32   6 C        2.917    -0.032    28.801     8.801
    33   6 C        2.920    -0.049    29.229     8.866
    34   6 C        2.929     0.050    26.887     8.504
    35   6 C        2.912    -0.044    29.090     8.844
    36   6 C        2.914    -0.052    29.279     8.873
    37   7 N        1.880    -0.343    29.763     8.087
    38   6 C        3.170     0.075    25.970     8.326
    39   6 C        2.983    -0.011    28.288     8.724
    40   6 C        2.922    -0.035    28.868     8.811
    41   6 C        2.916    -0.039    28.980     8.828
    42   6 C        2.917    -0.036    28.884     8.813
    43   6 C        2.921    -0.042    29.040     8.837
    44   6 C        2.977    -0.008    28.209     8.712
    45   6 C        2.977    -0.014    28.368     8.737
    46   6 C        2.920    -0.037    28.929     8.820
    47   6 C        2.915    -0.045    29.114     8.848
    48   6 C        2.914    -0.039    28.965     8.825
    49   6 C        2.917    -0.045    29.114     8.848
    50   6 C        2.973    -0.021    28.522     8.760
    51   6 C        3.033     0.031    27.279     8.567
    52   6 C        2.920    -0.045    29.106     8.847
    53   6 C        2.926    -0.036    28.884     8.814
    54   1 H        0.925     0.041     2.432     2.439
    55   1 H        0.925     0.037     2.486     2.466
    56   1 H        0.925     0.032     2.560     2.502
    57   1 H        0.925     0.035     2.510     2.477
    58   1 H        0.925     0.036     2.496     2.471
    59   1 H        0.925     0.040     2.450     2.448
    60   1 H        0.925     0.038     2.470     2.458
    61   1 H        0.925     0.034     2.535     2.490
    62   1 H        0.925     0.041     2.430     2.438
    63   1 H        0.926     0.042     2.416     2.431
    64   1 H        0.925     0.028     2.617     2.530
    65   1 H        0.926     0.039     2.459     2.452
    66   1 H        0.926     0.031     2.573     2.508
    67   1 H        0.926     0.050     2.319     2.381
    68   1 H        0.926     0.046     2.375     2.410
    69   1 H        0.926     0.048     2.349     2.397
    70   1 H        0.926     0.048     2.349     2.397
    71   1 H        0.926     0.048     2.344     2.394
    72   1 H        0.926     0.050     2.317     2.380
    73   1 H        0.926     0.049     2.331     2.387
    74   1 H        0.926     0.050     2.316     2.380
    75   1 H        0.926     0.048     2.342     2.393
    76   1 H        0.926     0.048     2.351     2.398
    77   1 H        0.926     0.048     2.348     2.396
    78   1 H        0.926     0.045     2.377     2.411
    79   1 H        0.926     0.050     2.325     2.385
    80   1 H        0.926     0.029     2.605     2.524
    81   1 H        0.926     0.020     2.737     2.587
    82   1 H        0.926     0.037     2.491     2.468
    83   1 H        0.926     0.026     2.651     2.546
    84   1 H        0.926     0.025     2.652     2.546
    85   1 H        0.926     0.026     2.650     2.546
    86   1 H        0.926     0.025     2.666     2.553
    87   1 H        0.926     0.020     2.739     2.588
    88   1 H        0.926     0.019     2.746     2.591
    89   1 H        0.926     0.021     2.719     2.579
    90   1 H        0.926     0.025     2.653     2.547
    91   1 H        0.926     0.037     2.484     2.464

molecular dipole:
                 x           y           z       tot (Debye)
 q only:        7.595       0.919      -0.167
   full:        7.235       1.204      -0.245      18.654

 projected vibrational frequencies (cm⁻¹)
eigval :       -0.00    -0.00    -0.00     0.00     0.00     0.00
eigval :        6.97     9.43    15.88    18.98    22.07    30.42
eigval :       32.97    33.86    47.05    52.52    61.64    66.23
eigval :       68.21    79.62    81.89    96.14    98.88   117.32
eigval :      121.15   128.52   146.05   166.33   182.26   183.27
eigval :      185.96   203.73   212.13   216.63   230.42   235.53
eigval :      243.06   246.94   253.71   263.69   269.42   299.88
eigval :      303.19   309.91   313.00   338.65   356.64   361.63
eigval :      371.67   379.42   382.00   384.40   390.85   392.38
eigval :      398.34   403.37   405.87   413.30   419.98   422.46
eigval :      434.50   438.75   448.75   451.28   462.00   481.88
eigval :      487.44   491.61   495.07   497.65   510.98   524.05
eigval :      530.97   542.46   575.43   580.77   586.32   587.90
eigval :      591.15   593.34   598.09   606.68   614.49   633.89
eigval :      642.12   650.05   657.44   663.02   663.75   665.46
eigval :      669.21   671.74   672.94   691.91   713.25   719.65
eigval :      731.80   750.77   751.64   764.25   767.65   769.06
eigval :      772.88   785.16   791.37   816.63   832.76   847.37
eigval :      858.78   859.03   860.84   866.30   879.40   880.57
eigval :      884.39   886.05   890.68   894.93   896.66   904.79
eigval :      905.17   905.79   907.11   907.73   910.87   913.89
eigval :      914.79   918.66   920.51   923.34   924.81   931.99
eigval :      935.03   938.00   939.85   960.41   962.73   966.02
eigval :      979.05   993.33   996.16  1007.51  1035.70  1036.53
eigval :     1058.42  1076.80  1081.44  1092.05  1099.55  1100.37
eigval :     1100.59  1113.79  1127.73  1128.32  1132.10  1136.38
eigval :     1140.88  1146.08  1159.22  1164.57  1176.83  1178.59
eigval :     1179.57  1179.82  1181.43  1183.20  1191.05  1198.74
eigval :     1204.54  1213.89  1225.53  1231.91  1233.15  1236.01
eigval :     1246.93  1250.98  1253.32  1254.75  1271.05  1276.54
eigval :     1278.49  1281.20  1286.60  1292.14  1308.08  1309.94
eigval :     1312.98  1315.50  1317.55  1327.11  1330.95  1335.15
eigval :     1343.93  1348.21  1362.85  1375.81  1387.39  1394.34
eigval :     1397.67  1403.46  1405.87  1407.54  1413.13  1425.04
eigval :     1427.55  1429.60  1431.42  1433.39  1436.30  1447.88
eigval :     1460.84  1464.99  1469.72  1484.90  1487.16  1488.73
eigval :     1491.71  1498.78  1503.03  1505.50  1510.41  1516.54
eigval :     1516.94  1524.91  1533.42  1537.11  1541.24  1544.38
eigval :     1557.52  1560.03  1574.38  1580.63  1582.19  1587.80
eigval :     1593.43  3021.01  3021.71  3024.87  3026.02  3028.98
eigval :     3031.41  3036.55  3044.93  3048.80  3061.90  3063.45
eigval :     3065.62  3070.05  3070.35  3073.12  3074.47  3075.70
eigval :     3084.07  3085.59  3088.22  3089.03  3090.96  3092.42
eigval :     3094.36  3094.49  3095.80  3098.86  3102.36  3102.43
eigval :     3102.60  3105.94  3112.56  3112.58  3112.89  3115.52
eigval :     3116.22  3117.35  3117.86

   temp. (K)  partition function   enthalpy   heat capacity  entropy
                                   cal/mol     cal/K/mol   cal/K/mol   J/K/mol
 298.15  VIB  0.258E+21            25850.805    163.516    160.635
         ROT  0.127E+09              888.752      2.981     40.061
         INT  0.327E+29            26739.557    166.497    200.696
         TR   0.173E+29             1481.254      4.968     45.424
         TOT                       28220.8113   171.4652   246.1196  1029.7645

       T/K    H(0)-H(T)+PV         H(T)/Eh          T*S/Eh         G(T)/Eh
   ------------------------------------------------------------------------
    298.15    0.449727E-01    0.758680E+00    0.116939E+00    0.641740E+00
   ------------------------------------------------------------------------

         :::::::::::::::::::::::::::::::::::::::::::::::::::::
         ::                  THERMODYNAMIC                  ::
         :::::::::::::::::::::::::::::::::::::::::::::::::::::
         :: total free energy        -135.433460827339 Eh   ::
         ::.................................................::
         :: total energy             -136.075200993841 Eh   ::
         :: zero point energy           0.713706817879 Eh   ::
         :: G(RRHO) w/o ZPVE           -0.071966651377 Eh   ::
         :: G(RRHO) contrib.            0.641740166502 Eh   ::
         :::::::::::::::::::::::::::::::::::::::::::::::::::::

           -------------------------------------------------
          | TOTAL ENERGY             -136.075200993841 Eh   |
          | TOTAL ENTHALPY           -135.316521450491 Eh   |
          | TOTAL FREE ENERGY        -135.433460827339 Eh   |
          | GRADIENT NORM               0.000069557302 Eh/α |
          | HOMO-LUMO GAP               0.191482698816 eV   |
           -------------------------------------------------

 * finished run on 2025/09/04 at 09:46:26.684
