   * xtb version 6.7.1 (edcfbbe) compiled by 'albert@albert-system' on 2024-07-22

   ID    Z sym.   atoms
    1    6 C      1-8, 10-14, 16-21, 23-36, 38-53
    2    7 N      9, 15, 22, 37
    3    1 H      54-91

          program call               : xtb data2507/toluene/PPZTPI/PPZTPI_toluene_T1_crest.xyz --gfn 2 --uhf 2 --gbsa toluene --ohess vtight --parallel 40 --molden --ceasefiles --namespace data2507/toluene/PPZTPI/PPZTPI_toluene_T1_finalOpt
      * Solvation model:               GBSA
        Solvent                        toluene
        Solvent mass                       9.2140E+01 g/mol
          :  Hamiltonian                  GFN2-xTB          :
 * total energy  :  -136.0749568 Eh     change       -0.1180945E-06 Eh
 * total energy  :  -136.0750421 Eh     change       -0.8533022E-04 Eh
 * total energy  :  -136.0750874 Eh     change       -0.4526465E-04 Eh
 * total energy  :  -136.0750971 Eh     change       -0.9720906E-05 Eh
 * total energy  :  -136.0751054 Eh     change       -0.8331816E-05 Eh
 * total energy  :  -136.0751105 Eh     change       -0.5130828E-05 Eh
 * total energy  :  -136.0751156 Eh     change       -0.5088731E-05 Eh
 * total energy  :  -136.0751193 Eh     change       -0.3640959E-05 Eh
 * total energy  :  -136.0751220 Eh     change       -0.2708298E-05 Eh
 * total energy  :  -136.0751244 Eh     change       -0.2387422E-05 Eh
 * total energy  :  -136.0751564 Eh     change       -0.6341155E-06 Eh
 * total energy  :  -136.0751570 Eh     change       -0.5944757E-06 Eh
 * total energy  :  -136.0751575 Eh     change       -0.4444693E-06 Eh
 * total energy  :  -136.0751579 Eh     change       -0.3908569E-06 Eh
 * total energy  :  -136.0751583 Eh     change       -0.3804701E-06 Eh
 * total energy  :  -136.0751586 Eh     change       -0.3302526E-06 Eh
 * total energy  :  -136.0751589 Eh     change       -0.2759243E-06 Eh
 * total energy  :  -136.0751591 Eh     change       -0.2610002E-06 Eh
 * total energy  :  -136.0751591 Eh     change       -0.2444921E-08 Eh
   *** GEOMETRY OPTIMIZATION CONVERGED AFTER 44 ITERATIONS ***

 final structure:
================
91
 xtb: 6.7.1 (edcfbbe)
C           -2.68986965081824        6.29645577201143        0.63725411723229
C           -2.05131707187257        5.54104202733988       -0.53805288707855
C           -2.52928779295446        6.19285298111481       -1.83912541904261
C           -0.52182518798637        5.66955412308817       -0.47010519812675
C           -2.42509561186182        4.06954695023443       -0.44717211916320
C           -3.11448765131186        3.39709353047469       -1.45233119201643
C           -3.42220720088945        2.05365269433983       -1.34311470835919
C           -3.04905983348302        1.33641616331719       -0.20928776609316
N           -3.31699324691469       -0.03482130097530       -0.09718933980100
C           -2.33430601943880       -1.03082465594264        0.08153247945675
C           -0.94200490200921       -0.87734996283622       -0.01640061721019
C           -0.11860163809673       -1.93630611918549        0.47452393934174
C            1.24039993721011       -1.85766387063816        0.44876406496856
C            1.88113533933668       -0.71391954004768       -0.07296518774585
N            3.28582207683364       -0.61162127674313       -0.05986773905632
C            4.05298604036957       -1.56350986851074       -0.71150224011596
C            3.46296775463224       -2.56042595652564       -1.49158373678350
C            4.23253364888765       -3.52997801511339       -2.10347330142114
C            5.61215185840664       -3.52188558988538       -1.95517406558042
C            6.22199861685147       -2.51344984016852       -1.23270777481530
C            5.46343711691541       -1.51521180902228       -0.62473152572435
N            6.06834427913596       -0.47284667119355        0.04968269147243
C            7.49148595875339       -0.41487697394678        0.13174314049356
C            8.22686506456261        0.07643749365960       -0.93919803764817
C            9.60707294994218        0.13359161170208       -0.85103355069438
C           10.24968685701553       -0.29630389901697        0.29878083554807
C            9.51267533722488       -0.78696311742478        1.36451787158187
C            8.13212692867683       -0.84858037856052        1.28523103063080
C            5.31082642744024        0.51595384868164        0.64629730813281
C            5.91957170728713        1.59166332370642        1.29058768116851
C            5.16094095695730        2.54974976995765        1.93596937647999
C            3.77932625737751        2.43097574430338        1.96768934900342
C            3.15730004258627        1.38117753747955        1.32045245476250
C            3.89987684472070        0.42895284967988        0.61937274789656
C            1.09038362823997        0.31250654964865       -0.61924634730331
C           -0.27272383850138        0.23465515077365       -0.60588091387680
N           -2.91056354502219       -2.22555267419428        0.30827679038529
C           -4.22686207570158       -2.03136715913021        0.24521157177360
C           -5.25267613142713       -3.01595386416126        0.37007156960550
C           -4.93419584686364       -4.36474731899952        0.53873326625236
C           -5.92766697300128       -5.31463924969524        0.62948032893736
C           -7.25701686121065       -4.91368147825226        0.54532220939584
C           -7.58403319749815       -3.58491870319443        0.38311516923857
C           -6.59981395777971       -2.58629179510875        0.29754619363553
C           -6.91072063161469       -1.17793127699913        0.16184465300960
C           -8.23022490252320       -0.71316867493387        0.17494927267117
C           -8.54451298872322        0.62417654018640        0.08823482267201
C           -7.52261002877358        1.57371125353608       -0.00059627918089
C           -6.21673991173719        1.16775346024707       -0.02598149463727
C           -5.86435393298962       -0.19982484663170        0.03356710842611
C           -4.53856273748930       -0.66742283711506        0.01575637987805
C           -2.36334036477319        1.99794127811177        0.80853291203037
C           -2.06163360418479        3.33744253985767        0.68312750457180
H           -2.44464067610855        7.35482268177505        0.57853686929686
H           -2.33673366084000        5.91753263863032        1.59229676639333
H           -3.77281144593452        6.19100240648935        0.60885176748576
H           -3.61251208110865        6.14490083923141       -1.92609721824878
H           -2.08005605350389        5.71409365230675       -2.70636810122659
H           -2.23837832687421        7.24144727184177       -1.84614730387861
H           -0.13361764026465        5.28320303068285        0.46817585246526
H           -0.06155517531596        5.11288514479859       -1.28428095810036
H           -0.23019870389098        6.71407757280757       -0.55687233414637
H           -3.41882934634095        3.91119998791841       -2.34930694413268
H           -3.94990917141177        1.54774617504226       -2.13991545915681
H           -0.61795562980904       -2.79456408524279        0.89495659015809
H            1.84277821333353       -2.65453319277652        0.86138372029856
H            2.39250139590593       -2.56475295870671       -1.61746409539479
H            3.75231306654353       -4.29166946645369       -2.69746679695353
H            6.21523707264533       -4.28768708191066       -2.41686871595968
H            7.29593000320283       -2.49104384965854       -1.13975754616967
H            7.71531381898348        0.40876791375542       -1.83024794120185
H           10.18026195362566        0.51688201917733       -1.68152132587150
H           11.32610174937548       -0.24899607653208        0.36405593112055
H           10.01179101111329       -1.12352960261950        2.26056525287765
H            7.54712466032242       -1.22844243970791        2.10952216831220
H            6.99494760146675        1.66878536998026        1.28675498215963
H            5.64991270852148        3.37580408794307        2.42781348834098
H            3.18190400773352        3.15526568890977        2.49882607242194
H            2.08442669569707        1.28822848614453        1.35915213961643
H            1.57777217595063        1.15459666550614       -1.09079230892943
H           -0.84459253483636        1.00671633946912       -1.09354625230608
H           -3.88949711029092       -4.63309917281006        0.58896079971858
H           -5.68032029171419       -6.35812292457003        0.75962088543485
H           -8.04517519370286       -5.65121304321407        0.60725253741314
H           -8.62906556360349       -3.32458535367280        0.31951572456912
H           -9.04271998846500       -1.41713515173382        0.26651183243583
H           -9.57751249210482        0.93996229110312        0.10210836274858
H           -7.76459247209091        2.62628995249387       -0.04311099242284
H           -5.43411693653446        1.90761841541832       -0.07412470841426
H           -2.07012272566239        1.44702355243718        1.69090084304279
H           -1.53146328372358        3.81763252196103        1.49137051121705

          :  Hamiltonian                  GFN2-xTB          :
         :: gradient norm              0.000044992480 Eh/a0 ::
         :: HOMO-LUMO gap              0.193986720861 eV    ::
         :: SCC energy              -138.545370435486 Eh    ::
         :: -> dispersion             -0.129673223342 Eh    ::
         :: -> Gsolv                  -0.062168294505 Eh    ::
         :: repulsion energy           2.470211304195 Eh    ::

    * Orbital Energies and Occupations

         #    Occupation            Energy/Eh            Energy/eV
      -------------------------------------------------------------
         1        2.0000           -0.7002420             -19.0546
       ...           ...                  ...                  ...
       116        2.0000           -0.4077153             -11.0945
       117        2.0000           -0.4060383             -11.0489
       118        2.0000           -0.4042356             -10.9998
       119        2.0000           -0.3999257             -10.8825
       120        2.0000           -0.3976749             -10.8213
       121        2.0000           -0.3946913             -10.7401
       122        2.0000           -0.3862128             -10.5094
       123        2.0000           -0.3834514             -10.4342
       124        2.0000           -0.3697222             -10.0607
       125        2.0000           -0.3625125              -9.8645
       126        1.9964           -0.3499210              -9.5218
       127        1.0036           -0.3392247              -9.2308
       128        0.9770           -0.2592589              -7.0548 (HOMO)
       129        0.0229           -0.2521305              -6.8608 (LUMO)
       130        0.0000           -0.2453110              -6.6753
       131        0.0000           -0.2424393              -6.5971
       132                         -0.2393307              -6.5125
       133                         -0.2386526              -6.4941
       134                         -0.2351006              -6.3974
       135                         -0.2244381              -6.1073
       136                         -0.2236777              -6.0866
       137                         -0.2199161              -5.9842
       138                         -0.2120497              -5.7702
       139                         -0.2055206              -5.5925
       ...                                ...                  ...
       250                          0.7398408              20.1321
      -------------------------------------------------------------
                  HL-Gap            0.0071284 Eh            0.1940 eV

     #   Z          covCN         q      C6AA      α(0)
     1   6 C        3.761    -0.106    22.564     6.772
     2   6 C        3.902     0.026    20.085     6.370
     3   6 C        3.761    -0.108    22.608     6.778
     4   6 C        3.761    -0.106    22.571     6.772
     5   6 C        2.972     0.004    27.921     8.667
     6   6 C        2.924    -0.041    29.020     8.834
     7   6 C        2.919    -0.045    29.117     8.849
     8   6 C        2.909     0.064    26.573     8.453
     9   7 N        2.817    -0.087    22.925     7.111
    10   6 C        3.136     0.123    25.098     8.200
    11   6 C        2.967    -0.022    28.560     8.766
    12   6 C        2.924    -0.043    29.058     8.840
    13   6 C        2.911    -0.045    29.119     8.848
    14   6 C        2.924     0.022    27.507     8.601
    15   7 N        2.750    -0.015    21.547     6.894
    16   6 C        2.929     0.049    26.891     8.504
    17   6 C        2.920    -0.049    29.219     8.864
    18   6 C        2.917    -0.032    28.799     8.800
    19   6 C        2.917    -0.031    28.782     8.798
    20   6 C        2.920    -0.054    29.334     8.882
    21   6 C        2.929     0.051    26.849     8.498
    22   7 N        2.754    -0.033    21.890     6.949
    23   6 C        2.927     0.060    26.658     8.467
    24   6 C        2.921    -0.035    28.883     8.813
    25   6 C        2.920    -0.024    28.612     8.772
    26   6 C        2.919    -0.026    28.652     8.778
    27   6 C        2.920    -0.024    28.608     8.771
    28   6 C        2.921    -0.035    28.880     8.813
    29   6 C        2.929     0.051    26.846     8.497
    30   6 C        2.921    -0.054    29.333     8.882
    31   6 C        2.917    -0.031    28.780     8.797
    32   6 C        2.917    -0.032    28.802     8.801
    33   6 C        2.920    -0.050    29.236     8.867
    34   6 C        2.928     0.050    26.882     8.503
    35   6 C        2.912    -0.044    29.093     8.845
    36   6 C        2.914    -0.052    29.284     8.874
    37   7 N        1.880    -0.343    29.762     8.087
    38   6 C        3.169     0.075    25.970     8.326
    39   6 C        2.983    -0.011    28.288     8.725
    40   6 C        2.922    -0.035    28.868     8.811
    41   6 C        2.916    -0.039    28.980     8.828
    42   6 C        2.917    -0.036    28.884     8.813
    43   6 C        2.921    -0.042    29.040     8.837
    44   6 C        2.977    -0.008    28.209     8.712
    45   6 C        2.977    -0.014    28.368     8.737
    46   6 C        2.920    -0.037    28.930     8.820
    47   6 C        2.915    -0.045    29.114     8.848
    48   6 C        2.914    -0.039    28.965     8.825
    49   6 C        2.917    -0.045    29.117     8.849
    50   6 C        2.973    -0.021    28.522     8.760
    51   6 C        3.033     0.031    27.279     8.567
    52   6 C        2.920    -0.044    29.104     8.847
    53   6 C        2.926    -0.036    28.884     8.814
    54   1 H        0.925     0.041     2.433     2.439
    55   1 H        0.925     0.037     2.485     2.465
    56   1 H        0.925     0.032     2.559     2.501
    57   1 H        0.925     0.035     2.510     2.478
    58   1 H        0.925     0.037     2.496     2.471
    59   1 H        0.925     0.040     2.450     2.448
    60   1 H        0.925     0.038     2.470     2.458
    61   1 H        0.925     0.034     2.537     2.491
    62   1 H        0.925     0.042     2.428     2.437
    63   1 H        0.926     0.043     2.416     2.430
    64   1 H        0.925     0.028     2.617     2.530
    65   1 H        0.926     0.040     2.455     2.450
    66   1 H        0.926     0.030     2.580     2.512
    67   1 H        0.926     0.050     2.324     2.384
    68   1 H        0.926     0.046     2.376     2.410
    69   1 H        0.926     0.048     2.350     2.397
    70   1 H        0.926     0.048     2.349     2.397
    71   1 H        0.926     0.048     2.340     2.392
    72   1 H        0.926     0.050     2.316     2.380
    73   1 H        0.926     0.049     2.331     2.387
    74   1 H        0.926     0.050     2.317     2.380
    75   1 H        0.926     0.048     2.346     2.395
    76   1 H        0.926     0.048     2.351     2.398
    77   1 H        0.926     0.048     2.347     2.396
    78   1 H        0.926     0.046     2.376     2.411
    79   1 H        0.926     0.050     2.321     2.382
    80   1 H        0.925     0.029     2.600     2.522
    81   1 H        0.926     0.020     2.739     2.588
    82   1 H        0.926     0.037     2.491     2.468
    83   1 H        0.926     0.026     2.651     2.546
    84   1 H        0.926     0.025     2.652     2.546
    85   1 H        0.926     0.026     2.650     2.546
    86   1 H        0.926     0.025     2.665     2.553
    87   1 H        0.926     0.020     2.739     2.588
    88   1 H        0.926     0.019     2.746     2.591
    89   1 H        0.926     0.021     2.718     2.578
    90   1 H        0.926     0.026     2.650     2.546
    91   1 H        0.926     0.037     2.483     2.464

molecular dipole:
                 x           y           z       tot (Debye)
 q only:        7.465       1.552      -0.148
   full:        7.081       1.807      -0.201      18.582

 projected vibrational frequencies (cm⁻¹)
eigval :       -0.00    -0.00    -0.00    -0.00     0.00     0.00
eigval :        7.49    10.96    12.97    18.23    22.07    23.01
eigval :       32.38    35.65    48.35    52.99    61.96    67.04
eigval :       70.33    78.91    84.81    94.54    98.82   115.90
eigval :      121.92   126.59   146.33   166.04   179.37   182.70
eigval :      187.42   203.86   212.81   216.57   228.24   235.48
eigval :      243.42   244.17   254.09   264.57   268.94   300.56
eigval :      303.93   309.54   318.68   339.49   355.85   362.96
eigval :      373.22   378.97   381.34   382.81   390.54   392.12
eigval :      399.95   403.28   406.15   412.65   420.11   422.35
eigval :      434.58   437.11   448.74   451.05   461.87   481.35
eigval :      486.21   490.53   494.58   500.07   510.96   527.43
eigval :      530.02   543.16   575.57   580.98   586.12   587.84
eigval :      591.49   593.84   598.15   606.52   614.65   633.74
eigval :      642.24   650.55   659.05   663.18   664.57   666.18
eigval :      668.92   671.00   671.72   692.19   713.31   723.60
eigval :      731.53   751.07   752.16   757.80   767.54   769.16
eigval :      771.65   785.28   792.16   818.19   830.19   846.26
eigval :      857.99   859.26   860.02   867.17   868.35   880.14
eigval :      884.60   885.63   891.59   894.61   896.18   899.74
eigval :      904.24   905.34   906.62   908.34   910.23   914.49
eigval :      916.02   916.49   918.28   921.89   923.42   927.10
eigval :      930.40   937.65   940.46   958.89   961.83   964.39
eigval :      979.05   993.36   996.00  1007.40  1034.95  1035.68
eigval :     1058.38  1076.95  1081.41  1091.89  1098.91  1100.29
eigval :     1100.59  1114.15  1127.58  1127.98  1131.73  1134.91
eigval :     1140.40  1146.23  1159.38  1164.41  1176.19  1178.44
eigval :     1179.03  1179.50  1181.07  1183.46  1191.43  1198.03
eigval :     1204.25  1213.49  1225.10  1231.61  1232.82  1236.10
eigval :     1246.66  1250.94  1252.79  1254.20  1270.97  1276.29
eigval :     1278.75  1281.20  1286.10  1292.82  1308.14  1310.24
eigval :     1312.93  1315.79  1317.25  1327.10  1331.53  1335.17
eigval :     1343.76  1348.61  1363.14  1376.58  1387.21  1394.50
eigval :     1396.95  1402.96  1405.90  1406.76  1413.46  1425.03
eigval :     1426.94  1429.44  1431.48  1433.51  1436.46  1448.35
eigval :     1460.92  1464.93  1469.55  1485.18  1487.36  1488.37
eigval :     1492.13  1499.47  1502.35  1505.61  1511.20  1517.27
eigval :     1517.60  1525.65  1534.38  1537.26  1541.64  1544.89
eigval :     1557.96  1560.05  1574.49  1580.54  1582.36  1587.94
eigval :     1593.60  3020.73  3021.20  3024.48  3025.25  3028.58
eigval :     3030.76  3035.86  3045.11  3048.12  3061.00  3062.91
eigval :     3066.06  3069.58  3070.09  3073.51  3073.55  3074.89
eigval :     3084.25  3085.96  3087.10  3089.58  3091.38  3092.25
eigval :     3092.97  3093.12  3096.09  3098.13  3101.11  3101.42
eigval :     3102.72  3105.60  3112.24  3112.77  3113.38  3114.94
eigval :     3116.02  3116.49  3119.32

   temp. (K)  partition function   enthalpy   heat capacity  entropy
                                   cal/mol     cal/K/mol   cal/K/mol   J/K/mol
 298.15  VIB  0.312E+21            25861.543    163.575    160.785
         ROT  0.128E+09              888.752      2.981     40.074
         INT  0.398E+29            26750.295    166.556    200.858
         TR   0.173E+29             1481.254      4.968     45.424
         TOT                       28231.5493   171.5244   246.2820  1030.4440

       T/K    H(0)-H(T)+PV         H(T)/Eh          T*S/Eh         G(T)/Eh
   ------------------------------------------------------------------------
    298.15    0.449898E-01    0.758567E+00    0.117017E+00    0.641550E+00
   ------------------------------------------------------------------------

         :::::::::::::::::::::::::::::::::::::::::::::::::::::
         ::                  THERMODYNAMIC                  ::
         :::::::::::::::::::::::::::::::::::::::::::::::::::::
         :: total free energy        -135.433608740847 Eh   ::
         ::.................................................::
         :: total energy             -136.075159134746 Eh   ::
         :: zero point energy           0.713577091533 Eh   ::
         :: G(RRHO) w/o ZPVE           -0.072026697634 Eh   ::
         :: G(RRHO) contrib.            0.641550393898 Eh   ::
         :::::::::::::::::::::::::::::::::::::::::::::::::::::

           -------------------------------------------------
          | TOTAL ENERGY             -136.075159134746 Eh   |
          | TOTAL ENTHALPY           -135.316592205729 Eh   |
          | TOTAL FREE ENERGY        -135.433608740847 Eh   |
          | GRADIENT NORM               0.000045097318 Eh/α |
          | HOMO-LUMO GAP               0.193972700596 eV   |
           -------------------------------------------------

 * finished run on 2025/09/04 at 09:56:28.007
