   * xtb version 6.7.1 (edcfbbe) compiled by 'albert@albert-system' on 2024-07-22

   ID    Z sym.   atoms
    1    6 C      1-8, 10-14, 16-21, 23-36, 38-53
    2    7 N      9, 15, 22, 37
    3    1 H      54-91

          program call               : xtb data2507/toluene/PPZTPI/PPZTPI.xyz --gfn 2 --gbsa toluene --ohess vtight --parallel 40 --molden --ceasefiles --namespace data2507/toluene/PPZTPI/PPZTPI_toluene_S0_preOpt
      * Solvation model:               GBSA
        Solvent                        toluene
        Solvent mass                       9.2140E+01 g/mol
          :  Hamiltonian                  GFN2-xTB          :
 * total energy  :  -136.1230461 Eh     change       -0.7799258E-08 Eh
 * total energy  :  -136.1408612 Eh     change       -0.1781511E-01 Eh
 * total energy  :  -136.1466618 Eh     change       -0.5800535E-02 Eh
 * total energy  :  -136.1479677 Eh     change       -0.1305911E-02 Eh
 * total energy  :  -136.1487996 Eh     change       -0.8318955E-03 Eh
 * total energy  :  -136.1491943 Eh     change       -0.3947204E-03 Eh
 * total energy  :  -136.1495155 Eh     change       -0.3212359E-03 Eh
 * total energy  :  -136.1498505 Eh     change       -0.3349779E-03 Eh
 * total energy  :  -136.1502024 Eh     change       -0.3519037E-03 Eh
 * total energy  :  -136.1505956 Eh     change       -0.3932214E-03 Eh
 * total energy  :  -136.1527113 Eh     change       -0.1389814E-05 Eh
 * total energy  :  -136.1527118 Eh     change       -0.5246216E-06 Eh
 * total energy  :  -136.1527122 Eh     change       -0.4012883E-06 Eh
 * total energy  :  -136.1527128 Eh     change       -0.5626033E-06 Eh
 * total energy  :  -136.1527132 Eh     change       -0.4280001E-06 Eh
 * total energy  :  -136.1527135 Eh     change       -0.2826835E-06 Eh
 * total energy  :  -136.1527138 Eh     change       -0.3699222E-06 Eh
 * total energy  :  -136.1527141 Eh     change       -0.2865920E-06 Eh
 * total energy  :  -136.1527142 Eh     change       -0.4983534E-07 Eh
   *** GEOMETRY OPTIMIZATION CONVERGED AFTER 77 ITERATIONS ***

 final structure:
================
91
 xtb: 6.7.1 (edcfbbe)
C           -2.21777551623889        5.56026630579282       -1.81872585674383
C           -1.83641262148369        4.92760593933883       -0.47703774082480
C           -0.31164081742058        5.02222524792029       -0.31762107581841
C           -2.52737046937930        5.72089188415315        0.64244470653362
C           -2.25380488873757        3.46891434026363       -0.37645241896990
C           -2.93307655255276        2.80502669820843       -1.39294241857199
C           -3.29398395787460        1.47506385202014       -1.26930871922728
C           -2.98519531697556        0.77524994804211       -0.11010902405705
N           -3.31250876555127       -0.59350149381117        0.01482221052590
C           -2.39222014179876       -1.61256425294888        0.09672432445275
C           -0.95071211522246       -1.43066067323935        0.03747870742927
C           -0.14706127827519       -2.25325185857133        0.82914504640933
C            1.22491463597380       -2.11615314360627        0.81995758967545
C            1.82745519117432       -1.16034062562240        0.00474048525652
N            3.23279877806497       -1.01031412682114       -0.00073567127566
C            4.03661167827879       -2.04517908295666       -0.48620487382408
C            3.48175397066776       -3.19070147947032       -1.03659889233676
C            4.28570706987042       -4.22846229505770       -1.49226751286286
C            5.65620754294538       -4.12502820733945       -1.40050240669526
C            6.22744107347645       -2.96876607242698       -0.88450392712317
C            5.43726436958557       -1.91545538968661       -0.44797521292103
N            6.00820964324803       -0.73989019178840        0.03346063055639
C            7.42199368155777       -0.60223724164325        0.05338820897122
C            8.11694963831999       -0.37943512841855       -1.12970475274380
C            9.49438744801769       -0.24951127364902       -1.10627864479152
C           10.18146962172047       -0.33488801539857        0.09379147451089
C            9.48906749400779       -0.55409928638072        1.27357546128833
C            8.11207488639736       -0.69034164291547        1.25674544170484
C            5.20835312332535        0.30969418205247        0.47795615338174
C            5.77084069627173        1.50074119610130        0.91327569048143
C            4.97604093300425        2.53272464604143        1.39529541024663
C            3.60927392976713        2.37311566806402        1.45164895335253
C            3.03015650710682        1.19523315078082        0.99510192478931
C            3.80795655549074        0.16821207125367        0.48143752626618
C            1.03222361216777       -0.36009573512149       -0.81037640239496
C           -0.34174685633939       -0.49246731703490       -0.79507892013169
N           -2.96248284272641       -2.78511496162563        0.24108266317870
C           -4.30129357927521       -2.54826304059503        0.25236862591014
C           -5.35439313863408       -3.49965860013066        0.35831451796913
C           -5.08859106194504       -4.87049839223590        0.45094245535005
C           -6.11864577312578       -5.77442654396412        0.52985421387738
C           -7.43429340877858       -5.31460945320757        0.51491555295813
C           -7.70742075791476       -3.96912127767965        0.42928129787670
C           -6.68214118511578       -3.01324111939993        0.35209892217920
C           -6.93872326435010       -1.58423799852334        0.28533030779865
C           -8.24201731536445       -1.06831637104941        0.33684650704636
C           -8.49450788303705        0.28302444707031        0.30906751089508
C           -7.44037361586610        1.18879831380722        0.24156436797503
C           -6.14905600798410        0.72510706870316        0.18366319525925
C           -5.87081771213693       -0.64960060321538        0.18688638669607
C           -4.55160941973560       -1.18223318306733        0.12747004842979
C           -2.30841101709613        1.42045957526028        0.91671483536031
C           -1.95293079881387        2.74747183364839        0.77746472802655
H           -1.89159457516422        6.59816827380865       -1.83342037941049
H           -3.29506196661247        5.54684307047554       -1.96767605257044
H           -1.73431925385764        5.04577903472409       -2.64607554436076
H            0.18662937055811        4.42556560346803       -1.07927832484902
H            0.00856693825305        4.66596027419069        0.65718079004507
H            0.01019107714895        6.05583822523589       -0.42372609407225
H           -3.60884891325093        5.64510291074087        0.54705407541025
H           -2.24512365008816        5.35080371102865        1.62419970873045
H           -2.24885127274923        6.77062157094703        0.58116107934908
H           -3.19064927785809        3.31428421333306       -2.30650423344236
H           -3.81850050668006        0.97370125352729       -2.07063450217883
H           -0.62240946877603       -2.99165436657443        1.45621090640674
H            1.84141461807266       -2.74628241381476        1.44400023158835
H            2.40938916041014       -3.28042424274579       -1.11332279035324
H            3.82524640703435       -5.11037393767790       -1.91106943099268
H            6.29404499268340       -4.92975938699357       -1.73325221841395
H            7.30157961131396       -2.88773540578086       -0.82300385660599
H            7.57174059162952       -0.31351924509073       -2.06005943032345
H           10.03151050310314       -0.07720376400546       -2.02728730335100
H           11.25619990644513       -0.23125349804429        0.10941853716979
H           10.02237635681082       -0.62265354399976        2.21022539411138
H            7.56318509752330       -0.86207758332323        2.17122933700515
H            6.84211356864505        1.62464288428504        0.87995103185782
H            5.43955804632206        3.44824914863961        1.73014979411037
H            2.98006549618340        3.15611099837803        1.84601621879447
H            1.95867820877905        1.07941639090335        1.04420579553256
H            1.49992556905632        0.36472659089542       -1.46029554587363
H           -0.93739333872189        0.12125142005108       -1.45255675068297
H           -4.05599285802207       -5.18516703769275        0.45265955047697
H           -5.91581793338893       -6.83314977731086        0.59939412914152
H           -8.24924935285565       -6.02202895800848        0.57137272242003
H           -8.74080986109485       -3.66100161018971        0.41920046901388
H           -9.08167229465550       -1.74060414360544        0.40720347584016
H           -9.51277372250965        0.64125145254676        0.34992424069476
H           -7.63506249238245        2.25119632100242        0.23861297224890
H           -5.33346895752611        1.42918789359429        0.14612931207711
H           -2.06328918045048        0.87680798479555        1.81772745926575
H           -1.42945964401016        3.22221939836774        1.59250261486964

          :  Hamiltonian                  GFN2-xTB          :
         :: gradient norm              0.000143125941 Eh/a0 ::
         :: HOMO-LUMO gap              1.653389684633 eV    ::
         :: SCC energy              -138.639489008192 Eh    ::
         :: -> dispersion             -0.129876734498 Eh    ::
         :: -> Gsolv                  -0.055385414450 Eh    ::
         :: repulsion energy           2.486774837868 Eh    ::

    * Orbital Energies and Occupations

         #    Occupation            Energy/Eh            Energy/eV
      -------------------------------------------------------------
         1        2.0000           -0.6884613             -18.7340
       ...           ...                  ...                  ...
       115        2.0000           -0.4141556             -11.2697
       116        2.0000           -0.4127443             -11.2313
       117        2.0000           -0.4091463             -11.1334
       118        2.0000           -0.4076988             -11.0941
       119        2.0000           -0.4056125             -11.0373
       120        2.0000           -0.4034666             -10.9789
       121        2.0000           -0.4022694             -10.9463
       122        2.0000           -0.3973558             -10.8126
       123        2.0000           -0.3827931             -10.4163
       124        2.0000           -0.3796240             -10.3301
       125        2.0000           -0.3746502             -10.1948
       126        2.0000           -0.3655274              -9.9465
       127        2.0000           -0.3234516              -8.8016 (HOMO)
       128                         -0.2626908              -7.1482 (LUMO)
       129                         -0.2507176              -6.8224
       130                         -0.2444620              -6.6522
       131                         -0.2375422              -6.4639
       132                         -0.2349893              -6.3944
       133                         -0.2337599              -6.3609
       134                         -0.2330844              -6.3426
       135                         -0.2321765              -6.3178
       136                         -0.2282737              -6.2116
       137                         -0.2200705              -5.9884
       138                         -0.2127873              -5.7902
       ...                                ...                  ...
       250                          0.7251408              19.7321
      -------------------------------------------------------------
                  HL-Gap            0.0607608 Eh            1.6534 eV

     #   Z          covCN         q      C6AA      α(0)
     1   6 C        3.761    -0.110    22.653     6.785
     2   6 C        3.902     0.027    20.068     6.368
     3   6 C        3.761    -0.107    22.584     6.774
     4   6 C        3.761    -0.107    22.591     6.776
     5   6 C        2.973     0.014    27.703     8.634
     6   6 C        2.925    -0.037    28.930     8.821
     7   6 C        2.919    -0.041    29.010     8.832
     8   6 C        2.912     0.060    26.658     8.466
     9   7 N        2.840    -0.054    22.276     7.010
    10   6 C        3.195     0.136    24.561     8.080
    11   6 C        2.973    -0.003    28.097     8.695
    12   6 C        2.927    -0.029    28.716     8.788
    13   6 C        2.920    -0.039    28.972     8.827
    14   6 C        2.922     0.069    26.466     8.437
    15   7 N        2.751    -0.081    22.825     7.096
    16   6 C        2.924     0.049    26.907     8.507
    17   6 C        2.923    -0.063    29.574     8.918
    18   6 C        2.918    -0.044    29.101     8.846
    19   6 C        2.918    -0.044    29.085     8.844
    20   6 C        2.923    -0.064    29.590     8.921
    21   6 C        2.926     0.051    26.862     8.499
    22   7 N        2.752    -0.084    22.883     7.105
    23   6 C        2.924     0.068    26.483     8.439
    24   6 C        2.922    -0.039    28.962     8.825
    25   6 C        2.920    -0.028    28.705     8.786
    26   6 C        2.919    -0.031    28.773     8.796
    27   6 C        2.920    -0.028    28.704     8.786
    28   6 C        2.922    -0.039    28.962     8.825
    29   6 C        2.926     0.051    26.859     8.499
    30   6 C        2.924    -0.064    29.590     8.921
    31   6 C        2.918    -0.044    29.092     8.845
    32   6 C        2.918    -0.045    29.106     8.847
    33   6 C        2.923    -0.064    29.584     8.920
    34   6 C        2.924     0.049    26.909     8.507
    35   6 C        2.921    -0.040    28.999     8.831
    36   6 C        2.921    -0.035    28.875     8.812
    37   7 N        1.894    -0.320    29.144     8.003
    38   6 C        3.207     0.059    26.082     8.317
    39   6 C        2.985    -0.003    28.099     8.695
    40   6 C        2.921    -0.034    28.838     8.806
    41   6 C        2.917    -0.032    28.797     8.800
    42   6 C        2.917    -0.034    28.858     8.809
    43   6 C        2.921    -0.037    28.911     8.817
    44   6 C        2.979    -0.005    28.143     8.702
    45   6 C        2.979    -0.002    28.066     8.690
    46   6 C        2.922    -0.035    28.878     8.812
    47   6 C        2.916    -0.034    28.854     8.808
    48   6 C        2.917    -0.033    28.812     8.802
    49   6 C        2.919    -0.041    29.028     8.835
    50   6 C        2.978    -0.005    28.145     8.702
    51   6 C        3.075     0.022    27.425     8.586
    52   6 C        2.920    -0.042    29.033     8.836
    53   6 C        2.928    -0.032    28.793     8.800
    54   1 H        0.925     0.042     2.427     2.436
    55   1 H        0.925     0.039     2.467     2.456
    56   1 H        0.925     0.039     2.468     2.457
    57   1 H        0.925     0.035     2.517     2.481
    58   1 H        0.925     0.039     2.467     2.456
    59   1 H        0.925     0.043     2.409     2.427
    60   1 H        0.925     0.035     2.516     2.481
    61   1 H        0.925     0.039     2.467     2.456
    62   1 H        0.925     0.043     2.405     2.425
    63   1 H        0.926     0.053     2.280     2.361
    64   1 H        0.926     0.038     2.477     2.461
    65   1 H        0.926     0.051     2.306     2.375
    66   1 H        0.926     0.047     2.361     2.403
    67   1 H        0.926     0.027     2.630     2.536
    68   1 H        0.926     0.027     2.631     2.536
    69   1 H        0.926     0.027     2.624     2.533
    70   1 H        0.926     0.028     2.622     2.532
    71   1 H        0.926     0.040     2.448     2.447
    72   1 H        0.926     0.042     2.424     2.435
    73   1 H        0.926     0.042     2.428     2.436
    74   1 H        0.926     0.042     2.423     2.434
    75   1 H        0.926     0.040     2.446     2.446
    76   1 H        0.926     0.027     2.629     2.536
    77   1 H        0.926     0.028     2.622     2.532
    78   1 H        0.926     0.028     2.620     2.531
    79   1 H        0.926     0.027     2.633     2.537
    80   1 H        0.926     0.046     2.376     2.410
    81   1 H        0.926     0.038     2.481     2.463
    82   1 H        0.926     0.043     2.411     2.428
    83   1 H        0.926     0.032     2.555     2.499
    84   1 H        0.926     0.032     2.561     2.502
    85   1 H        0.926     0.035     2.523     2.484
    86   1 H        0.926     0.037     2.494     2.470
    87   1 H        0.926     0.032     2.552     2.498
    88   1 H        0.926     0.032     2.562     2.503
    89   1 H        0.926     0.031     2.576     2.510
    90   1 H        0.926     0.033     2.548     2.496
    91   1 H        0.926     0.045     2.379     2.412

molecular dipole:
                 x           y           z       tot (Debye)
 q only:        0.868       1.840      -0.147
   full:        0.673       2.077      -0.166       5.565

 projected vibrational frequencies (cm⁻¹)
eigval :       -0.00    -0.00     0.00     0.00     0.00     0.00
eigval :        9.73    10.01    14.02    18.27    22.01    28.90
eigval :       30.37    31.79    44.09    47.33    52.70    62.06
eigval :       64.85    72.95    81.54    89.16    96.72   115.14
eigval :      119.26   123.14   140.31   164.09   175.08   180.10
eigval :      185.70   205.52   212.85   223.91   226.97   234.56
eigval :      242.65   247.29   249.23   264.43   269.14   300.02
eigval :      301.72   311.47   318.12   349.52   360.91   368.93
eigval :      371.44   373.73   379.01   382.07   388.67   394.20
eigval :      399.07   403.21   407.85   415.81   423.99   429.58
eigval :      431.56   450.13   450.68   453.21   462.91   477.45
eigval :      485.92   508.08   510.66   511.86   517.68   528.97
eigval :      536.36   546.37   584.28   585.55   586.88   591.98
eigval :      593.57   600.14   604.19   610.88   640.61   644.72
eigval :      653.78   655.36   658.23   667.39   670.28   677.12
eigval :      677.99   684.00   698.95   704.47   718.00   734.92
eigval :      740.55   756.24   760.73   765.25   767.85   768.65
eigval :      781.92   789.77   817.00   823.77   854.23   854.70
eigval :      861.22   870.00   870.81   876.03   876.12   882.68
eigval :      885.13   885.47   887.17   903.00   905.29   905.88
eigval :      905.91   907.34   911.39   915.03   915.95   918.93
eigval :      923.05   926.82   927.78   928.09   928.21   930.96
eigval :      939.81   944.45   961.49   962.44   966.30   969.79
eigval :      994.55  1003.65  1016.00  1032.63  1035.58  1037.88
eigval :     1072.86  1077.63  1085.12  1106.80  1109.19  1111.16
eigval :     1112.99  1121.40  1126.70  1130.20  1135.13  1140.50
eigval :     1144.58  1151.68  1172.97  1178.10  1179.47  1181.09
eigval :     1182.09  1182.19  1183.82  1185.06  1193.71  1200.31
eigval :     1212.80  1218.36  1225.64  1232.23  1236.23  1252.57
eigval :     1255.85  1259.34  1261.42  1269.18  1274.42  1275.38
eigval :     1281.20  1284.32  1292.61  1305.29  1308.48  1310.94
eigval :     1312.58  1313.31  1319.39  1332.29  1337.77  1347.73
eigval :     1361.64  1367.23  1377.16  1397.57  1403.46  1404.88
eigval :     1405.99  1408.89  1418.84  1422.94  1428.95  1430.93
eigval :     1431.61  1435.15  1437.41  1463.07  1469.42  1487.82
eigval :     1488.24  1489.97  1492.64  1499.14  1502.97  1510.75
eigval :     1510.91  1513.10  1515.26  1516.05  1540.00  1553.88
eigval :     1555.83  1561.89  1567.39  1569.04  1577.26  1580.84
eigval :     1582.00  1590.21  1592.63  1593.37  1596.88  1598.65
eigval :     1603.49  3023.46  3023.97  3027.71  3027.89  3032.18
eigval :     3033.76  3039.14  3046.38  3051.23  3069.79  3073.02
eigval :     3075.59  3076.35  3077.07  3078.46  3079.15  3079.36
eigval :     3079.65  3083.28  3084.19  3084.61  3086.11  3087.39
eigval :     3087.95  3088.83  3095.80  3096.04  3098.19  3098.46
eigval :     3099.64  3100.13  3101.41  3103.46  3103.90  3105.68
eigval :     3109.15  3116.94  3121.53

   temp. (K)  partition function   enthalpy   heat capacity  entropy
                                   cal/mol     cal/K/mol   cal/K/mol   J/K/mol
 298.15  VIB  0.416E+21            25760.951    161.523    160.433
         ROT  0.124E+09              888.752      2.981     40.014
         INT  0.516E+29            26649.704    164.504    200.447
         TR   0.173E+29             1481.254      4.968     45.424
         TOT                       28130.9576   169.4725   245.8709  1028.7237

       T/K    H(0)-H(T)+PV         H(T)/Eh          T*S/Eh         G(T)/Eh
   ------------------------------------------------------------------------
    298.15    0.448295E-01    0.762293E+00    0.116821E+00    0.645472E+00
   ------------------------------------------------------------------------

         :::::::::::::::::::::::::::::::::::::::::::::::::::::
         ::                  THERMODYNAMIC                  ::
         :::::::::::::::::::::::::::::::::::::::::::::::::::::
         :: total free energy        -135.507242396311 Eh   ::
         ::.................................................::
         :: total energy             -136.152714172686 Eh   ::
         :: zero point energy           0.717463419308 Eh   ::
         :: G(RRHO) w/o ZPVE           -0.071991642934 Eh   ::
         :: G(RRHO) contrib.            0.645471776374 Eh   ::
         :::::::::::::::::::::::::::::::::::::::::::::::::::::

           -------------------------------------------------
          | TOTAL ENERGY             -136.152714172686 Eh   |
          | TOTAL ENTHALPY           -135.390421218858 Eh   |
          | TOTAL FREE ENERGY        -135.507242396311 Eh   |
          | GRADIENT NORM               0.000143071339 Eh/α |
          | HOMO-LUMO GAP               1.653385635992 eV   |
           -------------------------------------------------

 * finished run on 2025/09/04 at 09:37:34.661
