   * xtb version 6.7.1 (edcfbbe) compiled by 'albert@albert-system' on 2024-07-22

   ID    Z sym.   atoms
    1    6 C      1-9, 11-17, 19-23, 25, 27-31, 33-35, 37-44
    2    7 N      10, 18, 24, 26, 32, 36
    3    1 H      45-70

          program call               : xtb data2507/toluene/3Py-DMAC/3Py-DMAC_toluene_T1_crest.xyz --gfn 2 --uhf 2 --gbsa toluene --ohess vtight --parallel 40 --molden --ceasefiles --namespace data2507/toluene/3Py-DMAC/3Py-DMAC_toluene_T1_finalOpt
      * Solvation model:               GBSA
        Solvent                        toluene
        Solvent mass                       9.2140E+01 g/mol
          :  Hamiltonian                  GFN2-xTB          :
 * total energy  :  -112.1033884 Eh     change       -0.1862090E-07 Eh
 * total energy  :  -112.1035642 Eh     change       -0.1758501E-03 Eh
 * total energy  :  -112.1036260 Eh     change       -0.6174269E-04 Eh
 * total energy  :  -112.1036307 Eh     change       -0.4689280E-05 Eh
 * total energy  :  -112.1036668 Eh     change       -0.3615076E-04 Eh
 * total energy  :  -112.1036861 Eh     change       -0.1926986E-04 Eh
 * total energy  :  -112.1036740 Eh     change        0.1212153E-04 Eh
 * total energy  :  -112.1037195 Eh     change       -0.4552476E-04 Eh
 * total energy  :  -112.1037337 Eh     change       -0.1419855E-04 Eh
 * total energy  :  -112.1037409 Eh     change       -0.7225641E-05 Eh
 * total energy  :  -112.1037659 Eh     change       -0.7616942E-06 Eh
 * total energy  :  -112.1037667 Eh     change       -0.8223055E-06 Eh
 * total energy  :  -112.1037674 Eh     change       -0.6693134E-06 Eh
 * total energy  :  -112.1037676 Eh     change       -0.1583495E-06 Eh
 * total energy  :  -112.1037675 Eh     change        0.1052129E-07 Eh
 * total energy  :  -112.1037678 Eh     change       -0.2794432E-06 Eh
 * total energy  :  -112.1037678 Eh     change        0.6658487E-07 Eh
 * total energy  :  -112.1037679 Eh     change       -0.1689524E-06 Eh
 * total energy  :  -112.1037680 Eh     change       -0.9527939E-07 Eh
   *** GEOMETRY OPTIMIZATION CONVERGED AFTER 27 ITERATIONS ***

 final structure:
================
70
 xtb: 6.7.1 (edcfbbe)
C           -7.60476688989375       -0.34589167038911       -1.21272452861024
C           -6.71686909922497       -0.01057669228633        0.00329526938776
C           -7.59765814217100        0.33078079355513        1.22282154192541
C           -5.87630183895951       -1.22203911832338        0.33781204904347
C           -6.49340748343567       -2.42024862788922        0.67164288401659
C           -5.76652422748535       -3.55228430138945        0.99249116105845
C           -4.37863376082387       -3.50128869056473        0.99272699876085
C           -3.73696011691269       -2.32879891401254        0.66720723204016
C           -4.47057782367054       -1.18004155631610        0.32808083595080
N           -3.80421583118366       -0.02024713510868       -0.00162769773045
C           -2.37823367235051       -0.02468572009810       -0.00343490279094
C           -1.68984743592690       -0.51392574142295       -1.10625726332340
C           -0.30847841497117       -0.51942053938554       -1.10386986725424
C            0.39442883019719       -0.03029786432145       -0.00801531159299
C            1.87140394180654       -0.02436446057103       -0.01116701893593
C            2.54910170979663        1.19853776617815        0.03588858649125
C            1.80920149843478        2.37231913283538       -0.06767823888285
N            1.13701252556236        3.30484247444269       -0.19393121130023
C            3.99400367278256        1.15403748663245        0.08502470140701
C            4.83070451962272        2.32871264971951        0.23361270822625
C            6.16322491013439        2.30927530794083       -0.20831713901762
C            6.95687280929834        3.42320503918602       -0.03451301352206
C            6.40454064265926        4.54086955905432        0.58054596308966
N            5.15564950989491        4.56578461454780        1.01884895007113
C            4.39372485783900        3.50593151587214        0.85781606782563
N            4.61344117001592        0.00130247647729       -0.01047317681193
C            4.01804028571200       -1.17809659543890       -0.10528282321957
C            4.87573850134363       -2.32357399366689       -0.23268701710514
C            4.46467726726638       -3.61907198289833       -0.59395287456089
C            5.39506052549419       -4.63307986593203       -0.69339857431976
C            6.73147215993146       -4.35165654847130       -0.43513382771422
N            7.12842902156725       -3.12976234584441       -0.10554680715933
C            6.26129309224445       -2.16131359125623       -0.00793758782489
C            2.56771171308358       -1.23373968155222       -0.05729065918472
C            1.82241086660608       -2.40595642586487        0.03119464412918
N            1.13309482314839       -3.32923442434348        0.13677533313166
C           -0.30305622164390        0.46168590051192        1.09009433794940
C           -1.68433232662339        0.46132590190980        1.09743877307509
C           -4.46388263296849        1.14413204308604       -0.32891028724377
C           -3.72378274690230        2.28814038977910       -0.67012270620770
C           -4.35878728654788        3.46478766079991       -0.99370000074486
C           -5.74634367768838        3.52470107017437       -0.98934380514500
C           -6.47966264083888        2.39743145092597       -0.66626965803366
C           -5.86938532532250        1.19524271955790       -0.33427959268995
H           -8.23262252887431        0.50002634497623       -1.47442393576812
H           -8.24694079377759       -1.19390487132412       -0.99653628626716
H           -6.98327706722464       -0.59331671596133       -2.07100488572454
H           -8.22949045332393       -0.51117491646503        1.48775426166576
H           -8.23553883773935        1.18256240024397        1.00876777883980
H           -6.97109442766824        0.57512820015482        2.07827618328523
H           -7.57006774442859       -2.47774988363648        0.68349555739145
H           -6.27700925290089       -4.46869382125907        1.24516361584643
H           -3.79732296257693       -4.37395070107291        1.24729931982956
H           -2.65919387943310       -2.29233350944990        0.67282988086648
H           -2.23567079780142       -0.88839108858888       -1.95889432078305
H            0.23020285195355       -0.89579420195202       -1.96090263905544
H            6.54232199506459        1.41952229849861       -0.68872249870380
H            7.98187649437682        3.43403627426349       -0.37128849381020
H            6.97447081191457        5.44665181367955        0.73492210625556
H            3.39378883220562        3.58876340018726        1.26131654633060
H            3.42635089369427       -3.82229647961995       -0.80416832837902
H            5.09376693159289       -5.63141306016223       -0.97047491602829
H            7.50145380097937       -5.10671020351792       -0.49398052942288
H            6.63526860396208       -1.18405546120995        0.26762982837919
H            0.24016658781518        0.83782225377992        1.94438641904628
H           -2.22566364634733        0.83904918133600        1.95148432880550
H           -2.64626433437209        2.24533723986890       -0.67867498666877
H           -3.77237594894771        4.33361814334129       -1.24961430018648
H           -6.25156623721255        4.44444699592970       -1.24041356983877
H           -7.55595065162858        2.46209577822091       -0.67467519556020

          :  Hamiltonian                  GFN2-xTB          :
         :: gradient norm              0.000062463860 Eh/a0 ::
         :: HOMO-LUMO gap              0.467161384142 eV    ::
         :: SCC energy              -114.157584962706 Eh    ::
         :: -> dispersion             -0.099521648079 Eh    ::
         :: -> Gsolv                  -0.063234875797 Eh    ::
         :: repulsion energy           2.053816943529 Eh    ::

    * Orbital Energies and Occupations

         #    Occupation            Energy/Eh            Energy/eV
      -------------------------------------------------------------
         1        2.0000           -0.6997710             -19.0417
       ...           ...                  ...                  ...
        93        2.0000           -0.4279442             -11.6450
        94        2.0000           -0.4261472             -11.5961
        95        2.0000           -0.4229978             -11.5104
        96        2.0000           -0.4213117             -11.4645
        97        2.0000           -0.4173409             -11.3564
        98        2.0000           -0.4155478             -11.3076
        99        2.0000           -0.4149115             -11.2903
       100        2.0000           -0.3938633             -10.7176
       101        2.0000           -0.3885426             -10.5728
       102        1.9340           -0.3770362             -10.2597
       103        1.6281           -0.3750165             -10.2047
       104        1.4378           -0.3742809             -10.1847
       105        0.9999           -0.3000238              -8.1641 (HOMO)
       106        0.0001           -0.2828559              -7.6969 (LUMO)
       107                         -0.2611702              -7.1068
       108                         -0.2523841              -6.8677
       109                         -0.2512599              -6.8371
       110                         -0.2507052              -6.8220
       111                         -0.2498112              -6.7977
       112                         -0.2419780              -6.5846
       113                         -0.2409105              -6.5555
       114                         -0.2406712              -6.5490
       115                         -0.2207566              -6.0071
       116                         -0.2162987              -5.8858
       ...                                ...                  ...
       202                          1.1548851              31.4260
      -------------------------------------------------------------
                  HL-Gap            0.0171679 Eh            0.4672 eV

     #   Z          covCN         q      C6AA      α(0)
     1   6 C        3.761    -0.110    22.652     6.785
     2   6 C        3.909     0.026    20.083     6.370
     3   6 C        3.761    -0.110    22.652     6.785
     4   6 C        2.978     0.004    27.921     8.668
     5   6 C        2.924    -0.030    28.745     8.792
     6   6 C        2.917    -0.025    28.629     8.774
     7   6 C        2.917    -0.023    28.583     8.767
     8   6 C        2.921    -0.044    29.085     8.844
     9   6 C        2.930     0.061    26.632     8.463
    10   7 N        2.755    -0.003    21.322     6.858
    11   6 C        2.932     0.061    26.638     8.464
    12   6 C        2.920    -0.033    28.819     8.803
    13   6 C        2.924    -0.024    28.615     8.772
    14   6 C        2.980     0.012    27.743     8.640
    15   6 C        3.007     0.028    27.362     8.581
    16   6 C        2.965    -0.042    29.033     8.838
    17   6 C        1.911     0.104    28.519     8.625
    18   7 N        0.911    -0.336    28.632     7.739
    19   6 C        2.928     0.078    26.258     8.403
    20   6 C        2.976    -0.008    28.212     8.713
    21   6 C        2.933    -0.017    28.425     8.744
    22   6 C        2.910    -0.038    28.952     8.823
    23   6 C        2.906     0.052    26.832     8.494
    24   7 N        1.836    -0.220    26.638     7.649
    25   6 C        2.907     0.054    26.787     8.487
    26   7 N        1.861    -0.235    27.006     7.703
    27   6 C        2.927     0.068    26.470     8.437
    28   6 C        2.975    -0.009    28.232     8.716
    29   6 C        2.928    -0.028    28.702     8.786
    30   6 C        2.910    -0.036    28.892     8.814
    31   6 C        2.903     0.042    27.054     8.529
    32   7 N        1.837    -0.191    25.958     7.550
    33   6 C        2.911     0.055    26.768     8.484
    34   6 C        2.964    -0.036    28.902     8.818
    35   6 C        1.914     0.108    28.429     8.611
    36   7 N        0.911    -0.336    28.630     7.739
    37   6 C        2.925    -0.024    28.614     8.772
    38   6 C        2.920    -0.033    28.819     8.803
    39   6 C        2.930     0.061    26.631     8.463
    40   6 C        2.921    -0.044    29.081     8.843
    41   6 C        2.917    -0.023    28.579     8.766
    42   6 C        2.917    -0.025    28.623     8.773
    43   6 C        2.924    -0.030    28.745     8.792
    44   6 C        2.978     0.004    27.922     8.668
    45   1 H        0.925     0.057     2.236     2.339
    46   1 H        0.925     0.057     2.234     2.337
    47   1 H        0.925     0.041     2.440     2.443
    48   1 H        0.925     0.057     2.236     2.339
    49   1 H        0.925     0.057     2.234     2.337
    50   1 H        0.925     0.041     2.440     2.443
    51   1 H        0.926     0.059     2.205     2.322
    52   1 H        0.926     0.053     2.289     2.366
    53   1 H        0.926     0.049     2.332     2.388
    54   1 H        0.926     0.043     2.405     2.425
    55   1 H        0.926     0.060     2.203     2.321
    56   1 H        0.926     0.043     2.415     2.430
    57   1 H        0.926     0.049     2.335     2.390
    58   1 H        0.926     0.049     2.333     2.389
    59   1 H        0.925     0.045     2.387     2.416
    60   1 H        0.925     0.036     2.500     2.473
    61   1 H        0.926     0.041     2.435     2.440
    62   1 H        0.926     0.048     2.350     2.397
    63   1 H        0.926     0.047     2.354     2.399
    64   1 H        0.925     0.056     2.247     2.344
    65   1 H        0.926     0.042     2.419     2.432
    66   1 H        0.926     0.060     2.203     2.321
    67   1 H        0.926     0.043     2.405     2.425
    68   1 H        0.926     0.049     2.329     2.387
    69   1 H        0.926     0.053     2.286     2.364
    70   1 H        0.926     0.060     2.203     2.321

molecular dipole:
                 x           y           z       tot (Debye)
 q only:       -6.768      -0.590      -0.273
   full:       -6.457      -0.893      -0.453      16.607

 projected vibrational frequencies (cm⁻¹)
eigval :       -0.00    -0.00     0.00     0.00     0.00     0.00
eigval :        9.37    14.29    18.84    25.25    26.81    33.56
eigval :       36.84    46.63    50.16    62.15    65.14    70.17
eigval :       90.09    96.73   108.59   113.05   129.35   136.97
eigval :      151.72   152.96   164.74   194.63   202.39   213.03
eigval :      214.83   230.42   231.84   237.37   252.21   268.97
eigval :      283.46   289.30   303.69   323.25   324.55   337.35
eigval :      356.03   362.36   368.88   371.63   375.79   396.05
eigval :      397.45   400.02   405.79   420.41   445.56   446.29
eigval :      462.16   496.67   496.87   501.25   504.97   519.87
eigval :      537.06   538.71   542.86   573.42   574.90   581.20
eigval :      584.26   591.20   593.17   598.91   617.61   637.48
eigval :      649.90   650.61   658.35   670.20   671.40   677.61
eigval :      688.27   702.98   704.64   731.28   758.82   770.13
eigval :      770.73   773.24   778.62   814.60   824.95   827.04
eigval :      859.21   860.20   870.83   870.88   871.65   881.68
eigval :      888.39   903.81   905.47   913.86   914.13   916.69
eigval :      917.22   917.95   918.24   922.67   924.05   936.53
eigval :      943.63   958.38   966.98  1006.77  1010.43  1011.08
eigval :     1048.48  1070.82  1082.77  1086.40  1087.92  1103.51
eigval :     1107.77  1124.00  1130.14  1133.09  1137.40  1139.74
eigval :     1163.12  1172.03  1178.87  1181.44  1182.35  1183.51
eigval :     1188.87  1194.27  1204.72  1229.65  1232.25  1239.49
eigval :     1241.43  1256.52  1261.38  1264.42  1264.73  1290.78
eigval :     1294.08  1299.09  1304.44  1308.43  1311.11  1319.73
eigval :     1327.84  1335.16  1349.88  1376.29  1386.71  1395.48
eigval :     1400.17  1405.18  1408.56  1409.92  1411.13  1413.61
eigval :     1424.90  1442.26  1449.25  1449.90  1468.92  1477.56
eigval :     1481.73  1483.49  1488.77  1491.86  1495.28  1513.42
eigval :     1541.94  1543.38  1552.99  1557.01  1561.92  1572.36
eigval :     1583.12  1591.62  2256.63  2296.30  3031.68  3033.35
eigval :     3053.83  3055.22  3055.90  3060.22  3064.12  3064.34
eigval :     3069.55  3075.14  3082.50  3084.58  3086.29  3090.34
eigval :     3090.47  3091.05  3095.04  3097.51  3097.56  3097.90
eigval :     3098.97  3106.47  3106.69  3108.09  3113.06  3113.40

   temp. (K)  partition function   enthalpy   heat capacity  entropy
                                   cal/mol     cal/K/mol   cal/K/mol   J/K/mol
 298.15  VIB  0.239E+18            21795.745    132.828    136.503
         ROT  0.704E+08              888.752      2.981     38.889
         INT  0.168E+26            22684.497    135.809    175.392
         TR   0.131E+29             1481.254      4.968     44.868
         TOT                       24165.7509   140.7773   220.2601   921.5683

       T/K    H(0)-H(T)+PV         H(T)/Eh          T*S/Eh         G(T)/Eh
   ------------------------------------------------------------------------
    298.15    0.385106E-01    0.562284E+00    0.104653E+00    0.457632E+00
   ------------------------------------------------------------------------

         :::::::::::::::::::::::::::::::::::::::::::::::::::::
         ::                  THERMODYNAMIC                  ::
         :::::::::::::::::::::::::::::::::::::::::::::::::::::
         :: total free energy        -111.646136221243 Eh   ::
         ::.................................................::
         :: total energy             -112.103768018246 Eh   ::
         :: zero point energy           0.523773908329 Eh   ::
         :: G(RRHO) w/o ZPVE           -0.066142111327 Eh   ::
         :: G(RRHO) contrib.            0.457631797003 Eh   ::
         :::::::::::::::::::::::::::::::::::::::::::::::::::::

           -------------------------------------------------
          | TOTAL ENERGY             -112.103768018246 Eh   |
          | TOTAL ENTHALPY           -111.541483534527 Eh   |
          | TOTAL FREE ENERGY        -111.646136221243 Eh   |
          | GRADIENT NORM               0.000061522040 Eh/α |
          | HOMO-LUMO GAP               0.467161916489 eV   |
           -------------------------------------------------

 * finished run on 2025/09/10 at 22:24:56.519
