   * xtb version 6.7.1 (edcfbbe) compiled by 'albert@albert-system' on 2024-07-22

   ID    Z sym.   atoms
    1    6 C      1-9, 11-17, 19-23, 25, 27-31, 33-35, 37-44
    2    7 N      10, 18, 24, 26, 32, 36
    3    1 H      45-70

          program call               : xtb data2507/toluene/3Py-DMAC/3Py-DMAC.xyz --gfn 2 --gbsa toluene --ohess vtight --parallel 40 --molden --ceasefiles --namespace data2507/toluene/3Py-DMAC/3Py-DMAC_toluene_S0_preOpt
      * Solvation model:               GBSA
        Solvent                        toluene
        Solvent mass                       9.2140E+01 g/mol
          :  Hamiltonian                  GFN2-xTB          :
 * total energy  :  -112.1353886 Eh     change       -0.2368282E-08 Eh
 * total energy  :  -112.1526254 Eh     change       -0.1723675E-01 Eh
 * total energy  :  -112.1572856 Eh     change       -0.4660183E-02 Eh
 * total energy  :  -112.1581363 Eh     change       -0.8506971E-03 Eh
 * total energy  :  -112.1589037 Eh     change       -0.7674044E-03 Eh
 * total energy  :  -112.1592400 Eh     change       -0.3362963E-03 Eh
 * total energy  :  -112.1594898 Eh     change       -0.2498250E-03 Eh
 * total energy  :  -112.1597064 Eh     change       -0.2166085E-03 Eh
 * total energy  :  -112.1598816 Eh     change       -0.1751896E-03 Eh
 * total energy  :  -112.1600187 Eh     change       -0.1370660E-03 Eh
 * total energy  :  -112.1619770 Eh     change       -0.3178433E-06 Eh
 * total energy  :  -112.1619773 Eh     change       -0.2471785E-06 Eh
 * total energy  :  -112.1619775 Eh     change       -0.2964492E-06 Eh
 * total energy  :  -112.1619780 Eh     change       -0.4582575E-06 Eh
 * total energy  :  -112.1619784 Eh     change       -0.3912031E-06 Eh
 * total energy  :  -112.1619787 Eh     change       -0.2852873E-06 Eh
 * total energy  :  -112.1619789 Eh     change       -0.2504897E-06 Eh
 * total energy  :  -112.1619791 Eh     change       -0.1784431E-06 Eh
 * total energy  :  -112.1619792 Eh     change       -0.3995284E-07 Eh
   *** GEOMETRY OPTIMIZATION CONVERGED AFTER 108 ITERATIONS ***

 final structure:
================
70
 xtb: 6.7.1 (edcfbbe)
C           -6.97660513506297        0.08341272360626       -1.27984356754362
C           -6.09178483277617        0.00693846070047       -0.02113182845965
C           -6.96886959217020       -0.06991210805033        1.24297065282501
C           -5.24208050825923       -1.24677554293250       -0.10578369841038
C           -5.86543873733477       -2.48500224517176       -0.19333751035910
C           -5.15068496844440       -3.66206484660112       -0.31435833762903
C           -3.76992218077287       -3.60833667507388       -0.37702636214738
C           -3.12537202524461       -2.39192973513476       -0.29000386686771
C           -3.84417565926052       -1.20366605992051       -0.12542230806735
N           -3.16623669981005        0.00705473465314       -0.02207676642492
C           -1.75285382141923        0.00460130127103       -0.01142084946553
C           -1.04096327452499        0.54245312105833       -1.08070087425551
C            0.33863821386105        0.54982785524076       -1.06467731145907
C            1.03168841463360       -0.00144927086507        0.01124892003851
C            2.49897380692020       -0.01188842837117        0.02662547040910
C            3.23925520054475        1.16564251226004       -0.15873354351526
C            2.56965631611296        2.39200839109567       -0.35495648828861
N            2.02343965140211        3.38908557392669       -0.51524456522497
C            4.64830100749704        1.09111258209674       -0.16422643472345
C            5.49458278382200        2.26957076066688       -0.37340119090921
C            5.25833078149169        3.49142030786317        0.25384087200564
C            6.11394290027738        4.54905278051367       -0.00205481172359
C            7.18145349244116        4.34436251901496       -0.86454689897088
N            7.41950881162053        3.18531143421153       -1.45819836511767
C            6.60443829394371        2.18001744189738       -1.21895924213212
N            5.28422963590468       -0.05757990121095        0.00247694350767
C            4.61460490950541       -1.17997941103056        0.21827075844058
C            5.42294359774509       -2.37779640005511        0.45199047774305
C            6.61192206641878       -2.57707903937612       -0.25118795969539
C            7.35962878599914       -3.71157780383584        0.00376567399129
C            6.89272148079969       -4.60766158504588        0.95620563676581
N            5.78791425440870       -4.40830071774004        1.65634001302010
C            5.07653235209433       -3.32565916474157        1.41814185987164
C            3.20441508733259       -1.20839284764610        0.22546931588554
C            2.49535447137269       -2.42728520669185        0.28961752853892
N            1.90919716121172       -3.41414604226445        0.27731251722644
C            0.31810874670304       -0.55145769321686        1.07487004920581
C           -1.06122523098989       -0.53761287450705        1.06902936354830
C           -3.84382748628423        1.21804934710837        0.07688075175215
C           -3.12551533964925        2.40741084869442        0.23582722934617
C           -3.77033401395877        3.62389045301019        0.31962252599898
C           -5.15118444897426        3.67696134815519        0.25972362103358
C           -5.86552022263069        2.49911866850522        0.14369798861187
C           -5.24190705430610        1.26089638229152        0.05845963935550
H           -7.60948304114922        0.96603156360268       -1.25591872227883
H           -7.61600223914687       -0.79129869957793       -1.35816339425736
H           -6.35185081991303        0.13259594707007       -2.17018613707057
H           -7.60296324939018       -0.95174681950104        1.22145357253007
H           -7.60646227185259        0.80568827887744        1.32642376094659
H           -6.33875467811568       -0.12140543728654        2.12938704616114
H           -6.94320910503501       -2.53766188658797       -0.16937215348031
H           -5.66751269945453       -4.60805336076910       -0.37410669597882
H           -3.18844061620492       -4.51053609714636       -0.49712055189963
H           -2.04856279792339       -2.36557751158205       -0.35670415956867
H           -1.57649750836736        0.95528757984291       -1.92207858350137
H            0.88246147813801        0.95600408307732       -1.90482630053995
H            4.43810904896102        3.60502659385597        0.94748736044744
H            5.96140324499893        5.50705220164517        0.46851000460050
H            7.88424515149509        5.13574156957900       -1.08795158944828
H            6.82586538209657        1.25246586168658       -1.72903678846666
H            6.92132010606148       -1.85137019007009       -0.98773119764173
H            8.27907908358294       -3.90123087534131       -0.52651693035491
H            7.42579534160786       -5.52171275138172        1.18078295040894
H            4.20214401899917       -3.19615404620580        2.04323078668271
H            0.84643491728236       -0.96342002759518        1.92223346250647
H           -1.61280351003184       -0.95082298016863        1.89980505697880
H           -2.04860740155342        2.38139567920964        0.30026820044405
H           -3.18922638759144        4.52699144301421        0.43505862583105
H           -5.66839527613996        4.62285447561044        0.31769916710175
H           -6.94336616354953        2.55121345777048        0.12227818210859

          :  Hamiltonian                  GFN2-xTB          :
         :: gradient norm              0.000198631442 Eh/a0 ::
         :: HOMO-LUMO gap              0.790906013653 eV    ::
         :: SCC energy              -114.226923192427 Eh    ::
         :: -> dispersion             -0.099553020628 Eh    ::
         :: -> Gsolv                  -0.050140135008 Eh    ::
         :: repulsion energy           2.064944039868 Eh    ::

    * Orbital Energies and Occupations

         #    Occupation            Energy/Eh            Energy/eV
      -------------------------------------------------------------
         1        2.0000           -0.7132233             -19.4078
       ...           ...                  ...                  ...
        92        2.0000           -0.4322471             -11.7620
        93        2.0000           -0.4294170             -11.6850
        94        2.0000           -0.4277051             -11.6384
        95        2.0000           -0.4223309             -11.4922
        96        2.0000           -0.4104302             -11.1684
        97        2.0000           -0.4099029             -11.1540
        98        2.0000           -0.4081804             -11.1072
        99        2.0000           -0.4050639             -11.0223
       100        2.0000           -0.3989656             -10.8564
       101        2.0000           -0.3935865             -10.7100
       102        2.0000           -0.3885079             -10.5718
       103        2.0000           -0.3878976             -10.5552
       104        2.0000           -0.3498117              -9.5189 (HOMO)
       105        0.0000           -0.3207463              -8.7280 (LUMO)
       106                         -0.3103424              -8.4448
       107                         -0.2751799              -7.4880
       108                         -0.2680395              -7.2937
       109                         -0.2653240              -7.2198
       110                         -0.2520748              -6.8593
       111                         -0.2481656              -6.7529
       112                         -0.2463085              -6.7024
       113                         -0.2353683              -6.4047
       114                         -0.2294418              -6.2434
       115                         -0.2259575              -6.1486
       ...                                ...                  ...
       202                          1.1378620              30.9628
      -------------------------------------------------------------
                  HL-Gap            0.0290653 Eh            0.7909 eV

     #   Z          covCN         q      C6AA      α(0)
     1   6 C        3.761    -0.104    22.537     6.768
     2   6 C        3.909     0.021    20.162     6.382
     3   6 C        3.761    -0.104    22.535     6.767
     4   6 C        2.979    -0.012    28.317     8.729
     5   6 C        2.928    -0.037    28.922     8.820
     6   6 C        2.917    -0.045    29.106     8.847
     7   6 C        2.920    -0.034    28.842     8.807
     8   6 C        2.924    -0.059    29.463     8.901
     9   6 C        2.926     0.057    26.720     8.477
    10   7 N        2.753    -0.069    22.585     7.058
    11   6 C        2.927     0.077    26.284     8.408
    12   6 C        2.921    -0.035    28.869     8.811
    13   6 C        2.922    -0.027    28.670     8.781
    14   6 C        2.978     0.001    28.004     8.680
    15   6 C        2.995     0.040    27.100     8.539
    16   6 C        2.970    -0.010    28.253     8.719
    17   6 C        1.908     0.120    28.152     8.569
    18   7 N        0.911    -0.254    26.604     7.460
    19   6 C        2.950     0.107    25.636     8.304
    20   6 C        2.978    -0.005    28.137     8.701
    21   6 C        2.930    -0.010    28.258     8.718
    22   6 C        2.913    -0.033    28.824     8.804
    23   6 C        2.913     0.063    26.586     8.455
    24   7 N        1.835    -0.213    26.468     7.624
    25   6 C        2.918     0.065    26.537     8.448
    26   7 N        1.855    -0.242    27.169     7.726
    27   6 C        2.950     0.107    25.634     8.304
    28   6 C        2.977    -0.005    28.150     8.703
    29   6 C        2.933    -0.006    28.160     8.703
    30   6 C        2.912    -0.033    28.827     8.804
    31   6 C        2.912     0.064    26.558     8.450
    32   7 N        1.835    -0.216    26.534     7.634
    33   6 C        2.913     0.062    26.600     8.457
    34   6 C        2.971    -0.010    28.264     8.721
    35   6 C        1.909     0.118    28.191     8.575
    36   7 N        0.911    -0.253    26.577     7.456
    37   6 C        2.923    -0.027    28.669     8.781
    38   6 C        2.921    -0.035    28.873     8.812
    39   6 C        2.926     0.057    26.718     8.477
    40   6 C        2.924    -0.059    29.470     8.903
    41   6 C        2.920    -0.034    28.846     8.807
    42   6 C        2.917    -0.045    29.112     8.848
    43   6 C        2.928    -0.037    28.922     8.819
    44   6 C        2.979    -0.012    28.316     8.729
    45   1 H        0.925     0.043     2.409     2.427
    46   1 H        0.925     0.043     2.411     2.428
    47   1 H        0.925     0.030     2.581     2.512
    48   1 H        0.925     0.043     2.408     2.427
    49   1 H        0.925     0.043     2.412     2.428
    50   1 H        0.925     0.030     2.580     2.512
    51   1 H        0.926     0.035     2.510     2.478
    52   1 H        0.926     0.028     2.608     2.525
    53   1 H        0.926     0.029     2.599     2.521
    54   1 H        0.926     0.023     2.681     2.561
    55   1 H        0.926     0.056     2.241     2.341
    56   1 H        0.926     0.042     2.426     2.436
    57   1 H        0.926     0.046     2.366     2.405
    58   1 H        0.926     0.061     2.185     2.312
    59   1 H        0.925     0.057     2.232     2.336
    60   1 H        0.925     0.053     2.283     2.363
    61   1 H        0.926     0.062     2.172     2.305
    62   1 H        0.926     0.064     2.152     2.294
    63   1 H        0.925     0.058     2.227     2.334
    64   1 H        0.925     0.040     2.447     2.446
    65   1 H        0.926     0.042     2.424     2.435
    66   1 H        0.926     0.057     2.240     2.340
    67   1 H        0.926     0.023     2.683     2.562
    68   1 H        0.926     0.029     2.605     2.524
    69   1 H        0.926     0.028     2.611     2.527
    70   1 H        0.926     0.035     2.511     2.478

molecular dipole:
                 x           y           z       tot (Debye)
 q only:        0.578       0.366      -0.001
   full:        0.527       0.632       0.056       2.097

 projected vibrational frequencies (cm⁻¹)
eigval :       -0.00    -0.00    -0.00     0.00     0.00     0.00
eigval :        6.29    12.36    17.77    23.39    26.55    33.46
eigval :       41.85    46.47    55.37    59.08    61.72    82.08
eigval :       91.37   101.70   101.94   116.70   119.42   132.08
eigval :      144.14   147.80   166.87   191.92   200.66   203.47
eigval :      216.02   218.11   234.74   243.04   249.13   266.54
eigval :      281.80   293.92   304.61   322.07   328.83   331.81
eigval :      345.27   361.24   365.03   374.66   381.01   385.79
eigval :      394.58   399.85   412.92   451.32   452.02   460.22
eigval :      481.82   485.91   492.37   510.87   514.75   541.21
eigval :      547.53   549.79   563.68   578.87   580.23   592.22
eigval :      594.87   596.82   601.58   633.25   640.76   651.07
eigval :      663.49   673.33   677.97   682.20   685.78   689.81
eigval :      693.30   703.62   731.48   736.08   776.29   777.69
eigval :      785.88   788.27   796.36   818.30   827.22   837.12
eigval :      864.62   869.17   871.03   893.34   897.60   911.46
eigval :      913.27   914.09   915.98   916.64   916.79   920.19
eigval :      921.71   921.75   922.53   924.69   929.93   939.70
eigval :      959.65   975.06   986.12  1012.52  1014.59  1022.70
eigval :     1067.81  1075.86  1084.99  1090.57  1091.86  1114.52
eigval :     1119.29  1131.69  1132.31  1138.81  1139.90  1158.59
eigval :     1170.48  1183.19  1185.37  1186.91  1187.46  1190.97
eigval :     1192.67  1208.90  1217.03  1244.05  1249.94  1255.84
eigval :     1259.04  1261.94  1262.83  1268.56  1269.31  1278.29
eigval :     1281.94  1293.42  1306.79  1313.82  1322.95  1330.92
eigval :     1331.32  1349.74  1374.06  1388.45  1401.05  1401.66
eigval :     1406.89  1413.40  1420.38  1434.01  1437.41  1445.04
eigval :     1451.84  1471.53  1474.94  1484.53  1486.83  1487.44
eigval :     1495.23  1496.50  1499.00  1502.85  1552.99  1554.36
eigval :     1556.65  1567.15  1568.73  1573.99  1583.54  1589.70
eigval :     1589.90  1599.66  2348.63  2353.55  3022.69  3025.15
eigval :     3040.12  3041.86  3048.62  3052.36  3053.30  3066.01
eigval :     3067.05  3067.45  3074.22  3074.88  3080.41  3081.17
eigval :     3081.50  3081.77  3083.41  3091.47  3091.78  3092.96
eigval :     3097.54  3098.19  3098.73  3100.03  3105.67  3106.39

   temp. (K)  partition function   enthalpy   heat capacity  entropy
                                   cal/mol     cal/K/mol   cal/K/mol   J/K/mol
 298.15  VIB  0.376E+18            21634.454    131.432    136.502
         ROT  0.711E+08              888.752      2.981     38.909
         INT  0.267E+26            22523.206    134.413    175.411
         TR   0.131E+29             1481.254      4.968     44.868
         TOT                       24004.4599   139.3809   220.2790   921.6473

       T/K    H(0)-H(T)+PV         H(T)/Eh          T*S/Eh         G(T)/Eh
   ------------------------------------------------------------------------
    298.15    0.382535E-01    0.565382E+00    0.104662E+00    0.460720E+00
   ------------------------------------------------------------------------

         :::::::::::::::::::::::::::::::::::::::::::::::::::::
         ::                  THERMODYNAMIC                  ::
         :::::::::::::::::::::::::::::::::::::::::::::::::::::
         :: total free energy        -111.701259300767 Eh   ::
         ::.................................................::
         :: total energy             -112.161979151887 Eh   ::
         :: zero point energy           0.527127971683 Eh   ::
         :: G(RRHO) w/o ZPVE           -0.066408120564 Eh   ::
         :: G(RRHO) contrib.            0.460719851120 Eh   ::
         :::::::::::::::::::::::::::::::::::::::::::::::::::::

           -------------------------------------------------
          | TOTAL ENERGY             -112.161979151887 Eh   |
          | TOTAL ENTHALPY           -111.596597638341 Eh   |
          | TOTAL FREE ENERGY        -111.701259300767 Eh   |
          | GRADIENT NORM               0.000198421851 Eh/α |
          | HOMO-LUMO GAP               0.790908018056 eV   |
           -------------------------------------------------

 * finished run on 2025/09/10 at 22:15:11.916
