   * xtb version 6.7.1 (edcfbbe) compiled by 'albert@albert-system' on 2024-07-22

   ID    Z sym.   atoms
    1    6 C      1-9, 11-17, 19-23, 25, 27-31, 33-35, 37-44
    2    7 N      10, 18, 24, 26, 32, 36
    3    1 H      45-70

          program call               : xtb data2507/toluene/3Py-DMAC/3Py-DMAC_toluene_S0_finalOpt.xtbopt.xyz --gfn 2 --uhf 2 --gbsa toluene --ohess vtight --parallel 40 --molden --ceasefiles --namespace data2507/toluene/3Py-DMAC/3Py-DMAC_toluene_T1_preOpt
      * Solvation model:               GBSA
        Solvent                        toluene
        Solvent mass                       9.2140E+01 g/mol
          :  Hamiltonian                  GFN2-xTB          :
 * total energy  :  -112.0892697 Eh     change       -0.1915751E-08 Eh
 * total energy  :  -112.0920585 Eh     change       -0.2788864E-02 Eh
 * total energy  :  -112.0935417 Eh     change       -0.1483218E-02 Eh
 * total energy  :  -112.0938343 Eh     change       -0.2925337E-03 Eh
 * total energy  :  -112.0942649 Eh     change       -0.4305758E-03 Eh
 * total energy  :  -112.0945567 Eh     change       -0.2918643E-03 Eh
 * total energy  :  -112.0949172 Eh     change       -0.3604536E-03 Eh
 * total energy  :  -112.0953416 Eh     change       -0.4244529E-03 Eh
 * total energy  :  -112.0956419 Eh     change       -0.3002487E-03 Eh
 * total energy  :  -112.0958497 Eh     change       -0.2078696E-03 Eh
 * total energy  :  -112.0964939 Eh     change       -0.1008400E-05 Eh
 * total energy  :  -112.0964948 Eh     change       -0.8478204E-06 Eh
 * total energy  :  -112.0964955 Eh     change       -0.7676012E-06 Eh
 * total energy  :  -112.0964963 Eh     change       -0.7845538E-06 Eh
 * total energy  :  -112.0964972 Eh     change       -0.9084445E-06 Eh
 * total energy  :  -112.0964982 Eh     change       -0.1012030E-05 Eh
 * total energy  :  -112.0964994 Eh     change       -0.1140875E-05 Eh
 * total energy  :  -112.0965005 Eh     change       -0.1096766E-05 Eh
 * total energy  :  -112.0965005 Eh     change       -0.4849852E-08 Eh
   *** GEOMETRY OPTIMIZATION CONVERGED AFTER 68 ITERATIONS ***

 final structure:
================
70
 xtb: 6.7.1 (edcfbbe)
C           -7.31483053708866       -1.01627410772537       -1.62276126165054
C           -5.92108784612169       -0.68089963896371       -1.08976727289851
C           -4.88319880768321       -1.36179604490683       -2.00761125988685
C           -5.65656904221451        0.81371861587170       -1.06318041197156
C           -6.42377250736569        1.76119555804903       -1.72236296591306
C           -6.11893015102992        3.11047414295286       -1.63570624081559
C           -5.04935221645266        3.53902118771141       -0.86690462208030
C           -4.26660012135163        2.61371198759318       -0.20366063918500
C           -4.55100861708544        1.25622082684842       -0.32448154458869
N           -3.80098948377455        0.29147459603796        0.37276749024521
C           -2.43111139858022        0.20547069692164        0.30300434629876
C           -1.69453688523107        1.08146759900538       -0.51496561636078
C           -0.32425302727124        1.00117863418569       -0.58104966891423
C            0.37617524993685        0.03168678393008        0.13821212367344
C            1.84270272000240       -0.02221638843908        0.08812086252460
C            2.58170708238208        1.13947725011922        0.35255447095133
C            1.93151743681283        2.26208449880074        0.85526906202651
N            1.35782262775024        3.15485834134035        1.31471887407599
C            4.01912895241431        1.06486921154831        0.20931974328830
C            4.89493484315261        2.21661189484138        0.29126345908703
C            6.24920427995173        2.05863969471277        0.62663061880927
C            7.07759137525061        3.16005808235513        0.66414479071929
C            6.53856516657680        4.40544191001954        0.36147246345923
N            5.26883699872524        4.56341512701836        0.02380016855757
C            4.47222450780531        3.51871565225753       -0.01432096238586
N            4.59164264976441       -0.09589245606107       -0.00675469921634
C            3.94528669215829       -1.23709936849585       -0.18312536936110
C            4.74861587147585       -2.41944332562049       -0.32714900807330
C            4.28422638575650       -3.74310075993197       -0.22592809045215
C            5.16770738660190       -4.79438224039968       -0.35780726960770
C            6.51152041995657       -4.52280566791565       -0.58875079023955
N            6.95645117246641       -3.27696229246186       -0.67431905633846
C            6.13623384950133       -2.27242296446685       -0.55001184779924
C            2.49327517214920       -1.22057003165446       -0.22644324598335
C            1.73180844527888       -2.29443749273915       -0.67715905424248
N            1.05892060136990       -3.14204486924708       -1.08604806273344
C           -0.35502286922997       -0.89077060589200        0.88695866883009
C           -1.72606824628332       -0.81615218058621        0.96336846933884
C           -4.61441984656921       -0.64684229728906        1.03531967499603
C           -4.40136218767700       -0.97560475789218        2.37092458653840
C           -5.23919668970950       -1.87820982940516        2.99763502988158
C           -6.29487478566174       -2.43793239619589        2.29760111955653
C           -6.53645879697750       -2.06933686837522        0.98371814132328
C           -5.71451232759680       -1.16119261593109        0.33524576809564
H           -7.45890964401717       -2.09303253507288       -1.63881349569865
H           -7.41715763447349       -0.66375399056030       -2.64539217207431
H           -8.08808037399146       -0.56112656119731       -1.00853869929135
H           -3.86340418336541       -1.16740295834338       -1.68602413245749
H           -4.99581555916095       -0.99580679676564       -3.02556932442522
H           -5.04047645236309       -2.43792776718505       -2.00495890898400
H           -7.27337526133508        1.45765728548604       -2.31068684442634
H           -6.73138020194994        3.83032484003019       -2.15682101564964
H           -4.83020087289604        4.59132053376251       -0.77144844542836
H           -3.45515073886923        2.93622019741268        0.43143425593503
H           -2.20075092592831        1.81313033227300       -1.12275898668380
H            0.21622649221187        1.68537480907977       -1.21852305521829
H            6.61818679218444        1.07148521171532        0.86197890924077
H            8.11962164432088        3.06369085701570        0.92658968699600
H            7.13539499914675        5.30658884672248        0.38277623926903
H            3.45505787547271        3.72058743612069       -0.32115898810429
H            3.24145942698145       -3.94118685925088       -0.03266747587363
H            4.82576051409193       -5.81465847923673       -0.27997333327460
H            7.24667512711312       -5.30530128471019       -0.70430255033449
H            6.55022892317941       -1.27589049653263       -0.62952135423562
H            0.16269206883647       -1.67205751657015        1.42354215469300
H           -2.25410874626801       -1.57054769989551        1.52196485342626
H           -3.60589254854020       -0.49555992511184        2.92050158981003
H           -5.07380334934025       -2.13227474188365        4.03333374898904
H           -6.94827377296598       -3.14726854315621        2.78208231279786
H           -7.38063946645644       -2.49863680920565        0.47073971894975

          :  Hamiltonian                  GFN2-xTB          :
         :: gradient norm              0.000084708819 Eh/a0 ::
         :: HOMO-LUMO gap              0.435525395485 eV    ::
         :: SCC energy              -114.149508057061 Eh    ::
         :: -> dispersion             -0.099601977534 Eh    ::
         :: -> Gsolv                  -0.061328934230 Eh    ::
         :: repulsion energy           2.053007587146 Eh    ::

    * Orbital Energies and Occupations

         #    Occupation            Energy/Eh            Energy/eV
      -------------------------------------------------------------
         1        2.0000           -0.6970425             -18.9675
       ...           ...                  ...                  ...
        93        2.0000           -0.4292109             -11.6794
        94        2.0000           -0.4240777             -11.5397
        95        2.0000           -0.4195104             -11.4155
        96        2.0000           -0.4182628             -11.3815
        97        2.0000           -0.4170790             -11.3493
        98        2.0000           -0.4160723             -11.3219
        99        2.0000           -0.4146562             -11.2834
       100        2.0000           -0.3950159             -10.7489
       101        2.0000           -0.3907474             -10.6328
       102        1.9185           -0.3792925             -10.3211
       103        1.6253           -0.3774774             -10.2717
       104        1.4561           -0.3768237             -10.2539
       105        0.9998           -0.3011542              -8.1948 (HOMO)
       106        0.0002           -0.2851491              -7.7593 (LUMO)
       107                         -0.2628264              -7.1519
       108                         -0.2525502              -6.8722
       109                         -0.2515145              -6.8441
       110                         -0.2471731              -6.7259
       111                         -0.2454945              -6.6802
       112                         -0.2443577              -6.6493
       113                         -0.2411632              -6.5624
       114                         -0.2367221              -6.4415
       115                         -0.2224132              -6.0522
       116                         -0.2200148              -5.9869
       ...                                ...                  ...
       202                          1.1551262              31.4326
      -------------------------------------------------------------
                  HL-Gap            0.0160051 Eh            0.4355 eV

     #   Z          covCN         q      C6AA      α(0)
     1   6 C        3.759    -0.114    22.731     6.797
     2   6 C        3.910     0.025    20.102     6.373
     3   6 C        3.761    -0.102    22.493     6.761
     4   6 C        2.986     0.003    27.947     8.672
     5   6 C        2.922    -0.033    28.810     8.802
     6   6 C        2.919    -0.027    28.670     8.780
     7   6 C        2.919    -0.028    28.689     8.783
     8   6 C        2.919    -0.039    28.962     8.825
     9   6 C        2.953     0.052    26.839     8.497
    10   7 N        2.755    -0.008    21.416     6.873
    11   6 C        2.912     0.073    26.379     8.422
    12   6 C        2.921    -0.044    29.096     8.846
    13   6 C        2.922    -0.023    28.584     8.767
    14   6 C        2.978     0.009    27.811     8.651
    15   6 C        2.998     0.028    27.355     8.579
    16   6 C        2.966    -0.041    29.013     8.835
    17   6 C        1.910     0.105    28.498     8.621
    18   7 N        0.911    -0.333    28.573     7.731
    19   6 C        2.929     0.078    26.262     8.404
    20   6 C        2.976    -0.007    28.195     8.710
    21   6 C        2.933    -0.017    28.424     8.744
    22   6 C        2.910    -0.037    28.930     8.820
    23   6 C        2.905     0.052    26.841     8.495
    24   7 N        1.836    -0.213    26.468     7.624
    25   6 C        2.907     0.054    26.781     8.486
    26   7 N        1.860    -0.231    26.906     7.688
    27   6 C        2.929     0.069    26.458     8.436
    28   6 C        2.975    -0.008    28.208     8.712
    29   6 C        2.928    -0.027    28.668     8.781
    30   6 C        2.911    -0.035    28.868     8.810
    31   6 C        2.902     0.042    27.058     8.529
    32   7 N        1.837    -0.184    25.788     7.526
    33   6 C        2.910     0.055    26.774     8.485
    34   6 C        2.964    -0.035    28.874     8.814
    35   6 C        1.911     0.108    28.424     8.610
    36   7 N        0.911    -0.332    28.526     7.725
    37   6 C        2.921    -0.024    28.592     8.769
    38   6 C        2.920    -0.045    29.119     8.849
    39   6 C        2.952     0.052    26.837     8.497
    40   6 C        2.919    -0.040    28.983     8.828
    41   6 C        2.919    -0.028    28.699     8.785
    42   6 C        2.919    -0.027    28.674     8.781
    43   6 C        2.922    -0.032    28.807     8.802
    44   6 C        2.987     0.003    27.940     8.671
    45   1 H        0.925     0.053     2.286     2.364
    46   1 H        0.925     0.053     2.285     2.364
    47   1 H        0.925     0.049     2.338     2.391
    48   1 H        0.925     0.033     2.540     2.492
    49   1 H        0.925     0.050     2.321     2.382
    50   1 H        0.925     0.050     2.317     2.380
    51   1 H        0.926     0.062     2.173     2.305
    52   1 H        0.926     0.051     2.307     2.375
    53   1 H        0.926     0.050     2.323     2.383
    54   1 H        0.926     0.050     2.316     2.380
    55   1 H        0.926     0.061     2.182     2.310
    56   1 H        0.926     0.039     2.457     2.451
    57   1 H        0.926     0.051     2.313     2.378
    58   1 H        0.926     0.051     2.307     2.375
    59   1 H        0.926     0.047     2.357     2.401
    60   1 H        0.925     0.037     2.483     2.464
    61   1 H        0.926     0.042     2.416     2.431
    62   1 H        0.926     0.050     2.318     2.381
    63   1 H        0.926     0.050     2.319     2.382
    64   1 H        0.925     0.058     2.226     2.333
    65   1 H        0.926     0.040     2.442     2.444
    66   1 H        0.926     0.063     2.168     2.303
    67   1 H        0.926     0.050     2.319     2.381
    68   1 H        0.926     0.049     2.329     2.386
    69   1 H        0.926     0.051     2.310     2.377
    70   1 H        0.926     0.062     2.174     2.306

molecular dipole:
                 x           y           z       tot (Debye)
 q only:       -5.829      -0.668      -0.070
   full:       -5.603      -0.944       0.102      14.444

 projected vibrational frequencies (cm⁻¹)
eigval :       -0.00    -0.00     0.00     0.00     0.00     0.00
eigval :       11.77    13.62    21.15    30.74    39.14    46.56
eigval :       49.02    51.46    58.42    65.91    67.72    82.65
eigval :      103.83   119.51   124.38   132.96   135.86   147.44
eigval :      153.58   164.45   181.59   183.62   194.11   220.70
eigval :      224.53   236.23   240.77   267.57   273.16   281.36
eigval :      294.09   302.88   313.78   326.15   333.53   345.00
eigval :      354.94   363.43   364.91   371.88   381.91   393.89
eigval :      395.11   403.15   417.96   442.24   446.68   455.65
eigval :      458.54   487.86   492.36   495.73   496.50   506.88
eigval :      540.00   551.20   559.43   566.91   571.47   577.12
eigval :      584.22   589.32   591.24   599.93   613.51   629.35
eigval :      646.55   649.43   656.20   667.49   677.61   679.79
eigval :      691.62   693.62   724.24   728.14   757.47   770.82
eigval :      775.01   778.93   783.56   810.26   816.21   828.04
eigval :      842.96   857.52   868.91   882.18   884.36   884.45
eigval :      889.63   903.91   905.67   908.15   914.55   917.08
eigval :      917.88   922.50   924.01   937.48   941.29   941.65
eigval :      944.63   963.44   967.34   999.40  1008.42  1008.80
eigval :     1047.79  1071.96  1076.08  1086.32  1087.93  1096.62
eigval :     1102.59  1125.19  1132.13  1133.20  1148.58  1156.16
eigval :     1168.64  1170.08  1179.26  1179.70  1183.57  1185.28
eigval :     1187.67  1188.30  1213.17  1220.29  1226.24  1237.90
eigval :     1251.44  1258.56  1260.74  1263.40  1266.91  1270.41
eigval :     1282.19  1294.71  1297.60  1310.54  1315.04  1321.68
eigval :     1323.31  1327.87  1348.49  1370.26  1381.59  1395.05
eigval :     1396.04  1404.78  1409.60  1412.75  1413.59  1420.81
eigval :     1429.16  1438.82  1444.74  1448.50  1460.24  1472.95
eigval :     1485.90  1488.46  1489.20  1500.00  1510.43  1516.25
eigval :     1522.79  1541.90  1554.73  1561.49  1568.86  1575.46
eigval :     1575.89  1588.61  2254.46  2294.21  3033.89  3034.87
eigval :     3038.04  3039.91  3050.13  3053.97  3054.18  3066.40
eigval :     3066.80  3076.94  3084.15  3084.96  3086.29  3086.94
eigval :     3087.34  3090.95  3091.40  3092.22  3095.83  3101.34
eigval :     3101.55  3104.88  3116.67  3121.15  3121.69  3122.11

   temp. (K)  partition function   enthalpy   heat capacity  entropy
                                   cal/mol     cal/K/mol   cal/K/mol   J/K/mol
 298.15  VIB  0.153E+17            21434.080    133.682    132.965
         ROT  0.702E+08              888.752      2.981     38.884
         INT  0.108E+25            22322.833    136.663    171.849
         TR   0.131E+29             1481.254      4.968     44.868
         TOT                       23804.0866   141.6315   216.7175   906.7459

       T/K    H(0)-H(T)+PV         H(T)/Eh          T*S/Eh         G(T)/Eh
   ------------------------------------------------------------------------
    298.15    0.379342E-01    0.562467E+00    0.102969E+00    0.459498E+00
   ------------------------------------------------------------------------

         :::::::::::::::::::::::::::::::::::::::::::::::::::::
         ::                  THERMODYNAMIC                  ::
         :::::::::::::::::::::::::::::::::::::::::::::::::::::
         :: total free energy        -111.637002569109 Eh   ::
         ::.................................................::
         :: total energy             -112.096500473794 Eh   ::
         :: zero point energy           0.524533142968 Eh   ::
         :: G(RRHO) w/o ZPVE           -0.065035238283 Eh   ::
         :: G(RRHO) contrib.            0.459497904685 Eh   ::
         :::::::::::::::::::::::::::::::::::::::::::::::::::::

           -------------------------------------------------
          | TOTAL ENERGY             -112.096500473794 Eh   |
          | TOTAL ENTHALPY           -111.534033104160 Eh   |
          | TOTAL FREE ENERGY        -111.637002569109 Eh   |
          | GRADIENT NORM               0.000084342840 Eh/α |
          | HOMO-LUMO GAP               0.435520404867 eV   |
           -------------------------------------------------

 * finished run on 2025/09/10 at 22:19:19.870
