   * xtb version 6.7.1 (edcfbbe) compiled by 'albert@albert-system' on 2024-07-22

   ID    Z sym.   atoms
    1    6 C      1-9, 11-17, 19-23, 25, 27-31, 33-35, 37-44
    2    7 N      10, 18, 24, 26, 32, 36
    3    1 H      45-70

          program call               : xtb data2507/toluene/3Py-DMAC/3Py-DMAC_toluene_S0_crest.xyz --gfn 2 --gbsa toluene --ohess vtight --parallel 40 --molden --ceasefiles --namespace data2507/toluene/3Py-DMAC/3Py-DMAC_toluene_S0_finalOpt
      * Solvation model:               GBSA
        Solvent                        toluene
        Solvent mass                       9.2140E+01 g/mol
          :  Hamiltonian                  GFN2-xTB          :
 * total energy  :  -112.1632296 Eh     change       -0.3040284E-08 Eh
 * total energy  :  -112.1633005 Eh     change       -0.7084132E-04 Eh
 * total energy  :  -112.1633331 Eh     change       -0.3259169E-04 Eh
 * total energy  :  -112.1633451 Eh     change       -0.1204927E-04 Eh
 * total energy  :  -112.1633539 Eh     change       -0.8769634E-05 Eh
 * total energy  :  -112.1633627 Eh     change       -0.8820428E-05 Eh
 * total energy  :  -112.1633672 Eh     change       -0.4487672E-05 Eh
 * total energy  :  -112.1633732 Eh     change       -0.5973834E-05 Eh
 * total energy  :  -112.1633776 Eh     change       -0.4383493E-05 Eh
 * total energy  :  -112.1633815 Eh     change       -0.3959615E-05 Eh
 * total energy  :  -112.1634229 Eh     change       -0.7787455E-06 Eh
 * total energy  :  -112.1634236 Eh     change       -0.6138928E-06 Eh
 * total energy  :  -112.1634239 Eh     change       -0.3856784E-06 Eh
 * total energy  :  -112.1634242 Eh     change       -0.2841584E-06 Eh
 * total energy  :  -112.1634245 Eh     change       -0.2687191E-06 Eh
 * total energy  :  -112.1634248 Eh     change       -0.2828630E-06 Eh
 * total energy  :  -112.1634250 Eh     change       -0.2411665E-06 Eh
 * total energy  :  -112.1634252 Eh     change       -0.1401009E-06 Eh
 * total energy  :  -112.1634252 Eh     change       -0.1724206E-07 Eh
   *** GEOMETRY OPTIMIZATION CONVERGED AFTER 42 ITERATIONS ***

 final structure:
================
70
 xtb: 6.7.1 (edcfbbe)
C           -7.21539484634225       -0.99426805680868       -1.72409331033723
C           -5.84839746753027       -0.64491830065475       -1.13512200408167
C           -4.76552588189384       -1.25780637284179       -2.04716273035586
C           -5.62652368453583        0.85542725522791       -1.03317919311286
C           -6.41821815035566        1.81021816836015       -1.65319575250396
C           -6.16174216159907        3.16184710899805       -1.49076549563411
C           -5.12366826939566        3.58248339101784       -0.67830532456747
C           -4.32595511685605        2.64753162723441       -0.04417339157468
C           -4.55634838511530        1.29256309681203       -0.24604700592438
N           -3.78731399669280        0.31294299562485        0.42215572013235
C           -2.42306896412138        0.22688251848257        0.33052084703357
C           -1.67902878106538        1.17074592341712       -0.39809711172646
C           -0.31040737459006        1.09303271643005       -0.47184759833208
C            0.39052415564596        0.04770161220914        0.13721138993821
C            1.84142799549588       -0.01531865668596        0.07447108434986
C            2.62662625452720        1.13735573916838        0.27384676487378
C            2.03324462544862        2.33399965318696        0.72381296927766
N            1.57374782740098        3.28871773395574        1.16803876746561
C            4.02653551545224        1.04572944534019        0.14461426406691
C            4.89702520096919        2.22162342812625        0.20030036726847
C            6.15195803429456        2.14424192730043        0.80552518782228
C            6.95641268055407        3.26855309404745        0.82554665561282
C            6.47882315112686        4.43064593483485        0.23479896604398
N            5.30727627878184        4.50379958703651       -0.37625445522620
C            4.54116160198895        3.43209803916429       -0.39870694000540
N            4.63395335603024       -0.11926230404975       -0.02310867553854
C            3.93157398325931       -1.23538839761152       -0.14991748826235
C            4.71053254485614       -2.46726359513065       -0.29141016375556
C            4.31499354320754       -3.68228074828896        0.26556898301301
C            5.11987899671614       -4.79352349709637        0.08388607599480
C            6.30069515820972       -4.64634658603859       -0.62981019076474
N            6.69292126761139       -3.49433826017614       -1.15179924087209
C            5.92269636472240       -2.43924552154078       -0.98863043975475
C            2.52241078296249       -1.22202388831199       -0.18205780955689
C            1.81002896805438       -2.37079428587092       -0.57996099251759
N            1.25093529835323       -3.29399994717407       -0.97436625051401
C           -0.35176943115206       -0.93746067076702        0.79424307887103
C           -1.71896491641252       -0.85119853748878        0.89322319864581
C           -4.59791317219576       -0.67883222419112        1.01971376465080
C           -4.40597659467346       -1.06221315111790        2.34103827236455
C           -5.24317410584368       -2.00237303503551        2.91322120289364
C           -6.28342279729364       -2.53657774867605        2.17344465142550
C           -6.50293561139934       -2.11558561167502        0.87219500520490
C           -5.67022811882424       -1.18070913150217        0.27584343210774
H           -7.32981687056475       -2.07331182735547       -1.78726122775707
H           -7.29816038597571       -0.60183062484810       -2.73433190178974
H           -8.01928516537867       -0.58563273073639       -1.11601617970439
H           -3.76239563157731       -1.04555051340721       -1.68746101723315
H           -4.85949993496330       -0.85492464958877       -3.05343897096226
H           -4.88922658586748       -2.33789888316191       -2.09045246002307
H           -7.24707141172083        1.51036410414461       -2.27297067301176
H           -6.78638519734608        3.88789219918586       -1.98932206150099
H           -4.93956309744077        4.63543821483652       -0.52625411968725
H           -3.53567191300865        2.96390651916012        0.62044433902536
H           -2.18336244125016        1.95978817167094       -0.93148600807729
H            0.22601905370712        1.83037272267038       -1.05179931148176
H            6.46707370912044        1.21404181539438        1.25412991988573
H            7.92870571917614        3.24698259092437        1.29135949406247
H            7.05768343842802        5.34451837094801        0.23769060511045
H            3.60822718808660        3.53721207372012       -0.93820163407479
H            3.40849410460481       -3.75211221886792        0.84915421259357
H            4.84304986372656       -5.74866806774320        0.50063227753194
H            6.97062670166873       -5.48085660290193       -0.78790455715265
H            6.26809091150120       -1.51609736884662       -1.43431651099343
H            0.15569822710598       -1.76644681261514        1.26595939525307
H           -2.25268660430706       -1.64081069255275        1.39593212201392
H           -3.61459811076897       -0.60962816789638        2.92004900995821
H           -5.08894381955459       -2.30515531053832        3.93810571820697
H           -6.93914664994862       -3.27202271570510        2.61506402216556
H           -7.33538465613390       -2.52882270703650        0.32690848891227

          :  Hamiltonian                  GFN2-xTB          :
         :: gradient norm              0.000129882901 Eh/a0 ::
         :: HOMO-LUMO gap              1.334440931902 eV    ::
         :: SCC energy              -114.226715347237 Eh    ::
         :: -> dispersion             -0.099773950091 Eh    ::
         :: -> Gsolv                  -0.051853451570 Eh    ::
         :: repulsion energy           2.063290170171 Eh    ::

    * Orbital Energies and Occupations

         #    Occupation            Energy/Eh            Energy/eV
      -------------------------------------------------------------
         1        2.0000           -0.7044650             -19.1695
       ...           ...                  ...                  ...
        92        2.0000           -0.4313121             -11.7366
        93        2.0000           -0.4227963             -11.5049
        94        2.0000           -0.4221056             -11.4861
        95        2.0000           -0.4218106             -11.4781
        96        2.0000           -0.4207242             -11.4485
        97        2.0000           -0.4139482             -11.2641
        98        2.0000           -0.4073282             -11.0840
        99        2.0000           -0.4050160             -11.0210
       100        2.0000           -0.4036161             -10.9830
       101        2.0000           -0.4031130             -10.9693
       102        2.0000           -0.3858841             -10.5004
       103        2.0000           -0.3850211             -10.4770
       104        2.0000           -0.3640571              -9.9065 (HOMO)
       105                         -0.3150171              -8.5721 (LUMO)
       106                         -0.3023699              -8.2279
       107                         -0.2714081              -7.3854
       108                         -0.2651528              -7.2152
       109                         -0.2621671              -7.1339
       110                         -0.2434029              -6.6233
       111                         -0.2399681              -6.5299
       112                         -0.2381172              -6.4795
       113                         -0.2331727              -6.3450
       114                         -0.2279095              -6.2017
       115                         -0.2259504              -6.1484
       ...                                ...                  ...
       202                          1.1413948              31.0589
      -------------------------------------------------------------
                  HL-Gap            0.0490400 Eh            1.3344 eV

     #   Z          covCN         q      C6AA      α(0)
     1   6 C        3.759    -0.110    22.651     6.785
     2   6 C        3.910     0.023    20.127     6.377
     3   6 C        3.761    -0.099    22.440     6.753
     4   6 C        2.987    -0.005    28.129     8.700
     5   6 C        2.923    -0.038    28.933     8.821
     6   6 C        2.919    -0.035    28.883     8.813
     7   6 C        2.920    -0.033    28.817     8.803
     8   6 C        2.920    -0.045    29.125     8.850
     9   6 C        2.951     0.053    26.803     8.491
    10   7 N        2.754    -0.058    22.360     7.023
    11   6 C        2.911     0.076    26.302     8.410
    12   6 C        2.921    -0.056    29.381     8.889
    13   6 C        2.922    -0.027    28.686     8.783
    14   6 C        2.975    -0.016    28.398     8.741
    15   6 C        2.989     0.037    27.157     8.548
    16   6 C        2.971    -0.015    28.381     8.738
    17   6 C        1.909     0.119    28.183     8.574
    18   7 N        0.911    -0.268    26.926     7.505
    19   6 C        2.952     0.105    25.674     8.311
    20   6 C        2.978    -0.005    28.153     8.704
    21   6 C        2.933    -0.007    28.187     8.707
    22   6 C        2.912    -0.034    28.851     8.808
    23   6 C        2.912     0.064    26.574     8.453
    24   7 N        1.835    -0.219    26.626     7.647
    25   6 C        2.914     0.063    26.594     8.456
    26   7 N        1.856    -0.253    27.432     7.763
    27   6 C        2.952     0.105    25.687     8.313
    28   6 C        2.978    -0.005    28.148     8.703
    29   6 C        2.930    -0.010    28.269     8.719
    30   6 C        2.913    -0.034    28.852     8.808
    31   6 C        2.913     0.063    26.593     8.456
    32   7 N        1.835    -0.216    26.552     7.636
    33   6 C        2.918     0.065    26.542     8.448
    34   6 C        2.970    -0.014    28.366     8.736
    35   6 C        1.909     0.120    28.156     8.570
    36   7 N        0.911    -0.269    26.958     7.509
    37   6 C        2.922    -0.028    28.693     8.784
    38   6 C        2.921    -0.056    29.396     8.891
    39   6 C        2.951     0.053    26.799     8.491
    40   6 C        2.920    -0.046    29.133     8.851
    41   6 C        2.920    -0.033    28.824     8.804
    42   6 C        2.919    -0.036    28.886     8.813
    43   6 C        2.923    -0.037    28.930     8.820
    44   6 C        2.987    -0.004    28.123     8.699
    45   1 H        0.925     0.046     2.366     2.406
    46   1 H        0.925     0.046     2.367     2.406
    47   1 H        0.925     0.042     2.418     2.432
    48   1 H        0.925     0.032     2.564     2.504
    49   1 H        0.925     0.043     2.411     2.428
    50   1 H        0.925     0.043     2.408     2.427
    51   1 H        0.926     0.049     2.330     2.387
    52   1 H        0.926     0.039     2.463     2.454
    53   1 H        0.926     0.038     2.470     2.458
    54   1 H        0.926     0.040     2.454     2.450
    55   1 H        0.926     0.047     2.354     2.399
    56   1 H        0.926     0.029     2.602     2.522
    57   1 H        0.926     0.061     2.189     2.314
    58   1 H        0.926     0.062     2.179     2.308
    59   1 H        0.925     0.056     2.249     2.345
    60   1 H        0.925     0.037     2.484     2.465
    61   1 H        0.926     0.044     2.399     2.422
    62   1 H        0.926     0.059     2.208     2.323
    63   1 H        0.925     0.056     2.249     2.345
    64   1 H        0.925     0.055     2.263     2.352
    65   1 H        0.926     0.030     2.587     2.515
    66   1 H        0.926     0.047     2.353     2.399
    67   1 H        0.926     0.039     2.468     2.457
    68   1 H        0.926     0.038     2.478     2.462
    69   1 H        0.926     0.039     2.465     2.455
    70   1 H        0.926     0.049     2.330     2.387

molecular dipole:
                 x           y           z       tot (Debye)
 q only:       -1.547      -0.638       0.231
   full:       -1.625      -0.917       0.592       4.975

 projected vibrational frequencies (cm⁻¹)
eigval :       -0.00    -0.00    -0.00     0.00     0.00     0.00
eigval :       11.47    14.34    20.96    31.08    38.18    43.30
eigval :       45.77    54.10    59.97    64.56    68.46    88.71
eigval :      100.91   116.80   129.84   130.08   138.18   146.37
eigval :      155.03   163.90   180.70   182.13   188.50   221.30
eigval :      229.82   232.01   246.94   260.49   270.49   284.89
eigval :      293.32   299.41   313.72   323.91   333.52   350.17
eigval :      356.60   359.97   363.68   365.93   391.21   394.11
eigval :      403.83   415.73   426.45   442.62   455.95   465.53
eigval :      478.58   479.79   496.65   499.41   501.02   544.54
eigval :      553.87   559.22   564.65   574.03   582.23   588.40
eigval :      595.42   600.63   605.94   625.79   635.56   654.45
eigval :      655.77   677.03   679.36   684.71   689.53   693.20
eigval :      693.58   725.25   725.52   730.84   776.47   783.50
eigval :      786.89   789.82   797.56   809.45   815.81   839.07
eigval :      853.71   882.61   884.51   895.88   896.99   906.23
eigval :      908.02   913.16   914.61   916.65   917.27   922.13
eigval :      923.18   923.81   924.55   940.09   942.35   946.31
eigval :      967.20   976.55   984.82  1008.40  1009.32  1022.97
eigval :     1068.93  1072.42  1079.33  1089.45  1091.67  1098.94
eigval :     1105.52  1129.07  1136.60  1139.03  1151.87  1161.47
eigval :     1173.95  1182.34  1186.46  1188.39  1191.15  1194.43
eigval :     1198.07  1218.53  1220.68  1228.69  1256.58  1256.94
eigval :     1262.39  1264.40  1269.99  1271.53  1271.88  1273.17
eigval :     1279.72  1287.37  1292.85  1317.49  1324.61  1333.68
eigval :     1343.59  1358.73  1374.32  1385.96  1397.50  1404.77
eigval :     1410.23  1414.52  1425.43  1437.42  1441.95  1445.95
eigval :     1451.87  1451.96  1465.96  1472.53  1487.43  1490.00
eigval :     1491.92  1503.98  1504.05  1518.87  1534.18  1556.10
eigval :     1557.28  1567.73  1568.76  1574.96  1582.74  1587.27
eigval :     1589.44  1599.48  2340.87  2345.41  3027.57  3029.46
eigval :     3033.43  3033.96  3048.09  3050.68  3052.05  3064.69
eigval :     3064.99  3066.96  3075.20  3077.69  3078.23  3078.41
eigval :     3079.45  3083.99  3084.49  3085.66  3093.43  3094.06
eigval :     3102.87  3103.56  3114.14  3114.20  3114.72  3117.37

   temp. (K)  partition function   enthalpy   heat capacity  entropy
                                   cal/mol     cal/K/mol   cal/K/mol   J/K/mol
 298.15  VIB  0.136E+17            21222.554    131.931    131.858
         ROT  0.704E+08              888.752      2.981     38.891
         INT  0.955E+24            22111.307    134.912    170.749
         TR   0.131E+29             1481.254      4.968     44.868
         TOT                       23592.5605   139.8803   215.6173   902.1429

       T/K    H(0)-H(T)+PV         H(T)/Eh          T*S/Eh         G(T)/Eh
   ------------------------------------------------------------------------
    298.15    0.375971E-01    0.565840E+00    0.102447E+00    0.463393E+00
   ------------------------------------------------------------------------

         :::::::::::::::::::::::::::::::::::::::::::::::::::::
         ::                  THERMODYNAMIC                  ::
         :::::::::::::::::::::::::::::::::::::::::::::::::::::
         :: total free energy        -111.700031703464 Eh   ::
         ::.................................................::
         :: total energy             -112.163425170930 Eh   ::
         :: zero point energy           0.528243075805 Eh   ::
         :: G(RRHO) w/o ZPVE           -0.064849608340 Eh   ::
         :: G(RRHO) contrib.            0.463393467466 Eh   ::
         :::::::::::::::::::::::::::::::::::::::::::::::::::::

           -------------------------------------------------
          | TOTAL ENERGY             -112.163425170930 Eh   |
          | TOTAL ENTHALPY           -111.597584956809 Eh   |
          | TOTAL FREE ENERGY        -111.700031703464 Eh   |
          | GRADIENT NORM               0.000129653087 Eh/α |
          | HOMO-LUMO GAP               1.334445153973 eV   |
           -------------------------------------------------

 * finished run on 2025/09/10 at 22:19:10.190
