   * xtb version 6.7.1 (edcfbbe) compiled by 'albert@albert-system' on 2024-07-22

   ID    Z sym.   atoms
    1    6 C      1-32, 34-40
    2    7 N      33, 41, 42
    3    1 H      43-71

          program call               : xtb data2507/gas/teracridan/teracridan_gas_T1_crest.xyz --gfn 2 --spinpol --tblite --uhf 2 --ohess vtight --parallel 40 --molden --ceasefiles --namespace data2507/gas/teracridan/teracridan_gas_T1_finalOpt
 * total energy  :  -107.0930593 Eh     change       -0.1169538E-07 Eh
 * total energy  :  -107.0930773 Eh     change       -0.1806246E-04 Eh
 * total energy  :  -107.0930841 Eh     change       -0.6823155E-05 Eh
 * total energy  :  -107.0930847 Eh     change       -0.5871212E-06 Eh
 * total energy  :  -107.0930850 Eh     change       -0.2718005E-06 Eh
 * total energy  :  -107.0930852 Eh     change       -0.1488493E-06 Eh
 * total energy  :  -107.0930854 Eh     change       -0.2562766E-06 Eh
 * total energy  :  -107.0930856 Eh     change       -0.1874131E-06 Eh
 * total energy  :  -107.0930857 Eh     change       -0.1449451E-06 Eh
 * total energy  :  -107.0930859 Eh     change       -0.1258903E-06 Eh
 * total energy  :  -107.0930860 Eh     change       -0.1014100E-06 Eh
 * total energy  :  -107.0930861 Eh     change       -0.9789100E-07 Eh
   *** GEOMETRY OPTIMIZATION CONVERGED AFTER 12 ITERATIONS ***

 final structure:
================
71
 xtb: 6.7.1 (edcfbbe)
C            3.08577093848476        4.33495589450876        0.52548250356036
C            4.24825242887055        3.81550669356646       -0.01888666612726
C            4.48338134556514        2.45420487696453        0.01316660647145
C            3.54686190513710        1.60173658942861        0.59229740142932
C            2.37317190905148        2.12372428928281        1.15337396333767
C            2.15710542208783        3.48694833473468        1.11036210689189
C            1.41816463117990        1.16403624664061        1.79156514542678
C            1.38051636902223       -0.17630408662701        1.01484601711552
C            2.79996009811123       -0.66619542477714        1.01939515085099
C            3.15288914059419       -1.91023056638051        1.46339467540516
C            2.19955431036856       -2.76962849940412        2.01541476550750
C            0.88093073252710       -2.35290978398791        2.15420500113655
C            0.43610109731062       -1.13178875537608        1.69728718022406
C           -0.96438232419291       -0.78704728951694        1.69226385961237
C           -1.83871548008061       -1.33720820809697        2.63266882847016
C           -3.19379242530364       -1.12235209327983        2.56151883104518
C           -3.72322637291453       -0.36874816610625        1.51392726911357
C           -2.87716061404314        0.26148286398775        0.59772495437040
C           -1.49014805160399        0.09349920245406        0.69973677575307
C           -0.54559907736444        0.77192218003248       -0.16873299087468
C           -0.69456990192925        2.07773052935571       -0.57113324278170
C            0.25838752013716        2.74173648422015       -1.34134137589654
C            1.39309283605078        2.06483936636324       -1.78872645643620
C            1.63375024368375        0.77488380697351       -1.39927233946249
C            0.74686868045580        0.03991968832195       -0.43655709559431
C            0.46680903798588       -1.33225131149380       -1.09539431488834
C            1.74769340213836       -2.05575380362887       -1.36900135165512
C            1.89417183473102       -3.42154156000803       -1.23093660016731
C            3.10197343581795       -4.03720414163091       -1.52437765025365
C            4.17355364038626       -3.28085849874077       -1.96868647300237
C            4.04806391583241       -1.91184334427139       -2.11072492604198
C            2.83966958216548       -1.29249756979543       -1.80367544638753
N            2.67964509791695        0.06899946251682       -1.93382678973318
C           -3.52594479151090        1.06962062228742       -0.49783021169445
C           -4.89445421467492        0.55824617390227       -0.85346354830136
C           -5.43656257826273        0.73385197978941       -2.11327073924867
C           -6.74054691348055        0.35005883554540       -2.38570167759254
C           -7.51378071127618       -0.21591735643795       -1.38679154758976
C           -6.97989325325402       -0.42388399828598       -0.12884626158691
C           -5.66884909748803       -0.04430665537359        0.14101292292862
N           -5.09874774366821       -0.25896932154575        1.38105630244257
N            3.75851008967137        0.24194830791653        0.64419107270222
H            2.90302468902878        5.39823535111930        0.49714140044243
H            4.97644875995093        4.47329710376868       -0.47037921616724
H            5.39196539207629        2.04245209926525       -0.40507120445532
H            1.25288490962991        3.89077919189718        1.54157921879526
H            1.76260678910401        0.93724056595813        2.80831104734970
H            0.42520442096409        1.60336000023218        1.87287714760113
H            4.18935934116888       -2.21499796692457        1.41643693323111
H            2.49633154649168       -3.74855744068120        2.35578380713664
H            0.17293107788047       -3.03841723357438        2.59590793441273
H           -1.44202285644835       -1.93095877054254        3.44142697385571
H           -3.85851539351415       -1.55706780601106        3.29489123637394
H           -1.56070403279703        2.63469451496783       -0.25269063771302
H            0.10239002535035        3.77075619354780       -1.62180887976973
H            2.08596469967991        2.55558589961992       -2.45813287096173
H           -0.04696018784738       -1.13921789679148       -2.04543245410247
H           -0.19454286421716       -1.94125165454343       -0.48178197837299
H            1.05515348583734       -4.01035850806032       -0.89066849007838
H            3.20490737880456       -5.10529605674611       -1.40918893753092
H            5.11307339066102       -3.75872559347725       -2.20467969343012
H            4.88060756047086       -1.31553493505001       -2.45885402421956
H            3.37589854641866        0.58714290470698       -2.44997477044292
H           -3.64847132515276        2.10713126186899       -0.15687889552467
H           -2.88978707189373        1.08821671942408       -1.38504000911438
H           -4.83537382796421        1.18932300756952       -2.88749059306540
H           -7.15317796859283        0.50126889452240       -3.37163360243616
H           -8.53401194316461       -0.50671256485951       -1.58920500817820
H           -7.57360810388920       -0.88121343146934        0.65062528114436
H           -5.65243560420479       -0.77489318776234        2.05039798671750
H            4.69558987943329       -0.10351269690448        0.49611781902311

 projected vibrational frequencies (cm⁻¹)
eigval :       -0.00    -0.00    -0.00    -0.00     0.00     0.00
eigval :       21.22    35.50    44.12    53.80    56.90    69.38
eigval :       85.00   102.50   106.14   112.89   127.80   133.53
eigval :      177.29   185.13   198.09   206.88   213.88   238.92
eigval :      246.64   254.21   263.70   269.23   281.10   283.88
eigval :      305.63   329.05   333.14   344.82   365.17   376.05
eigval :      383.02   398.98   413.20   419.30   427.24   427.59
eigval :      432.37   442.98   455.47   465.00   483.27   486.98
eigval :      497.23   499.20   505.59   511.36   519.76   523.11
eigval :      524.29   541.49   549.95   558.53   570.35   574.42
eigval :      580.24   593.58   602.31   613.35   617.09   622.77
eigval :      637.96   648.48   655.80   670.10   673.86   685.96
eigval :      688.51   716.41   732.14   748.92   752.21   769.04
eigval :      769.75   771.30   785.67   800.76   810.64   811.48
eigval :      838.63   841.60   847.15   847.77   861.27   861.85
eigval :      861.96   864.10   865.52   869.00   874.47   876.74
eigval :      886.18   895.12   897.87   903.73   904.53   904.83
eigval :      916.82   917.14   918.60   940.50   969.90   978.45
eigval :     1009.26  1041.26  1068.64  1085.72  1091.17  1091.74
eigval :     1094.28  1096.51  1111.78  1117.32  1126.48  1134.14
eigval :     1137.49  1145.18  1159.94  1165.46  1176.66  1180.10
eigval :     1180.59  1181.90  1185.21  1185.64  1193.64  1209.85
eigval :     1211.08  1213.82  1217.69  1217.98  1224.66  1246.16
eigval :     1251.79  1254.55  1256.10  1261.00  1264.79  1275.82
eigval :     1296.90  1298.94  1304.80  1307.55  1320.52  1321.19
eigval :     1331.12  1339.84  1342.57  1343.54  1350.16  1357.35
eigval :     1368.88  1378.68  1389.71  1402.22  1404.37  1423.87
eigval :     1454.14  1460.68  1462.32  1463.22  1463.75  1464.73
eigval :     1467.13  1484.29  1486.34  1494.83  1496.42  1503.89
eigval :     1540.32  1555.01  1567.84  1576.06  1579.47  1580.44
eigval :     1591.43  1595.81  1596.52  1601.04  2870.70  2913.27
eigval :     2913.66  2977.27  3013.18  3018.68  3058.26  3059.35
eigval :     3060.07  3061.63  3063.59  3064.72  3071.61  3078.08
eigval :     3078.29  3079.00  3081.50  3081.93  3082.90  3094.67
eigval :     3095.53  3096.43  3097.12  3099.22  3102.61  3112.93
eigval :     3419.74  3420.86  3421.54

   temp. (K)  partition function   enthalpy   heat capacity  entropy
                                   cal/mol     cal/K/mol   cal/K/mol   J/K/mol
 298.15  VIB  0.103E+12            17931.849    126.344    105.025
         ROT  0.352E+08              888.752      2.981     37.511
         INT  0.363E+19            18820.601    129.324    142.536
         TR   0.121E+29             1481.254      4.968     44.723
         TOT                       20301.8550   134.2926   187.2585   783.4897

       T/K    H(0)-H(T)+PV         H(T)/Eh          T*S/Eh         G(T)/Eh
   ------------------------------------------------------------------------
    298.15    0.323531E-01    0.590404E+00    0.889726E-01    0.501431E+00
   ------------------------------------------------------------------------

         :::::::::::::::::::::::::::::::::::::::::::::::::::::
         ::                  THERMODYNAMIC                  ::
         :::::::::::::::::::::::::::::::::::::::::::::::::::::
         :: total free energy        -106.591654852550 Eh   ::
         ::.................................................::
         :: total energy             -107.093086071961 Eh   ::
         :: zero point energy           0.558050729258 Eh   ::
         :: G(RRHO) w/o ZPVE           -0.056619509847 Eh   ::
         :: G(RRHO) contrib.            0.501431219411 Eh   ::
         :::::::::::::::::::::::::::::::::::::::::::::::::::::

           -------------------------------------------------
          | TOTAL ENERGY             -107.093086071961 Eh   |
          | TOTAL ENTHALPY           -106.502682277341 Eh   |
          | TOTAL FREE ENERGY        -106.591654852550 Eh   |
          | GRADIENT NORM               0.000049929912 Eh/α |
           -------------------------------------------------

 * finished run on 2025/09/02 at 20:09:45.539
