   * xtb version 6.7.1 (edcfbbe) compiled by 'albert@albert-system' on 2024-07-22

   ID    Z sym.   atoms
    1    6 C      1-32, 34-40
    2    7 N      33, 41, 42
    3    1 H      43-71

          program call               : xtb data2507/gas/teracridan/teracridan_gas_S0_crest.xyz --gfn 2 --ohess vtight --parallel 40 --molden --ceasefiles --namespace data2507/gas/teracridan/teracridan_gas_S0_finalOpt
          :  Hamiltonian                  GFN2-xTB          :
 * total energy  :  -107.1604880 Eh     change       -0.5700088E-08 Eh
 * total energy  :  -107.1604886 Eh     change       -0.6289918E-06 Eh
 * total energy  :  -107.1604894 Eh     change       -0.7777232E-06 Eh
 * total energy  :  -107.1604906 Eh     change       -0.1153850E-05 Eh
 * total energy  :  -107.1604914 Eh     change       -0.8524510E-06 Eh
 * total energy  :  -107.1604921 Eh     change       -0.6629042E-06 Eh
 * total energy  :  -107.1604927 Eh     change       -0.6194097E-06 Eh
 * total energy  :  -107.1604932 Eh     change       -0.4569502E-06 Eh
 * total energy  :  -107.1604935 Eh     change       -0.3063673E-06 Eh
 * total energy  :  -107.1604938 Eh     change       -0.2790352E-06 Eh
 * total energy  :  -107.1604956 Eh     change       -0.6901704E-06 Eh
 * total energy  :  -107.1604963 Eh     change       -0.6639022E-06 Eh
 * total energy  :  -107.1604968 Eh     change       -0.4689960E-06 Eh
 * total energy  :  -107.1604970 Eh     change       -0.2568466E-06 Eh
 * total energy  :  -107.1604972 Eh     change       -0.1719360E-06 Eh
 * total energy  :  -107.1604973 Eh     change       -0.1529285E-06 Eh
 * total energy  :  -107.1604975 Eh     change       -0.1760744E-06 Eh
 * total energy  :  -107.1604977 Eh     change       -0.1848584E-06 Eh
 * total energy  :  -107.1604977 Eh     change       -0.1604278E-08 Eh
   *** GEOMETRY OPTIMIZATION CONVERGED AFTER 22 ITERATIONS ***

 final structure:
================
71
 xtb: 6.7.1 (edcfbbe)
C            2.79591671104509        4.67081173325153       -1.16167344006039
C            4.08645893763708        4.19195702385273       -1.30323977430888
C            4.49501823424230        3.07873910005210       -0.59320146195560
C            3.61413059695257        2.44202434803996        0.27546194981270
C            2.31260754150368        2.92855186921644        0.43036198162952
C            1.91810481446604        4.03560719334730       -0.29762966642376
C            1.41034668149098        2.25822427252442        1.42624472410438
C            1.74247110014971        0.79922343767937        1.57804362669193
C            3.08194498209187        0.41494508076156        1.46439902361990
C            3.47586523363269       -0.87666237436093        1.79760956553108
C            2.54140013143531       -1.77884097646731        2.26727197678042
C            1.20670407893958       -1.42660715098299        2.31439331082707
C            0.79207432201819       -0.15459144503550        1.92467491296680
C           -0.66137987707304        0.11176316683096        1.83530146948561
C           -1.46113378596049        0.11225283750044        2.96795369107663
C           -2.82867289813043        0.27747028813887        2.86521041424478
C           -3.42030526198606        0.44160565750661        1.61699658771747
C           -2.62837132878857        0.46107673702029        0.46412389602540
C           -1.25565243419048        0.28624063549299        0.57446844298081
C           -0.37216875072485        0.33152263366874       -0.61594102793031
C           -0.17032176168863        1.54901827130197       -1.26206842703212
C            0.76352191753995        1.66379031747556       -2.27332201381717
C            1.53509240982546        0.57416642469334       -2.62651579786333
C            1.30906406412668       -0.65781698412020       -2.02194465194873
C            0.31503699029728       -0.79706333173326       -1.04836220542648
C           -0.02919414370519       -2.18435534366765       -0.58060120617425
C            1.17941006513332       -3.07584201270622       -0.57128782789309
C            1.30030841801861       -4.14836424422664        0.29261095816680
C            2.39957163406289       -4.99005319902813        0.23420122911662
C            3.39456919574834       -4.75615109821748       -0.69864405499646
C            3.29760321882768       -3.68060295835380       -1.56125735812027
C            2.19349091077916       -2.83625335762630       -1.50300827044358
N            2.07639799055734       -1.75868117086848       -2.36313897357272
C           -3.28079996277092        0.68601451721722       -0.87386367564078
C           -4.73140057344905        0.29053434470210       -0.87667088458192
C           -5.38968365425668       -0.02899974480848       -2.05089270650137
C           -6.74590106496081       -0.31333151062714       -2.05531106713803
C           -7.45720498045947       -0.28066791065829       -0.86846239156427
C           -6.81223980063644        0.01269796103389        0.31800567640273
C           -5.44928501273796        0.29501136035658        0.32287393543476
N           -4.79248976330735        0.57797670489612        1.50603846797485
N            4.00934815069025        1.33358670027044        1.00175828975607
H            2.47530941003941        5.53986352404565       -1.71632314088298
H            4.77817344360566        4.68357564486440       -1.97150668087454
H            5.50099302439819        2.69757451369135       -0.70475098369130
H            0.91379164368576        4.41530140816311       -0.17640069996999
H            1.56294871958634        2.73468834918190        2.40661018150647
H            0.36245562019528        2.40028508744086        1.16503045722248
H            4.51458443325536       -1.16066315455676        1.70334137494384
H            2.85204042254383       -2.76893466263174        2.56438986996156
H            0.46896563104171       -2.14205038299655        2.64627559458202
H           -1.00401602576221       -0.01860812452043        3.93785094281942
H           -3.44759816627690        0.27106247577292        3.75150568618657
H           -0.74416765068388        2.41153723197372       -0.95850716958831
H            0.91556932421626        2.61206382234048       -2.76577091468951
H            2.30621974731771        0.66812335645316       -3.37811791762659
H           -0.76295625421142       -2.60211257188634       -1.28661197173250
H           -0.50685363738478       -2.16362970444409        0.39845254555118
H            0.51665284604013       -4.33578038559093        1.01240382078045
H            2.47526309106920       -5.82868550283356        0.90989062819424
H            4.25262850341670       -5.40992305985767       -0.75341921950866
H            4.07603634059143       -3.48965816061001       -2.28739627909768
H            2.85054674287069       -1.59065351018794       -2.98980187195286
H           -3.21539853880776        1.75393903065317       -1.12440822535477
H           -2.73598616851040        0.14724762841949       -1.65339799505222
H           -4.83287932413584       -0.04339504338114       -2.97720415342038
H           -7.24506856099068       -0.55242382625318       -2.98196005637823
H           -8.51608645472926       -0.49273683878473       -0.86331734743844
H           -7.36014272271104        0.02534895369309        1.25017213381464
H           -5.32827210750846        0.49200630465295        2.35759534238841
H            4.94251797395717        0.98617928483520        0.83282888815509

          :  Hamiltonian                  GFN2-xTB          :
         :: gradient norm              0.000029932076 Eh/a0 ::
         :: HOMO-LUMO gap              3.158561514801 eV    ::
         :: SCC energy              -109.140983612481 Eh    ::
         :: -> dispersion             -0.110430757555 Eh    ::
         :: repulsion energy           1.980485906174 Eh    ::

    * Orbital Energies and Occupations

         #    Occupation            Energy/Eh            Energy/eV
      -------------------------------------------------------------
         1        2.0000           -0.6613908             -17.9974
       ...           ...                  ...                  ...
        88        2.0000           -0.4060585             -11.0494
        89        2.0000           -0.3984633             -10.8427
        90        2.0000           -0.3958505             -10.7716
        91        2.0000           -0.3949762             -10.7479
        92        2.0000           -0.3936001             -10.7104
        93        2.0000           -0.3922294             -10.6731
        94        2.0000           -0.3886899             -10.5768
        95        2.0000           -0.3878106             -10.5529
        96        2.0000           -0.3825197             -10.4089
        97        2.0000           -0.3754470             -10.2164
        98        2.0000           -0.3448374              -9.3835
        99        2.0000           -0.3440861              -9.3631
       100        2.0000           -0.3432107              -9.3392 (HOMO)
       101                         -0.2271357              -6.1807 (LUMO)
       102                         -0.2232566              -6.0751
       103                         -0.2180342              -5.9330
       104                         -0.2156784              -5.8689
       105                         -0.2145487              -5.8382
       106                         -0.2126088              -5.7854
       107                         -0.2122677              -5.7761
       108                         -0.2090209              -5.6877
       109                         -0.2045397              -5.5658
       110                         -0.1896113              -5.1596
       111                         -0.1869287              -5.0866
       ...                                ...                  ...
       197                          0.6991648              19.0252
      -------------------------------------------------------------
                  HL-Gap            0.1160750 Eh            3.1586 eV

     #   Z          covCN         q      C6AA      α(0)
     1   6 C        2.918    -0.044    29.097     8.846
     2   6 C        2.920    -0.034    28.856     8.809
     3   6 C        2.922    -0.061    29.528     8.911
     4   6 C        2.922     0.064    26.570     8.453
     5   6 C        2.977    -0.005    28.142     8.702
     6   6 C        2.924    -0.038    28.951     8.824
     7   6 C        3.815    -0.058    21.613     6.617
     8   6 C        2.980    -0.012    28.299     8.726
     9   6 C        2.922     0.062    26.615     8.460
    10   6 C        2.923    -0.064    29.599     8.922
    11   6 C        2.918    -0.033    28.833     8.805
    12   6 C        2.927    -0.046    29.145     8.853
    13   6 C        2.979     0.002    27.966     8.675
    14   6 C        2.981    -0.006    28.170     8.706
    15   6 C        2.921    -0.040    28.993     8.830
    16   6 C        2.921    -0.065    29.626     8.926
    17   6 C        2.919     0.061    26.637     8.464
    18   6 C        2.976    -0.013    28.335     8.732
    19   6 C        2.984    -0.004    28.118     8.698
    20   6 C        2.980     0.003    27.954     8.673
    21   6 C        2.926    -0.045    29.124     8.850
    22   6 C        2.918    -0.033    28.834     8.806
    23   6 C        2.923    -0.064    29.590     8.920
    24   6 C        2.922     0.062    26.606     8.459
    25   6 C        2.980    -0.011    28.291     8.725
    26   6 C        3.815    -0.058    21.602     6.615
    27   6 C        2.977    -0.005    28.140     8.701
    28   6 C        2.924    -0.038    28.943     8.823
    29   6 C        2.918    -0.044    29.085     8.844
    30   6 C        2.920    -0.034    28.852     8.808
    31   6 C        2.922    -0.061    29.520     8.910
    32   6 C        2.923     0.064    26.570     8.453
    33   7 N        2.702    -0.152    24.295     7.321
    34   6 C        3.814    -0.058    21.600     6.615
    35   6 C        2.975    -0.007    28.186     8.709
    36   6 C        2.924    -0.041    29.015     8.834
    37   6 C        2.918    -0.044    29.090     8.845
    38   6 C        2.920    -0.034    28.839     8.806
    39   6 C        2.922    -0.061    29.526     8.911
    40   6 C        2.921     0.064    26.560     8.451
    41   7 N        2.702    -0.150    24.245     7.313
    42   7 N        2.702    -0.152    24.284     7.319
    43   1 H        0.926     0.026     2.648     2.545
    44   1 H        0.926     0.027     2.634     2.538
    45   1 H        0.925     0.019     2.741     2.589
    46   1 H        0.926     0.028     2.621     2.532
    47   1 H        0.923     0.044     2.393     2.419
    48   1 H        0.925     0.046     2.366     2.405
    49   1 H        0.926     0.019     2.747     2.592
    50   1 H        0.926     0.028     2.608     2.526
    51   1 H        0.926     0.025     2.654     2.548
    52   1 H        0.926     0.030     2.587     2.515
    53   1 H        0.926     0.022     2.705     2.572
    54   1 H        0.926     0.025     2.657     2.549
    55   1 H        0.926     0.029     2.596     2.520
    56   1 H        0.926     0.020     2.737     2.587
    57   1 H        0.923     0.044     2.400     2.422
    58   1 H        0.925     0.047     2.363     2.404
    59   1 H        0.926     0.028     2.611     2.527
    60   1 H        0.926     0.026     2.641     2.541
    61   1 H        0.926     0.027     2.629     2.536
    62   1 H        0.925     0.020     2.736     2.587
    63   1 H        0.860     0.154     1.375     1.837
    64   1 H        0.923     0.046     2.368     2.406
    65   1 H        0.924     0.043     2.403     2.424
    66   1 H        0.926     0.028     2.619     2.531
    67   1 H        0.926     0.027     2.634     2.538
    68   1 H        0.926     0.028     2.619     2.531
    69   1 H        0.925     0.021     2.715     2.577
    70   1 H        0.860     0.155     1.369     1.833
    71   1 H        0.860     0.154     1.377     1.838

molecular dipole:
                 x           y           z       tot (Debye)
 q only:        0.050       0.057       0.073
   full:        0.293      -0.036       0.063       0.767

 projected vibrational frequencies (cm⁻¹)
eigval :       -0.00    -0.00    -0.00    -0.00     0.00     0.00
eigval :        4.82    18.16    28.73    33.16    40.06    48.00
eigval :       51.90    68.17    90.97    94.86   108.15   115.13
eigval :      122.57   162.12   173.82   182.04   195.25   228.21
eigval :      231.15   242.28   251.25   255.54   265.02   273.55
eigval :      284.36   287.33   304.37   317.25   346.80   359.08
eigval :      371.80   377.91   385.92   407.39   417.73   421.81
eigval :      424.17   436.40   442.75   480.61   488.55   502.77
eigval :      503.40   505.09   508.79   509.93   521.70   536.37
eigval :      538.04   546.04   554.59   570.71   579.41   581.18
eigval :      583.81   586.43   604.84   605.71   631.89   640.01
eigval :      643.70   659.43   667.12   671.43   674.00   677.35
eigval :      687.46   705.08   719.92   768.94   771.85   772.35
eigval :      780.77   790.53   795.81   799.94   801.99   823.06
eigval :      838.26   839.47   855.11   858.37   864.07   865.28
eigval :      865.38   866.43   869.20   875.06   877.96   883.01
eigval :      902.59   904.88   905.35   905.94   914.38   918.13
eigval :      919.55   920.47   920.92   934.25   936.30   942.10
eigval :      991.58  1047.34  1095.59  1095.64  1096.09  1117.29
eigval :     1117.61  1126.56  1130.06  1134.71  1144.07  1147.20
eigval :     1160.02  1161.27  1169.22  1181.63  1181.65  1182.00
eigval :     1191.78  1193.82  1194.63  1200.87  1202.57  1208.74
eigval :     1211.93  1219.20  1220.82  1221.85  1223.40  1247.68
eigval :     1254.22  1255.29  1258.83  1260.08  1268.43  1285.57
eigval :     1301.74  1305.92  1310.00  1311.07  1319.16  1331.08
eigval :     1331.57  1338.84  1340.84  1343.63  1384.76  1391.74
eigval :     1400.37  1434.67  1449.97  1453.13  1455.39  1458.67
eigval :     1460.16  1462.16  1470.95  1474.18  1476.60  1488.06
eigval :     1491.03  1496.94  1498.77  1500.41  1567.52  1580.35
eigval :     1581.23  1586.07  1587.35  1587.99  1593.46  1594.97
eigval :     1595.12  1603.50  1604.79  1605.04  2861.90  2862.02
eigval :     2878.61  2967.19  3010.03  3013.14  3060.60  3060.78
eigval :     3063.54  3065.89  3066.67  3067.68  3072.46  3072.92
eigval :     3073.62  3077.91  3079.21  3080.47  3081.45  3082.16
eigval :     3085.07  3092.36  3092.84  3094.21  3095.29  3095.89
eigval :     3424.86  3425.96  3428.74

   temp. (K)  partition function   enthalpy   heat capacity  entropy
                                   cal/mol     cal/K/mol   cal/K/mol   J/K/mol
 298.15  VIB  0.311E+14            18545.392    124.137    112.353
         ROT  0.387E+08              888.752      2.981     37.699
         INT  0.120E+22            19434.144    127.118    150.052
         TR   0.121E+29             1481.254      4.968     44.723
         TOT                       20915.3978   132.0863   194.7747   814.9375

       T/K    H(0)-H(T)+PV         H(T)/Eh          T*S/Eh         G(T)/Eh
   ------------------------------------------------------------------------
    298.15    0.333308E-01    0.592496E+00    0.925438E-01    0.499952E+00
   ------------------------------------------------------------------------

         :::::::::::::::::::::::::::::::::::::::::::::::::::::
         ::                  THERMODYNAMIC                  ::
         :::::::::::::::::::::::::::::::::::::::::::::::::::::
         :: total free energy        -106.660545870780 Eh   ::
         ::.................................................::
         :: total energy             -107.160497706307 Eh   ::
         :: zero point energy           0.559164788882 Eh   ::
         :: G(RRHO) w/o ZPVE           -0.059212953355 Eh   ::
         :: G(RRHO) contrib.            0.499951835526 Eh   ::
         :::::::::::::::::::::::::::::::::::::::::::::::::::::

           -------------------------------------------------
          | TOTAL ENERGY             -107.160497706307 Eh   |
          | TOTAL ENTHALPY           -106.568002109471 Eh   |
          | TOTAL FREE ENERGY        -106.660545870780 Eh   |
          | GRADIENT NORM               0.000029931473 Eh/α |
          | HOMO-LUMO GAP               3.158561252190 eV   |
           -------------------------------------------------

 * finished run on 2025/09/02 at 20:03:53.280
