   * xtb version 6.7.1 (edcfbbe) compiled by 'albert@albert-system' on 2024-07-22

   ID    Z sym.   atoms
    1    6 C      1-32, 34-40
    2    7 N      33, 41, 42
    3    1 H      43-71

          program call               : xtb data2507/gas/teracridan/teracridan_gas_S0_finalOpt.xtbopt.xyz --gfn 2 --spinpol --tblite --uhf 2 --ohess vtight --parallel 40 --molden --ceasefiles --namespace data2507/gas/teracridan/teracridan_gas_T1_preOpt
 * total energy  :  -107.0435104 Eh     change        0.7022184E-07 Eh
 * total energy  :  -107.0478940 Eh     change       -0.4383540E-02 Eh
 * total energy  :  -107.0509415 Eh     change       -0.3047476E-02 Eh
 * total energy  :  -107.0517911 Eh     change       -0.8496789E-03 Eh
 * total energy  :  -107.0526828 Eh     change       -0.8916198E-03 Eh
 * total energy  :  -107.0532063 Eh     change       -0.5235618E-03 Eh
 * total energy  :  -107.0537756 Eh     change       -0.5692829E-03 Eh
 * total energy  :  -107.0543604 Eh     change       -0.5848196E-03 Eh
 * total energy  :  -107.0549336 Eh     change       -0.5731928E-03 Eh
 * total energy  :  -107.0553717 Eh     change       -0.4380638E-03 Eh
 * total energy  :  -107.0930645 Eh     change       -0.1091577E-05 Eh
 * total energy  :  -107.0930656 Eh     change       -0.1089494E-05 Eh
 * total energy  :  -107.0930666 Eh     change       -0.1070358E-05 Eh
 * total energy  :  -107.0930677 Eh     change       -0.1011740E-05 Eh
 * total energy  :  -107.0930686 Eh     change       -0.9307476E-06 Eh
 * total energy  :  -107.0930694 Eh     change       -0.8184057E-06 Eh
 * total energy  :  -107.0930701 Eh     change       -0.7138608E-06 Eh
 * total energy  :  -107.0930709 Eh     change       -0.8118516E-06 Eh
 * total energy  :  -107.0930710 Eh     change       -0.2198877E-07 Eh
   *** GEOMETRY OPTIMIZATION CONVERGED AFTER 122 ITERATIONS ***

 final structure:
================
71
 xtb: 6.7.1 (edcfbbe)
C            3.16341792130551        3.96734121749041       -1.63580620515815
C            4.29665144293999        3.21925020369539       -1.90715584422886
C            4.51297132448459        2.02180221358461       -1.25227716001605
C            3.58676961423178        1.56452366668150       -0.31837818295703
C            2.44317162161326        2.32316670846497       -0.03299745393936
C            2.24536896652707        3.51651356927198       -0.69903728280486
C            1.49942733748113        1.79881202201916        1.00350055670440
C            1.41155326986700        0.25306614818593        0.93806232179332
C            2.82238323713645       -0.22242086101719        1.13304687055054
C            3.17202034483505       -1.12841956276966        2.09542528072892
C            2.22587819517303       -1.60486493226831        3.00653654504585
C            0.91962420829963       -1.13146154583745        2.96899060712490
C            0.47787732454613       -0.24728840215061        2.00942447287288
C           -0.91494629950558        0.10443981617651        1.88113171436311
C           -1.76068666409921        0.08329835082775        2.99267990928791
C           -3.11187432676590        0.29747614812871        2.86798136807061
C           -3.66798903077654        0.50850543893954        1.60628019092026
C           -2.84830479510573        0.60805077747819        0.47896594621166
C           -1.46226423946601        0.44761045587176        0.60813047666022
C           -0.54008256213216        0.60905310930047       -0.50119323874062
C           -0.67781747711898        1.58267342857135       -1.46190061804444
C            0.25649961064694        1.77734054129311       -2.47730469904091
C            1.35978035919094        0.93077637423728       -2.58654047201605
C            1.59069584205165       -0.03665126957514       -1.64631028830599
C            0.72697517594877       -0.20846710211019       -0.43052813549088
C            0.39728702999833       -1.71947478018077       -0.36771640997782
C            1.65394061337764       -2.52922785119884       -0.30145881935776
C            1.78099763337797       -3.67671947708353        0.45550975291446
C            2.96646715636534       -4.39694002674450        0.45577972566629
C            4.03475404979759       -3.97063603387853       -0.31540920820565
C            3.92857689160790       -2.82291589065338       -1.07803355813829
C            2.74319111876327       -2.09300241704170       -1.06773463928814
N            2.60278310424100       -0.94497705683607       -1.81508405540285
C           -3.52475037988681        0.84963515037280       -0.84722098010277
C           -4.92662895204766        0.30732580974668       -0.88705907523441
C           -5.52740685592533       -0.07853812699408       -2.07115807828193
C           -6.85711863182648       -0.46969828111341       -2.09917892882012
C           -7.59716385280734       -0.47503603674759       -0.92941731726963
C           -7.00587254847530       -0.11861344763031        0.26806816989835
C           -5.66943076212360        0.26746010335075        0.29541473786001
N           -5.04441717771704        0.60938482522497        1.47872455171607
N            3.77998724355750        0.37832342692468        0.35419269500435
H            2.99525303752386        4.90102157969952       -2.15032399492940
H            5.01670530753422        3.56977523307033       -2.63203685122361
H            5.39892380224934        1.43549089900289       -1.45549582820601
H            1.36416425341115        4.10174063615717       -0.48076769724333
H            1.87990386379196        2.05742133990019        1.99960412249437
H            0.51727480362547        2.25710218173881        0.89942474221628
H            4.20130211416873       -1.45151830029141        2.16981133768431
H            2.51970639057010       -2.32311038180620        3.75489317647754
H            0.21766444389431       -1.51254386947593        3.69585162559232
H           -1.34349306241627       -0.08785206836087        3.97279038027858
H           -3.75426367337643        0.27691293674361        3.73721923716884
H           -1.51807940906841        2.25603890312667       -1.41753270807927
H            0.10940403991644        2.56253768500366       -3.20098947389882
H            2.03548177623073        1.02906377849508       -3.42483835569506
H           -0.14585682368737       -1.97330971373087       -1.28659851760859
H           -0.25345288796286       -1.95097053913754        0.47352016983354
H            0.94448172212386       -4.01124841129688        1.05112673207278
H            3.05458067532674       -5.29044375996893        1.05459859428603
H            4.95664624946290       -4.53351271270645       -0.32237707462785
H            4.75860057633900       -2.48527370526623       -1.68381361794323
H            3.28892521227738       -0.75038848352550       -2.52990723195430
H           -3.59501160408467        1.93197605684126       -1.02430727088708
H           -2.93343576248805        0.42170821137966       -1.65937274325555
H           -4.95151709911498       -0.05921194012124       -2.98564346867709
H           -7.31519130624901       -0.75955506095948       -3.03263175813412
H           -8.63679191790337       -0.76708537224719       -0.94615333796999
H           -7.57427716433115       -0.13677236025775        1.18774288917855
H           -5.58008372275187        0.48575710228275        2.32631895419314
H            4.70564929883100       -0.02476176578065        0.35936460885919

 projected vibrational frequencies (cm⁻¹)
eigval :       -0.00     0.00     0.00     0.00     0.00     0.00
eigval :       21.05    35.78    44.18    53.73    56.98    69.19
eigval :       85.09   102.18   106.00   112.87   127.85   133.71
eigval :      177.89   185.19   198.01   206.93   213.82   238.60
eigval :      246.38   254.33   263.61   269.34   281.00   283.96
eigval :      305.57   329.24   333.46   345.08   365.31   376.00
eigval :      383.29   399.35   413.42   419.20   426.99   427.42
eigval :      432.16   442.93   455.16   465.07   481.97   486.70
eigval :      497.39   499.24   505.41   510.79   519.63   523.00
eigval :      523.07   540.84   548.91   558.27   570.16   574.41
eigval :      580.24   592.06   602.10   612.16   617.22   622.71
eigval :      638.02   648.44   655.89   670.02   673.53   685.89
eigval :      688.66   716.31   731.99   748.81   752.24   768.86
eigval :      769.62   771.19   785.85   800.81   811.06   811.23
eigval :      838.62   841.54   847.05   847.57   861.18   861.71
eigval :      861.83   863.89   865.50   868.99   874.61   876.89
eigval :      886.16   894.70   897.28   903.47   904.25   904.86
eigval :      916.52   917.00   918.46   941.21   969.70   978.45
eigval :     1009.28  1040.92  1068.55  1085.83  1091.21  1091.84
eigval :     1094.22  1096.60  1111.21  1117.43  1126.54  1134.16
eigval :     1137.67  1145.11  1159.87  1165.34  1176.83  1179.58
eigval :     1180.01  1181.35  1185.40  1185.95  1193.24  1209.15
eigval :     1210.57  1212.98  1217.11  1217.58  1224.37  1245.83
eigval :     1251.54  1253.97  1255.88  1260.82  1264.33  1275.31
eigval :     1296.52  1298.44  1304.99  1307.48  1320.30  1321.14
eigval :     1330.95  1339.92  1342.63  1343.68  1350.25  1357.60
eigval :     1368.87  1378.56  1389.11  1402.21  1404.32  1423.42
eigval :     1453.44  1460.83  1462.29  1463.29  1463.60  1464.83
eigval :     1467.50  1484.17  1486.28  1495.03  1496.54  1503.86
eigval :     1540.29  1555.15  1567.83  1576.26  1579.53  1580.50
eigval :     1591.73  1595.73  1596.47  1600.89  2869.86  2912.99
eigval :     2913.74  2975.23  3013.42  3018.04  3057.97  3059.07
eigval :     3059.70  3061.50  3063.47  3064.60  3071.68  3077.54
eigval :     3077.87  3078.55  3081.13  3081.32  3082.55  3094.46
eigval :     3095.38  3095.97  3096.59  3099.16  3102.41  3114.20
eigval :     3419.28  3420.95  3421.24

   temp. (K)  partition function   enthalpy   heat capacity  entropy
                                   cal/mol     cal/K/mol   cal/K/mol   J/K/mol
 298.15  VIB  0.104E+12            17935.674    126.375    105.052
         ROT  0.352E+08              888.752      2.981     37.514
         INT  0.366E+19            18824.426    129.355    142.565
         TR   0.121E+29             1481.254      4.968     44.723
         TOT                       20305.6802   134.3236   187.2881   783.6135

       T/K    H(0)-H(T)+PV         H(T)/Eh          T*S/Eh         G(T)/Eh
   ------------------------------------------------------------------------
    298.15    0.323592E-01    0.590345E+00    0.889866E-01    0.501358E+00
   ------------------------------------------------------------------------

         :::::::::::::::::::::::::::::::::::::::::::::::::::::
         ::                  THERMODYNAMIC                  ::
         :::::::::::::::::::::::::::::::::::::::::::::::::::::
         :: total free energy        -106.591712980980 Eh   ::
         ::.................................................::
         :: total energy             -107.093070947375 Eh   ::
         :: zero point energy           0.557985435247 Eh   ::
         :: G(RRHO) w/o ZPVE           -0.056627468852 Eh   ::
         :: G(RRHO) contrib.            0.501357966394 Eh   ::
         :::::::::::::::::::::::::::::::::::::::::::::::::::::

           -------------------------------------------------
          | TOTAL ENERGY             -107.093070947375 Eh   |
          | TOTAL ENTHALPY           -106.502726350983 Eh   |
          | TOTAL FREE ENERGY        -106.591712980980 Eh   |
          | GRADIENT NORM               0.000071300881 Eh/α |
           -------------------------------------------------

 * finished run on 2025/09/02 at 20:04:29.574
