   * xtb version 6.7.1 (edcfbbe) compiled by 'albert@albert-system' on 2024-07-22

   ID    Z sym.   atoms
    1    6 C      1-32, 34-40
    2    7 N      33, 41, 42
    3    1 H      43-71

          program call               : xtb data2507/gas/teracridan/teracridan.xyz --gfn 2 --ohess vtight --parallel 40 --molden --ceasefiles --namespace data2507/gas/teracridan/teracridan_gas_S0_preOpt
          :  Hamiltonian                  GFN2-xTB          :
 * total energy  :  -107.1397658 Eh     change       -0.6519670E-08 Eh
 * total energy  :  -107.1503458 Eh     change       -0.1057998E-01 Eh
 * total energy  :  -107.1534902 Eh     change       -0.3144353E-02 Eh
 * total energy  :  -107.1541869 Eh     change       -0.6966984E-03 Eh
 * total energy  :  -107.1545242 Eh     change       -0.3373942E-03 Eh
 * total energy  :  -107.1546689 Eh     change       -0.1446173E-03 Eh
 * total energy  :  -107.1547971 Eh     change       -0.1282538E-03 Eh
 * total energy  :  -107.1549123 Eh     change       -0.1151917E-03 Eh
 * total energy  :  -107.1549979 Eh     change       -0.8559753E-04 Eh
 * total energy  :  -107.1550784 Eh     change       -0.8047165E-04 Eh
 * total energy  :  -107.1604457 Eh     change       -0.3105834E-06 Eh
 * total energy  :  -107.1604461 Eh     change       -0.4050777E-06 Eh
 * total energy  :  -107.1604466 Eh     change       -0.5461241E-06 Eh
 * total energy  :  -107.1604473 Eh     change       -0.6870130E-06 Eh
 * total energy  :  -107.1604481 Eh     change       -0.7657945E-06 Eh
 * total energy  :  -107.1604488 Eh     change       -0.7433611E-06 Eh
 * total energy  :  -107.1604495 Eh     change       -0.6520339E-06 Eh
 * total energy  :  -107.1604501 Eh     change       -0.5694870E-06 Eh
 * total energy  :  -107.1604501 Eh     change       -0.2584926E-08 Eh
   *** GEOMETRY OPTIMIZATION CONVERGED AFTER 221 ITERATIONS ***

 final structure:
================
71
 xtb: 6.7.1 (edcfbbe)
C            5.02678437871043        0.40497604983130       -2.46541338257103
C            5.39734851815950       -0.92520858052348       -2.55643516201301
C            4.96162365964832       -1.83330457863305       -1.60985089573018
C            4.15866175547617       -1.41180236704593       -0.55468707373625
C            3.79287961274672       -0.06636034990647       -0.45079006982380
C            4.22694373369049        0.82483721186123       -1.41444676562775
C            2.98331989720829        0.36619955573853        0.73760326565221
C            2.09804729300389       -0.74365781721256        1.23386138751805
C            2.56940388641858       -2.05570111065337        1.13665001375852
C            1.88144214519535       -3.09769616315281        1.74983364782264
C            0.73986778696402       -2.83037753636398        2.48015836068419
C            0.23343697973597       -1.54571685165833        2.52371408252537
C            0.88053747753773       -0.50534722459911        1.86182417721287
C            0.21278527576235        0.81366781357286        1.77639098882485
C            0.05228059735914        1.62752021289534        2.88626443640159
C           -0.62807477550969        2.82621482086199        2.78568047998536
C           -1.15895234268694        3.22936875205260        1.56467802641001
C           -0.99495541065031        2.42688327976578        0.43047129991903
C           -0.32223373983165        1.21903215509883        0.54243641700749
C           -0.10176012208789        0.33371706463132       -0.62710995314613
C            0.82707450652758        0.70049926612354       -1.59724533401764
C            1.17973843801194       -0.17994299134881       -2.60177883492435
C            0.63454829995213       -1.44862414314849       -2.63074873875446
C           -0.33232222148318       -1.80747207946404       -1.69725248933346
C           -0.74250225548884       -0.89682421402522       -0.71935888892039
C           -1.92289101472531       -1.25978866289238        0.13890078531087
C           -1.97551933815806       -2.73769052354901        0.40031376613488
C           -2.54732359599029       -3.26657629112313        1.54255883885891
C           -2.63592907324597       -4.63723743881515        1.72606287624435
C           -2.14464942352294       -5.49273521941725        0.75557439417842
C           -1.55674877925047       -4.98203295062371       -0.38635046423982
C           -1.46760178292716       -3.60598763751874       -0.57030462923835
N           -0.88610313127641       -3.07680262779432       -1.70933595473744
C           -1.53382394154902        2.89601527719912       -0.89426775205094
C           -2.65296910552924        3.88812589728844       -0.73930085709459
C           -3.56937182905516        4.10340841836631       -1.75338321409037
C           -4.55101624438646        5.07428445472988       -1.63603086887073
C           -4.62166715728338        5.84218842722694       -0.48669849804807
C           -3.73017446112493        5.62589906105256        0.54674352805064
C           -2.74594515577283        4.64841838192664        0.43025375995930
N           -1.85752672769673        4.41875940085040        1.46403940787136
N            3.71934227582725       -2.30529564659042        0.40561519704439
H            5.36471931334097        1.11493355229101       -3.20528928266651
H            6.02451207622597       -1.25987576429414       -3.36968669784265
H            5.24334625794696       -2.87502467350301       -1.68116552070135
H            3.94750953602870        1.86569283100907       -1.33408152964204
H            3.67592110154381        0.62655466173862        1.55228111269810
H            2.40509392140196        1.26257976273126        0.51521279931787
H            2.25434251554383       -4.10876972680223        1.66391940752726
H            0.22465903168671       -3.63261685180350        2.98648775088241
H           -0.67774306941213       -1.34160240204574        3.06537922880964
H            0.46451456381202        1.31739780852628        3.83524651420194
H           -0.75667313967902        3.45506457565423        3.65553041715002
H            1.28251895683981        1.67786376667801       -1.55405146866704
H            1.90804663537967        0.10992783744769       -3.34391291470158
H            0.94496675563570       -2.16258087693786       -3.38074611290503
H           -2.83450698738545       -0.97077971712269       -0.40576704632652
H           -1.91890891870925       -0.69686941911966        1.07211593166737
H           -2.94151746963996       -2.59671693256641        2.29332637458813
H           -3.09272190275964       -5.03494156771242        2.61979592039681
H           -2.21391905397380       -6.56236977628084        0.88881130310285
H           -1.16443604170124       -5.64695739558337       -1.14370709827852
H           -0.48595499247173       -3.73555236089966       -2.36223686793627
H           -0.72089318198777        3.37699003764994       -1.45593155167175
H           -1.86128325440497        2.04002761687918       -1.49030255793149
H           -3.50468137328368        3.50839850411771       -2.65342872510257
H           -5.25236843985728        5.23399881548375       -2.44075642765117
H           -5.37809499247840        6.60674250202737       -0.38930699068440
H           -3.78967896612912        6.21332310944685        1.45266120972985
H           -2.00848057647429        4.93285260871389        2.31980698578524
H            3.96570680634808       -3.27551902084564        0.27095452640905

          :  Hamiltonian                  GFN2-xTB          :
         :: gradient norm              0.000042630696 Eh/a0 ::
         :: HOMO-LUMO gap              3.186493671542 eV    ::
         :: SCC energy              -109.141109094553 Eh    ::
         :: -> dispersion             -0.110219310676 Eh    ::
         :: repulsion energy           1.980659029081 Eh    ::

    * Orbital Energies and Occupations

         #    Occupation            Energy/Eh            Energy/eV
      -------------------------------------------------------------
         1        2.0000           -0.6615207             -18.0009
       ...           ...                  ...                  ...
        88        2.0000           -0.4060835             -11.0501
        89        2.0000           -0.3980729             -10.8321
        90        2.0000           -0.3956160             -10.7653
        91        2.0000           -0.3949017             -10.7458
        92        2.0000           -0.3938051             -10.7160
        93        2.0000           -0.3922566             -10.6738
        94        2.0000           -0.3883743             -10.5682
        95        2.0000           -0.3879975             -10.5579
        96        2.0000           -0.3832059             -10.4276
        97        2.0000           -0.3755953             -10.2205
        98        2.0000           -0.3450306              -9.3888
        99        2.0000           -0.3440520              -9.3621
       100        2.0000           -0.3434001              -9.3444 (HOMO)
       101                         -0.2262986              -6.1579 (LUMO)
       102                         -0.2226630              -6.0590
       103                         -0.2180985              -5.9348
       104                         -0.2155043              -5.8642
       105                         -0.2146450              -5.8408
       106                         -0.2127029              -5.7879
       107                         -0.2122891              -5.7767
       108                         -0.2094260              -5.6988
       109                         -0.2052827              -5.5860
       110                         -0.1890357              -5.1439
       111                         -0.1876089              -5.1051
       ...                                ...                  ...
       197                          0.6992492              19.0275
      -------------------------------------------------------------
                  HL-Gap            0.1171015 Eh            3.1865 eV

     #   Z          covCN         q      C6AA      α(0)
     1   6 C        2.918    -0.044    29.099     8.846
     2   6 C        2.920    -0.034    28.855     8.809
     3   6 C        2.922    -0.061    29.519     8.910
     4   6 C        2.922     0.064    26.566     8.452
     5   6 C        2.977    -0.005    28.133     8.700
     6   6 C        2.924    -0.038    28.951     8.824
     7   6 C        3.815    -0.058    21.606     6.616
     8   6 C        2.980    -0.012    28.300     8.726
     9   6 C        2.922     0.062    26.615     8.460
    10   6 C        2.922    -0.064    29.603     8.922
    11   6 C        2.918    -0.034    28.840     8.806
    12   6 C        2.926    -0.046    29.144     8.853
    13   6 C        2.980     0.002    27.967     8.675
    14   6 C        2.982    -0.006    28.165     8.705
    15   6 C        2.920    -0.040    28.991     8.830
    16   6 C        2.921    -0.066    29.632     8.927
    17   6 C        2.919     0.061    26.639     8.464
    18   6 C        2.976    -0.013    28.334     8.731
    19   6 C        2.986    -0.004    28.116     8.698
    20   6 C        2.980     0.003    27.956     8.673
    21   6 C        2.925    -0.045    29.127     8.851
    22   6 C        2.918    -0.034    28.839     8.806
    23   6 C        2.922    -0.064    29.594     8.921
    24   6 C        2.922     0.062    26.606     8.459
    25   6 C        2.981    -0.011    28.295     8.725
    26   6 C        3.815    -0.057    21.595     6.614
    27   6 C        2.977    -0.005    28.131     8.700
    28   6 C        2.924    -0.038    28.944     8.823
    29   6 C        2.918    -0.044    29.087     8.844
    30   6 C        2.920    -0.034    28.850     8.808
    31   6 C        2.922    -0.061    29.512     8.909
    32   6 C        2.923     0.064    26.566     8.452
    33   7 N        2.702    -0.153    24.302     7.322
    34   6 C        3.813    -0.058    21.598     6.615
    35   6 C        2.975    -0.007    28.187     8.709
    36   6 C        2.924    -0.041    29.016     8.834
    37   6 C        2.918    -0.044    29.090     8.845
    38   6 C        2.920    -0.034    28.838     8.806
    39   6 C        2.922    -0.061    29.527     8.911
    40   6 C        2.920     0.064    26.559     8.451
    41   7 N        2.702    -0.150    24.234     7.311
    42   7 N        2.702    -0.152    24.293     7.320
    43   1 H        0.926     0.026     2.647     2.544
    44   1 H        0.926     0.027     2.633     2.538
    45   1 H        0.925     0.020     2.738     2.588
    46   1 H        0.926     0.027     2.631     2.536
    47   1 H        0.923     0.044     2.392     2.419
    48   1 H        0.925     0.046     2.377     2.411
    49   1 H        0.926     0.019     2.749     2.593
    50   1 H        0.926     0.028     2.613     2.528
    51   1 H        0.926     0.026     2.639     2.541
    52   1 H        0.926     0.030     2.587     2.515
    53   1 H        0.926     0.022     2.704     2.571
    54   1 H        0.926     0.026     2.642     2.542
    55   1 H        0.926     0.029     2.602     2.522
    56   1 H        0.926     0.020     2.740     2.588
    57   1 H        0.923     0.044     2.401     2.423
    58   1 H        0.925     0.046     2.371     2.408
    59   1 H        0.926     0.028     2.621     2.532
    60   1 H        0.926     0.026     2.641     2.541
    61   1 H        0.926     0.027     2.628     2.535
    62   1 H        0.925     0.020     2.734     2.585
    63   1 H        0.860     0.154     1.376     1.837
    64   1 H        0.923     0.046     2.368     2.406
    65   1 H        0.924     0.044     2.402     2.424
    66   1 H        0.926     0.028     2.619     2.531
    67   1 H        0.926     0.027     2.633     2.538
    68   1 H        0.926     0.028     2.619     2.531
    69   1 H        0.925     0.021     2.715     2.577
    70   1 H        0.860     0.155     1.369     1.833
    71   1 H        0.860     0.153     1.377     1.839

molecular dipole:
                 x           y           z       tot (Debye)
 q only:        0.089      -0.003       0.051
   full:        0.159      -0.260       0.052       0.787

 projected vibrational frequencies (cm⁻¹)
eigval :       -0.00    -0.00    -0.00     0.00     0.00     0.00
eigval :        8.83    17.08    28.34    32.74    39.74    46.52
eigval :       50.53    65.21    89.39    93.82   105.20   112.90
eigval :      121.23   161.78   174.62   179.41   192.88   228.42
eigval :      230.65   241.97   250.96   255.11   265.49   273.69
eigval :      283.17   287.65   304.49   317.23   346.91   359.29
eigval :      371.97   378.36   386.11   407.69   417.52   421.87
eigval :      423.66   436.47   441.58   480.28   488.27   502.58
eigval :      503.35   504.91   509.09   509.95   521.71   535.16
eigval :      537.69   547.09   554.82   571.94   579.80   581.59
eigval :      583.50   585.39   604.21   605.70   631.94   640.43
eigval :      643.97   659.38   666.81   671.32   674.40   677.92
eigval :      688.08   704.18   719.79   769.00   771.80   772.26
eigval :      780.64   790.52   796.02   800.18   801.71   822.60
eigval :      838.24   839.50   855.23   858.46   864.02   865.36
eigval :      865.43   866.48   869.03   875.49   877.78   883.06
eigval :      901.84   905.18   905.55   905.87   914.42   918.14
eigval :      919.49   920.67   921.01   934.87   936.88   942.33
eigval :      991.46  1046.90  1095.51  1095.62  1096.20  1116.50
eigval :     1116.74  1126.54  1129.94  1134.67  1144.32  1147.39
eigval :     1159.84  1161.43  1168.79  1181.65  1181.67  1181.98
eigval :     1191.46  1193.53  1194.78  1200.61  1202.49  1208.56
eigval :     1211.78  1219.00  1220.88  1221.81  1223.43  1247.50
eigval :     1254.32  1255.40  1258.88  1259.96  1268.12  1285.57
eigval :     1303.25  1306.32  1309.92  1310.77  1318.48  1331.19
eigval :     1331.53  1338.75  1340.67  1343.47  1384.72  1390.95
eigval :     1401.10  1434.64  1450.33  1454.07  1456.11  1459.61
eigval :     1460.88  1462.71  1470.90  1473.89  1476.48  1488.69
eigval :     1490.96  1496.81  1498.65  1500.40  1568.24  1580.64
eigval :     1581.24  1586.58  1587.49  1588.07  1593.97  1595.09
eigval :     1595.49  1603.64  1604.71  1605.02  2862.55  2863.15
eigval :     2878.13  2964.82  3005.52  3007.58  3061.06  3061.18
eigval :     3063.54  3065.48  3066.06  3066.49  3071.30  3072.26
eigval :     3072.49  3079.30  3079.70  3081.95  3082.19  3084.13
eigval :     3085.46  3092.36  3092.88  3094.52  3095.36  3096.39
eigval :     3423.98  3425.39  3429.84

   temp. (K)  partition function   enthalpy   heat capacity  entropy
                                   cal/mol     cal/K/mol   cal/K/mol   J/K/mol
 298.15  VIB  0.223E+14            18567.240    124.029    112.084
         ROT  0.391E+08              888.752      2.981     37.722
         INT  0.873E+21            19455.992    127.010    149.806
         TR   0.121E+29             1481.254      4.968     44.723
         TOT                       20937.2458   131.9779   194.5286   813.9078

       T/K    H(0)-H(T)+PV         H(T)/Eh          T*S/Eh         G(T)/Eh
   ------------------------------------------------------------------------
    298.15    0.333656E-01    0.592477E+00    0.924268E-01    0.500050E+00
   ------------------------------------------------------------------------

         :::::::::::::::::::::::::::::::::::::::::::::::::::::
         ::                  THERMODYNAMIC                  ::
         :::::::::::::::::::::::::::::::::::::::::::::::::::::
         :: total free energy        -106.660399972584 Eh   ::
         ::.................................................::
         :: total energy             -107.160450065472 Eh   ::
         :: zero point energy           0.559111303726 Eh   ::
         :: G(RRHO) w/o ZPVE           -0.059061210839 Eh   ::
         :: G(RRHO) contrib.            0.500050092888 Eh   ::
         :::::::::::::::::::::::::::::::::::::::::::::::::::::

           -------------------------------------------------
          | TOTAL ENERGY             -107.160450065472 Eh   |
          | TOTAL ENTHALPY           -106.567973136773 Eh   |
          | TOTAL FREE ENERGY        -106.660399972584 Eh   |
          | GRADIENT NORM               0.000042630585 Eh/α |
          | HOMO-LUMO GAP               3.186493474756 eV   |
           -------------------------------------------------

 * finished run on 2025/09/02 at 19:56:18.227
