   * xtb version 6.7.1 (edcfbbe) compiled by 'albert@albert-system' on 2024-07-22

   ID    Z sym.   atoms
    1    6 C      1-9, 11-14, 16-21, 23-28, 31-38
    2    7 N      10, 15, 22, 29, 30
    3    1 H      39-63

          program call               : xtb data2507/toluene/DPQ-DMAC/DPQ-DMAC_toluene_S0_crest.xyz --gfn 2 --gbsa toluene --ohess vtight --parallel 40 --molden --ceasefiles --namespace data2507/toluene/DPQ-DMAC/DPQ-DMAC_toluene_S0_finalOpt
      * Solvation model:               GBSA
        Solvent                        toluene
        Solvent mass                       9.2140E+01 g/mol
          :  Hamiltonian                  GFN2-xTB          :
 * total energy  :   -98.0951662 Eh     change       -0.2667377E-08 Eh
 * total energy  :   -98.0952434 Eh     change       -0.7724619E-04 Eh
 * total energy  :   -98.0952732 Eh     change       -0.2981230E-04 Eh
 * total energy  :   -98.0952893 Eh     change       -0.1608236E-04 Eh
 * total energy  :   -98.0953058 Eh     change       -0.1644369E-04 Eh
 * total energy  :   -98.0953193 Eh     change       -0.1356946E-04 Eh
 * total energy  :   -98.0953261 Eh     change       -0.6809043E-05 Eh
 * total energy  :   -98.0953288 Eh     change       -0.2668398E-05 Eh
 * total energy  :   -98.0953283 Eh     change        0.5345158E-06 Eh
 * total energy  :   -98.0953303 Eh     change       -0.2043461E-05 Eh
 * total energy  :   -98.0953359 Eh     change       -0.1040887E-05 Eh
 * total energy  :   -98.0953366 Eh     change       -0.7293523E-06 Eh
 * total energy  :   -98.0953371 Eh     change       -0.5210430E-06 Eh
 * total energy  :   -98.0953376 Eh     change       -0.5275987E-06 Eh
 * total energy  :   -98.0953384 Eh     change       -0.7454522E-06 Eh
 * total energy  :   -98.0953393 Eh     change       -0.9680421E-06 Eh
 * total energy  :   -98.0953404 Eh     change       -0.1061440E-05 Eh
 * total energy  :   -98.0953414 Eh     change       -0.1032239E-05 Eh
 * total energy  :   -98.0953415 Eh     change       -0.9802150E-08 Eh
   *** GEOMETRY OPTIMIZATION CONVERGED AFTER 22 ITERATIONS ***

 final structure:
================
63
 xtb: 6.7.1 (edcfbbe)
C           -6.41399376882337        1.14410524973674       -1.39401433948654
C           -5.82029661633908        0.36157706661664       -0.20740981298699
C           -6.94099152741659       -0.09407462756334        0.74606360923964
C           -5.10853662246772       -0.86478494571153       -0.74607375099798
C           -5.82523947043739       -1.80362780361109       -1.47676654527528
C           -5.22720367608985       -2.92508040545230       -2.02111834724702
C           -3.86705814245235       -3.11331134234183       -1.85375246786783
C           -3.13128217505281       -2.19629271006857       -1.13219907611361
C           -3.74029921432400       -1.07944391425537       -0.55160055269974
N           -2.97254152575942       -0.18120203284144        0.18027783148645
C           -1.60351211755423       -0.47095329478778        0.39383804510876
C           -1.25545361718260       -1.52606544989487        1.26797288297798
C            0.05289002364884       -1.81959413060575        1.52726829448503
C            1.07494316421637       -1.06840885158838        0.91240807921673
N            2.36611459087969       -1.29081686506249        1.22932746016394
C            3.28501395982997       -0.59049791427361        0.61166762622116
C            4.67572676459686       -0.72007293604001        1.05865308352805
C            5.20068730926185       -1.96145656798131        1.41299397637137
C            6.51973837084156       -2.02673429205154        1.82569003758077
C            7.26044122551859       -0.85545849453964        1.88289871570832
C            6.63597108662958        0.33244491030690        1.53139360357727
N            5.38059060032495        0.40761743589386        1.12931155156468
C            2.93911372334808        0.31443852126994       -0.44067259625566
C            3.97822052760536        0.88637872994786       -1.30425791019514
C            3.90759166318639        2.21027029022685       -1.73304781674191
C            4.91387535898669        2.69299232327252       -2.55113190894944
C            5.94194674284996        1.83872860865515       -2.92116874966775
C            5.90663281007499        0.53169705855315       -2.45734331312232
N            4.95659674127099        0.06074410723208       -1.67071849600728
N            1.68979380942679        0.61194846846944       -0.69456694792245
C            0.72762538340209       -0.03540135979622       -0.00281676992988
C           -0.62613159933744        0.26202285444287       -0.23592602049073
C           -3.52180288942762        0.97249769319815        0.72941012787993
C           -2.72479697216243        1.82548924803371        1.49863066299518
C           -3.24293865577682        2.97649571775637        2.05479047884972
C           -4.57448572707036        3.29608382488854        1.85959451945880
C           -5.37172189910775        2.43986573030198        1.12330536512957
C           -4.87696717350555        1.27277227857424        0.55525535633311
H           -7.10539295067582        0.52583078372760       -1.95941892154223
H           -6.94863554625279        2.02434759697570       -1.04851196273330
H           -5.61623013782235        1.46606628700700       -2.06135749789590
H           -7.64640682502915       -0.74090566935948        0.23223467799424
H           -7.48601723687661        0.75891818443275        1.14004145617548
H           -6.51469489957914       -0.64552897713904        1.58238163008205
H           -6.88355940779317       -1.65898109273182       -1.63122333258319
H           -5.81559795996905       -3.63687404840700       -2.58011458718143
H           -3.37306049871074       -3.96999619519250       -2.28806564858547
H           -2.06744816531144       -2.34274388974874       -1.02280493920268
H           -2.04917453860914       -2.08695872075845        1.73875660271017
H            0.33438521943661       -2.60671237744704        2.20909096703556
H            4.57725682946653       -2.83913850778133        1.35202196021425
H            6.96237724650870       -2.97318720012905        2.09972132276876
H            8.29227756593455       -0.85967230550780        2.19666585954248
H            7.16127555726908        1.27834628880871        1.57348382430221
H            3.08296171657789        2.82903686388277       -1.41715317944087
H            4.89611582829140        3.71643269975816       -2.89615394923363
H            6.74659517079736        2.17299083584205       -3.55672892252633
H            6.67422544707533       -0.18256717091666       -2.72745142356226
H           -0.87509332965531        1.06184491685018       -0.91638802989378
H           -1.68756151516844        1.58040831968813        1.66856594717580
H           -2.60345936762333        3.61839683177513        2.64274296081968
H           -4.99148888505262        4.19643095971415        2.28473188314234
H           -6.41299993803847        2.69162667684817        0.99280124339955

          :  Hamiltonian                  GFN2-xTB          :
         :: gradient norm              0.000074374617 Eh/a0 ::
         :: HOMO-LUMO gap              1.071695440549 eV    ::
         :: SCC energy               -99.812491781572 Eh    ::
         :: -> dispersion             -0.086473781899 Eh    ::
         :: -> Gsolv                  -0.045432902975 Eh    ::
         :: repulsion energy           1.717150328850 Eh    ::

    * Orbital Energies and Occupations

         #    Occupation            Energy/Eh            Energy/eV
      -------------------------------------------------------------
         1        2.0000           -0.6920220             -18.8309
       ...           ...                  ...                  ...
        79        2.0000           -0.4323594             -11.7651
        80        2.0000           -0.4277907             -11.6408
        81        2.0000           -0.4177652             -11.3680
        82        2.0000           -0.4134219             -11.2498
        83        2.0000           -0.4088404             -11.1251
        84        2.0000           -0.4085536             -11.1173
        85        2.0000           -0.4055818             -11.0364
        86        2.0000           -0.3996443             -10.8749
        87        2.0000           -0.3942483             -10.7280
        88        2.0000           -0.3859116             -10.5012
        89        2.0000           -0.3833107             -10.4304
        90        2.0000           -0.3676763             -10.0050
        91        2.0000           -0.3503401              -9.5332 (HOMO)
        92                         -0.3109560              -8.4615 (LUMO)
        93                         -0.2835557              -7.7159
        94                         -0.2579394              -7.0189
        95                         -0.2576494              -7.0110
        96                         -0.2424073              -6.5962
        97                         -0.2380150              -6.4767
        98                         -0.2267030              -6.1689
        99                         -0.2262936              -6.1578
       100                         -0.2210968              -6.0164
       101                         -0.2200403              -5.9876
       102                         -0.1932280              -5.2580
       ...                                ...                  ...
       177                          0.6797384              18.4966
      -------------------------------------------------------------
                  HL-Gap            0.0393841 Eh            1.0717 eV

     #   Z          covCN         q      C6AA      α(0)
     1   6 C        3.761    -0.105    22.553     6.770
     2   6 C        3.909     0.021    20.164     6.383
     3   6 C        3.761    -0.105    22.554     6.770
     4   6 C        2.979    -0.012    28.307     8.727
     5   6 C        2.928    -0.037    28.913     8.818
     6   6 C        2.917    -0.045    29.106     8.847
     7   6 C        2.919    -0.034    28.849     8.808
     8   6 C        2.924    -0.059    29.471     8.903
     9   6 C        2.928     0.057    26.725     8.478
    10   7 N        2.754    -0.069    22.573     7.056
    11   6 C        2.924     0.075    26.335     8.416
    12   6 C        2.919    -0.036    28.898     8.815
    13   6 C        2.915    -0.042    29.043     8.837
    14   6 C        2.968     0.079    26.237     8.402
    15   7 N        1.848    -0.256    27.509     7.773
    16   6 C        2.959     0.105    25.671     8.311
    17   6 C        2.971     0.103    25.716     8.318
    18   6 C        2.918    -0.039    28.980     8.828
    19   6 C        2.927    -0.009    28.245     8.716
    20   6 C        2.914    -0.039    28.971     8.826
    21   6 C        2.909     0.064    26.569     8.452
    22   7 N        1.843    -0.259    27.585     7.784
    23   6 C        2.959     0.108    25.614     8.301
    24   6 C        2.971     0.103    25.709     8.317
    25   6 C        2.918    -0.039    28.975     8.827
    26   6 C        2.928    -0.009    28.243     8.715
    27   6 C        2.914    -0.039    28.967     8.826
    28   6 C        2.909     0.064    26.569     8.452
    29   7 N        1.843    -0.258    27.573     7.782
    30   7 N        1.849    -0.259    27.581     7.784
    31   6 C        2.967     0.082    26.163     8.390
    32   6 C        2.920    -0.054    29.333     8.881
    33   6 C        2.926     0.057    26.727     8.478
    34   6 C        2.924    -0.059    29.475     8.903
    35   6 C        2.919    -0.034    28.850     8.808
    36   6 C        2.917    -0.045    29.111     8.848
    37   6 C        2.928    -0.037    28.915     8.818
    38   6 C        2.979    -0.012    28.309     8.728
    39   1 H        0.925     0.044     2.398     2.422
    40   1 H        0.925     0.044     2.397     2.421
    41   1 H        0.925     0.031     2.572     2.508
    42   1 H        0.925     0.044     2.395     2.420
    43   1 H        0.925     0.044     2.399     2.422
    44   1 H        0.925     0.031     2.567     2.506
    45   1 H        0.926     0.037     2.486     2.466
    46   1 H        0.926     0.030     2.588     2.516
    47   1 H        0.926     0.029     2.599     2.521
    48   1 H        0.926     0.021     2.720     2.579
    49   1 H        0.926     0.064     2.153     2.295
    50   1 H        0.926     0.067     2.123     2.279
    51   1 H        0.926     0.052     2.297     2.370
    52   1 H        0.926     0.056     2.241     2.341
    53   1 H        0.926     0.055     2.262     2.352
    54   1 H        0.925     0.042     2.426     2.436
    55   1 H        0.926     0.051     2.301     2.372
    56   1 H        0.926     0.057     2.239     2.340
    57   1 H        0.926     0.055     2.258     2.350
    58   1 H        0.925     0.042     2.421     2.433
    59   1 H        0.926     0.063     2.163     2.300
    60   1 H        0.926     0.019     2.754     2.595
    61   1 H        0.926     0.028     2.611     2.527
    62   1 H        0.926     0.030     2.588     2.516
    63   1 H        0.926     0.037     2.482     2.464

molecular dipole:
                 x           y           z       tot (Debye)
 q only:       -0.046       0.002      -0.037
   full:        0.309       0.025      -0.054       0.799

 projected vibrational frequencies (cm⁻¹)
eigval :       -0.00     0.00     0.00     0.00     0.00     0.00
eigval :       11.21    17.49    18.93    31.26    41.94    44.88
eigval :       54.51    62.48    75.88    78.26    97.80   103.31
eigval :      126.59   137.83   141.61   152.96   182.14   188.50
eigval :      215.78   219.16   224.87   236.80   263.46   280.81
eigval :      298.67   306.33   314.44   330.23   342.34   352.73
eigval :      367.70   373.12   375.76   382.06   396.55   409.52
eigval :      415.42   450.29   453.67   462.98   488.89   508.66
eigval :      513.33   539.28   544.82   546.05   554.57   566.18
eigval :      586.31   593.15   594.92   599.08   604.46   640.06
eigval :      654.78   682.51   686.23   690.66   693.67   711.00
eigval :      717.39   729.86   734.17   757.51   771.98   774.05
eigval :      776.55   783.91   819.15   828.28   840.77   854.56
eigval :      865.82   867.63   883.84   888.20   891.00   911.41
eigval :      912.11   914.47   914.86   918.11   919.08   920.06
eigval :      922.24   928.49   935.25   937.89   957.10   964.00
eigval :      986.28   998.31  1012.91  1027.85  1075.51  1079.10
eigval :     1088.29  1090.33  1106.77  1113.10  1118.29  1118.41
eigval :     1122.79  1139.49  1142.09  1158.08  1158.41  1158.69
eigval :     1160.78  1182.78  1185.41  1186.67  1209.87  1234.24
eigval :     1241.36  1244.60  1247.97  1250.59  1265.93  1267.90
eigval :     1284.60  1287.44  1291.33  1292.77  1295.42  1321.33
eigval :     1330.29  1331.56  1335.96  1376.72  1394.49  1398.92
eigval :     1402.96  1413.53  1417.49  1423.12  1434.08  1436.98
eigval :     1439.83  1453.48  1474.85  1478.25  1485.06  1486.38
eigval :     1492.34  1495.64  1501.33  1519.12  1532.78  1555.66
eigval :     1557.86  1572.79  1573.70  1576.20  1587.80  1590.02
eigval :     1593.49  1600.35  3021.93  3024.39  3041.05  3042.97
eigval :     3049.22  3049.59  3050.83  3053.37  3073.52  3074.24
eigval :     3077.72  3078.40  3081.21  3082.19  3090.46  3091.47
eigval :     3091.95  3096.60  3098.22  3099.58  3100.45  3100.93
eigval :     3104.55  3105.51  3106.13

   temp. (K)  partition function   enthalpy   heat capacity  entropy
                                   cal/mol     cal/K/mol   cal/K/mol   J/K/mol
 298.15  VIB  0.380E+14            17743.482    112.415    109.983
         ROT  0.416E+08              888.752      2.981     37.845
         INT  0.158E+22            18632.234    115.395    147.828
         TR   0.105E+29             1481.254      4.968     44.445
         TOT                       20113.4879   120.3636   192.2721   804.4666

       T/K    H(0)-H(T)+PV         H(T)/Eh          T*S/Eh         G(T)/Eh
   ------------------------------------------------------------------------
    298.15    0.320529E-01    0.517698E+00    0.913547E-01    0.426344E+00
   ------------------------------------------------------------------------

         :::::::::::::::::::::::::::::::::::::::::::::::::::::
         ::                  THERMODYNAMIC                  ::
         :::::::::::::::::::::::::::::::::::::::::::::::::::::
         :: total free energy         -97.668997710498 Eh   ::
         ::.................................................::
         :: total energy              -98.095341451121 Eh   ::
         :: zero point energy           0.485645556709 Eh   ::
         :: G(RRHO) w/o ZPVE           -0.059301816086 Eh   ::
         :: G(RRHO) contrib.            0.426343740622 Eh   ::
         :::::::::::::::::::::::::::::::::::::::::::::::::::::

           -------------------------------------------------
          | TOTAL ENERGY              -98.095341451121 Eh   |
          | TOTAL ENTHALPY            -97.577643011258 Eh   |
          | TOTAL FREE ENERGY         -97.668997710498 Eh   |
          | GRADIENT NORM               0.000074353318 Eh/α |
          | HOMO-LUMO GAP               1.071696605425 eV   |
           -------------------------------------------------

 * finished run on 2025/07/20 at 14:45:13.563
