   * xtb version 6.7.1 (edcfbbe) compiled by 'albert@albert-system' on 2024-07-22

   ID    Z sym.   atoms
    1    6 C      1-9, 11-14, 16-21, 23-28, 31-38
    2    7 N      10, 15, 22, 29, 30
    3    1 H      39-63

          program call               : xtb data2507/toluene/DPQ-DMAC/DPQ-DMAC.xyz --gfn 2 --gbsa toluene --ohess vtight --parallel 40 --molden --ceasefiles --namespace data2507/toluene/DPQ-DMAC/DPQ-DMAC_toluene_S0_preOpt
      * Solvation model:               GBSA
        Solvent                        toluene
        Solvent mass                       9.2140E+01 g/mol
          :  Hamiltonian                  GFN2-xTB          :
 * total energy  :   -98.0697139 Eh     change       -0.1608697E-08 Eh
 * total energy  :   -98.0867377 Eh     change       -0.1702378E-01 Eh
 * total energy  :   -98.0921890 Eh     change       -0.5451363E-02 Eh
 * total energy  :   -98.0931650 Eh     change       -0.9759812E-03 Eh
 * total energy  :   -98.0939464 Eh     change       -0.7813420E-03 Eh
 * total energy  :   -98.0941698 Eh     change       -0.2234164E-03 Eh
 * total energy  :   -98.0943577 Eh     change       -0.1879151E-03 Eh
 * total energy  :   -98.0945347 Eh     change       -0.1770058E-03 Eh
 * total energy  :   -98.0947096 Eh     change       -0.1749307E-03 Eh
 * total energy  :   -98.0948356 Eh     change       -0.1259435E-03 Eh
 * total energy  :   -98.0953561 Eh     change       -0.2723606E-06 Eh
 * total energy  :   -98.0953564 Eh     change       -0.3617421E-06 Eh
 * total energy  :   -98.0953569 Eh     change       -0.4621107E-06 Eh
 * total energy  :   -98.0953573 Eh     change       -0.4408611E-06 Eh
 * total energy  :   -98.0953577 Eh     change       -0.3548434E-06 Eh
 * total energy  :   -98.0953580 Eh     change       -0.3498704E-06 Eh
 * total energy  :   -98.0953584 Eh     change       -0.3965905E-06 Eh
 * total energy  :   -98.0953589 Eh     change       -0.4748493E-06 Eh
 * total energy  :   -98.0953589 Eh     change       -0.3336098E-08 Eh
   *** GEOMETRY OPTIMIZATION CONVERGED AFTER 94 ITERATIONS ***

 final structure:
================
63
 xtb: 6.7.1 (edcfbbe)
C           -6.03351798470792        0.03190066767720       -1.59478722215515
C           -5.37735088905567        0.05123661377772       -0.20121231218148
C           -6.45223636394705        0.18656947808847        0.89365447070363
C           -4.63698549333558       -1.25685118923423       -0.00064143840263
C           -5.33764218334341       -2.45429863780918       -0.06727819198689
C           -4.71358760504972       -3.68049301833983        0.06829630975608
C           -3.34347987882327       -3.72353050700053        0.25391198145017
C           -2.62388100021699       -2.54886188466410        0.32564155068524
C           -3.25836156274139       -1.30641358816253        0.22826519027253
N           -2.50495053139936       -0.14127245705441        0.32071987960554
C           -1.13008852626397       -0.24622261989275        0.63590004957771
C           -0.75710978123525       -0.67660172854223        1.93013782805996
C            0.55733109013250       -0.76646453880885        2.28896948491500
C            1.56259909643522       -0.43112100021544        1.35930036494579
N            2.85851043557486       -0.43188161201431        1.72988115748896
C            3.76088654898449       -0.13476803838861        0.82744103201614
C            5.15348781573847        0.01695366709229        1.26190657782453
C            5.71105863908960       -0.85282391760482        2.19714981125040
C            7.02960725892276       -0.66250516383415        2.57095528557171
C            7.73695078032233        0.39184226048124        2.01254378164700
C            7.08111847111607        1.21494606462303        1.10876060268185
N            5.82634371874916        1.03938399718506        0.73719988758970
C            3.39442593422886        0.08658148784287       -0.53693455729808
C            4.41935741359286        0.15889142161909       -1.58416191615610
C            4.30600594940383        1.06631905001004       -2.63554424558725
C            5.29974067420332        1.08765885613356       -3.59830239737035
C            6.35805959947895        0.19825355675542       -3.48596923343265
C            6.36450325024888       -0.68024106060199       -2.41223427310547
N            5.42672903613939       -0.70595288729730       -1.48313840299440
N            2.13833398162755        0.17863234683036       -0.89493518492667
C            1.19128385063528       -0.03616174922724        0.04343607641787
C           -0.16872137695297        0.06552577767392       -0.29604857701028
C           -3.07862467466342        1.11487532325377        0.14930326979464
C           -2.29456438747033        2.26502593866829        0.28017149322397
C           -2.83796919083886        3.52179471165313        0.11323423626618
C           -4.18316106245770        3.65712143922783       -0.17887035418244
C           -4.96719227296470        2.52322895701476       -0.27929739695404
C           -4.44625925173698        1.24596523237741       -0.11502750104611
H           -6.72936778176387       -0.79735390935832       -1.68439298261652
H           -6.57747498846027        0.95366664173903       -1.77998105916644
H           -5.26905364445043       -0.07664810488567       -2.36238386019828
H           -7.14784473826233       -0.64706409729586        0.85740395148837
H           -7.01630519729202        1.10683175335355        0.77180323277021
H           -5.98157033119758        0.19937877185239        1.87527160720558
H           -6.40391951020223       -2.43522086571573       -0.23272337073422
H           -5.28970412178165       -4.59190508837383        0.01596149633625
H           -2.82923987895192       -4.66967614786602        0.33703803402471
H           -1.55275797261333       -2.59415010106753        0.45070059125861
H           -1.53771227627226       -0.92032445814775        2.63546492039121
H            0.85561469803449       -1.07271949531676        3.27933840535315
H            5.11278163829911       -1.65361940887290        2.60155904049422
H            7.49804852795084       -1.32303915154808        3.28585075107873
H            8.76671723105534        0.57638504855712        2.27450204990078
H            7.57911999675009        2.06270180723321        0.65514398895901
H            3.45863131243275        1.73211084191072       -2.67434707067780
H            5.24939226733466        1.78351545254140       -4.42293741671737
H            7.15467389255344        0.18072620067158       -4.21280753137206
H            7.15750870122378       -1.40615656582216       -2.28337960658785
H           -0.43475308344231        0.38180950913059       -1.29302880747131
H           -1.24681551207647        2.17494631824397        0.52210166921544
H           -2.20705186111769        4.39238301683871        0.21649804866064
H           -4.62053192063089        4.63445649352299       -0.31589095161391
H           -6.01903197452773        2.64272228940929       -0.48916324694551

          :  Hamiltonian                  GFN2-xTB          :
         :: gradient norm              0.000038270897 Eh/a0 ::
         :: HOMO-LUMO gap              1.092015267296 eV    ::
         :: SCC energy               -99.812397295696 Eh    ::
         :: -> dispersion             -0.086488475126 Eh    ::
         :: -> Gsolv                  -0.045469624866 Eh    ::
         :: repulsion energy           1.717038395700 Eh    ::

    * Orbital Energies and Occupations

         #    Occupation            Energy/Eh            Energy/eV
      -------------------------------------------------------------
         1        2.0000           -0.6916066             -18.8196
       ...           ...                  ...                  ...
        79        2.0000           -0.4321494             -11.7594
        80        2.0000           -0.4278881             -11.6434
        81        2.0000           -0.4174986             -11.3607
        82        2.0000           -0.4133742             -11.2485
        83        2.0000           -0.4088878             -11.1264
        84        2.0000           -0.4085979             -11.1185
        85        2.0000           -0.4057855             -11.0420
        86        2.0000           -0.3998017             -10.8792
        87        2.0000           -0.3943972             -10.7321
        88        2.0000           -0.3857007             -10.4954
        89        2.0000           -0.3831076             -10.4249
        90        2.0000           -0.3673258              -9.9954
        91        2.0000           -0.3506895              -9.5427 (HOMO)
        92                         -0.3105586              -8.4507 (LUMO)
        93                         -0.2832416              -7.7074
        94                         -0.2577916              -7.0149
        95                         -0.2574327              -7.0051
        96                         -0.2421896              -6.5903
        97                         -0.2377888              -6.4706
        98                         -0.2267978              -6.1715
        99                         -0.2261971              -6.1551
       100                         -0.2212974              -6.0218
       101                         -0.2201877              -5.9916
       102                         -0.1935771              -5.2675
       ...                                ...                  ...
       177                          0.6801795              18.5086
      -------------------------------------------------------------
                  HL-Gap            0.0401308 Eh            1.0920 eV

     #   Z          covCN         q      C6AA      α(0)
     1   6 C        3.761    -0.105    22.557     6.770
     2   6 C        3.909     0.021    20.164     6.383
     3   6 C        3.761    -0.105    22.552     6.770
     4   6 C        2.979    -0.012    28.301     8.726
     5   6 C        2.928    -0.037    28.912     8.818
     6   6 C        2.917    -0.044    29.099     8.846
     7   6 C        2.919    -0.034    28.848     8.808
     8   6 C        2.924    -0.059    29.464     8.902
     9   6 C        2.928     0.057    26.729     8.479
    10   7 N        2.753    -0.068    22.554     7.053
    11   6 C        2.923     0.074    26.344     8.417
    12   6 C        2.919    -0.036    28.900     8.816
    13   6 C        2.915    -0.042    29.048     8.838
    14   6 C        2.967     0.079    26.237     8.402
    15   7 N        1.848    -0.256    27.525     7.776
    16   6 C        2.959     0.105    25.674     8.311
    17   6 C        2.971     0.103    25.711     8.317
    18   6 C        2.918    -0.040    28.982     8.828
    19   6 C        2.928    -0.009    28.246     8.716
    20   6 C        2.914    -0.039    28.974     8.827
    21   6 C        2.909     0.064    26.569     8.452
    22   7 N        1.843    -0.259    27.588     7.784
    23   6 C        2.959     0.108    25.618     8.302
    24   6 C        2.971     0.103    25.710     8.317
    25   6 C        2.918    -0.039    28.976     8.827
    26   6 C        2.928    -0.009    28.244     8.716
    27   6 C        2.914    -0.039    28.968     8.826
    28   6 C        2.909     0.064    26.569     8.452
    29   7 N        1.843    -0.258    27.574     7.782
    30   7 N        1.849    -0.260    27.602     7.787
    31   6 C        2.967     0.082    26.165     8.390
    32   6 C        2.920    -0.054    29.348     8.884
    33   6 C        2.925     0.057    26.729     8.478
    34   6 C        2.924    -0.059    29.475     8.903
    35   6 C        2.920    -0.034    28.848     8.808
    36   6 C        2.917    -0.045    29.107     8.847
    37   6 C        2.928    -0.037    28.914     8.818
    38   6 C        2.979    -0.012    28.305     8.727
    39   1 H        0.925     0.044     2.396     2.421
    40   1 H        0.925     0.044     2.395     2.420
    41   1 H        0.925     0.031     2.571     2.507
    42   1 H        0.925     0.044     2.394     2.420
    43   1 H        0.925     0.044     2.397     2.421
    44   1 H        0.925     0.031     2.566     2.505
    45   1 H        0.926     0.038     2.482     2.464
    46   1 H        0.926     0.030     2.584     2.514
    47   1 H        0.926     0.029     2.595     2.519
    48   1 H        0.926     0.021     2.713     2.576
    49   1 H        0.926     0.064     2.157     2.297
    50   1 H        0.926     0.066     2.127     2.281
    51   1 H        0.926     0.052     2.301     2.372
    52   1 H        0.926     0.056     2.243     2.342
    53   1 H        0.926     0.055     2.264     2.353
    54   1 H        0.925     0.042     2.428     2.437
    55   1 H        0.926     0.051     2.301     2.372
    56   1 H        0.926     0.057     2.240     2.340
    57   1 H        0.926     0.055     2.259     2.350
    58   1 H        0.925     0.042     2.423     2.434
    59   1 H        0.926     0.063     2.164     2.300
    60   1 H        0.926     0.020     2.740     2.589
    61   1 H        0.926     0.028     2.608     2.525
    62   1 H        0.926     0.030     2.585     2.514
    63   1 H        0.926     0.038     2.480     2.462

molecular dipole:
                 x           y           z       tot (Debye)
 q only:       -0.115      -0.014      -0.025
   full:        0.238       0.004      -0.058       0.623

 projected vibrational frequencies (cm⁻¹)
eigval :       -0.00    -0.00    -0.00     0.00     0.00     0.00
eigval :       12.24    18.01    21.57    31.11    39.78    45.55
eigval :       55.01    63.28    74.97    78.90   101.64   107.27
eigval :      134.64   137.81   141.90   152.67   184.56   196.26
eigval :      216.09   220.89   225.76   237.55   264.24   282.14
eigval :      299.35   306.98   313.44   332.04   343.52   354.10
eigval :      368.14   373.17   375.88   382.23   396.92   410.10
eigval :      415.67   450.85   454.21   463.57   490.54   509.23
eigval :      515.36   539.45   545.52   547.75   554.80   567.01
eigval :      586.46   592.77   594.92   599.23   604.69   640.24
eigval :      654.94   683.37   686.24   690.81   694.86   710.66
eigval :      716.69   730.19   734.51   756.57   770.65   776.30
eigval :      778.96   782.98   820.44   829.57   840.97   854.84
eigval :      868.62   870.11   882.61   886.67   887.49   912.55
eigval :      912.60   913.79   914.62   915.63   921.00   921.51
eigval :      925.55   932.65   936.84   938.23   957.34   964.08
eigval :      987.13   998.13  1013.67  1027.77  1075.62  1079.53
eigval :     1087.79  1089.80  1107.40  1114.29  1118.08  1119.29
eigval :     1122.75  1140.13  1143.03  1158.45  1158.78  1159.12
eigval :     1161.56  1182.86  1187.55  1188.10  1210.76  1234.54
eigval :     1241.35  1242.55  1247.29  1251.60  1266.96  1268.43
eigval :     1284.43  1287.61  1291.00  1293.15  1294.94  1320.90
eigval :     1330.01  1330.91  1336.44  1376.53  1395.36  1399.25
eigval :     1403.40  1413.81  1417.92  1423.12  1434.17  1436.55
eigval :     1439.76  1453.61  1474.77  1478.01  1485.70  1487.22
eigval :     1492.36  1496.49  1501.88  1518.19  1532.90  1555.91
eigval :     1558.18  1572.82  1573.74  1576.15  1587.69  1589.97
eigval :     1593.38  1600.24  3022.35  3024.78  3041.36  3043.33
eigval :     3049.26  3049.63  3050.46  3053.62  3074.81  3075.39
eigval :     3078.35  3078.65  3082.12  3082.53  3090.10  3091.61
eigval :     3092.77  3097.50  3099.32  3099.73  3100.15  3100.81
eigval :     3104.23  3104.46  3104.99

   temp. (K)  partition function   enthalpy   heat capacity  entropy
                                   cal/mol     cal/K/mol   cal/K/mol   J/K/mol
 298.15  VIB  0.261E+14            17692.479    112.329    109.301
         ROT  0.416E+08              888.752      2.981     37.846
         INT  0.109E+22            18581.232    115.310    147.146
         TR   0.105E+29             1481.254      4.968     44.445
         TOT                       20062.4858   120.2782   191.5910   801.6169

       T/K    H(0)-H(T)+PV         H(T)/Eh          T*S/Eh         G(T)/Eh
   ------------------------------------------------------------------------
    298.15    0.319716E-01    0.517819E+00    0.910311E-01    0.426788E+00
   ------------------------------------------------------------------------

         :::::::::::::::::::::::::::::::::::::::::::::::::::::
         ::                  THERMODYNAMIC                  ::
         :::::::::::::::::::::::::::::::::::::::::::::::::::::
         :: total free energy         -97.668570623900 Eh   ::
         ::.................................................::
         :: total energy              -98.095358899300 Eh   ::
         :: zero point energy           0.485847756338 Eh   ::
         :: G(RRHO) w/o ZPVE           -0.059059480938 Eh   ::
         :: G(RRHO) contrib.            0.426788275400 Eh   ::
         :::::::::::::::::::::::::::::::::::::::::::::::::::::

           -------------------------------------------------
          | TOTAL ENERGY              -98.095358899300 Eh   |
          | TOTAL ENTHALPY            -97.577539536815 Eh   |
          | TOTAL FREE ENERGY         -97.668570623900 Eh   |
          | GRADIENT NORM               0.000038265868 Eh/α |
          | HOMO-LUMO GAP               1.092015798500 eV   |
           -------------------------------------------------

 * finished run on 2025/07/20 at 14:42:46.492
