   * xtb version 6.7.1 (edcfbbe) compiled by 'albert@albert-system' on 2024-07-22

   ID    Z sym.   atoms
    1    6 C      1-9, 11-14, 16-21, 23-28, 31-38
    2    7 N      10, 15, 22, 29, 30
    3    1 H      39-63

          program call               : xtb data2507/toluene/DPQ-DMAC/DPQ-DMAC_toluene_S0_finalOpt.xtbopt.xyz --gfn 2 --uhf 2 --gbsa toluene --ohess vtight --parallel 40 --molden --ceasefiles --namespace data2507/toluene/DPQ-DMAC/DPQ-DMAC_toluene_T1_preOpt
      * Solvation model:               GBSA
        Solvent                        toluene
        Solvent mass                       9.2140E+01 g/mol
          :  Hamiltonian                  GFN2-xTB          :
 * total energy  :   -98.0383592 Eh     change       -0.4636604E-08 Eh
 * total energy  :   -98.0411408 Eh     change       -0.2781548E-02 Eh
 * total energy  :   -98.0418659 Eh     change       -0.7251460E-03 Eh
 * total energy  :   -98.0419798 Eh     change       -0.1139023E-03 Eh
 * total energy  :   -98.0420577 Eh     change       -0.7789892E-04 Eh
 * total energy  :   -98.0420850 Eh     change       -0.2726493E-04 Eh
 * total energy  :   -98.0421176 Eh     change       -0.3263848E-04 Eh
 * total energy  :   -98.0421596 Eh     change       -0.4201370E-04 Eh
 * total energy  :   -98.0422005 Eh     change       -0.4090572E-04 Eh
 * total energy  :   -98.0422293 Eh     change       -0.2872597E-04 Eh
 * total energy  :   -98.0423849 Eh     change       -0.8700976E-05 Eh
 * total energy  :   -98.0423911 Eh     change       -0.6230149E-05 Eh
 * total energy  :   -98.0423954 Eh     change       -0.4271785E-05 Eh
 * total energy  :   -98.0423982 Eh     change       -0.2828681E-05 Eh
 * total energy  :   -98.0424001 Eh     change       -0.1883741E-05 Eh
 * total energy  :   -98.0424017 Eh     change       -0.1585307E-05 Eh
 * total energy  :   -98.0424025 Eh     change       -0.8053159E-06 Eh
 * total energy  :   -98.0424028 Eh     change       -0.2918577E-06 Eh
 * total energy  :   -98.0424028 Eh     change       -0.6513119E-08 Eh
   *** GEOMETRY OPTIMIZATION CONVERGED AFTER 44 ITERATIONS ***

 final structure:
================
63
 xtb: 6.7.1 (edcfbbe)
C           -6.34838024922064        1.22196924817128       -1.42256125994803
C           -5.81216126417145        0.37291947689268       -0.25318764924586
C           -6.98223810102400       -0.15780039714400        0.59814318875428
C           -5.04966703553798       -0.80581607489208       -0.82210824232504
C           -5.70053194525603       -1.71141518138258       -1.64915008268765
C           -5.04789875264158       -2.79624400932084       -2.20567861400246
C           -3.70123189764607       -2.99161435385412       -1.94105048309568
C           -3.02963166546082       -2.11143969127427       -1.12206821203189
C           -3.68990476094124       -1.01636342158487       -0.54803989868894
N           -2.99069941188375       -0.15502118226522        0.27347095150783
C           -1.61550477951809       -0.42075054145108        0.54093337278823
C           -1.26921225325443       -1.31498491231119        1.54347232642931
C            0.06668728182069       -1.57842395473016        1.80788840816011
C            1.07613017607271       -0.95511663402236        1.07695711992316
N            2.37554936983949       -1.15602925010236        1.34497499557256
C            3.31672738617103       -0.55080978765494        0.63281069688575
C            4.70845091234309       -0.68846508255770        1.05549786367697
C            5.19094871021934       -1.92308219462552        1.49859805953134
C            6.50630570516621       -2.00932715186204        1.91072908973430
C            7.29678656307749       -0.86769340176760        1.88314350404095
C            6.71537301706265        0.31621218057271        1.45474341811248
N            5.46149011319008        0.40913147108586        1.05606135882619
C            2.96420963289295        0.25697065845720       -0.46466286705655
C            3.97492228278518        0.77324179211399       -1.37726889044295
C            3.80315794360647        2.02215174969432       -1.98488443971898
C            4.77470800921018        2.47425711556375       -2.85455616334658
C            5.88099157587546        1.67169547906773       -3.10657973136828
C            5.94430298405998        0.43674601902168       -2.47881145152980
N            5.02315029138244       -0.00433942417432       -1.64470321065607
N            1.68412606013384        0.51785184861086       -0.71485206248536
C            0.71460700030238       -0.03873778525709        0.02554578640197
C           -0.63266201581731        0.21527006619713       -0.21519585444682
C           -3.58233449923481        0.95130860152771        0.84877611301522
C           -2.82320658640685        1.78536807770115        1.68104752059785
C           -3.38375744390290        2.89862609955178        2.26683166326046
C           -4.71686838357986        3.20110836102221        2.03662363470126
C           -5.47172137404269        2.37541747422444        1.22353482775388
C           -4.93480276602830        1.24639090484923        0.61964014336246
H           -6.99504236916267        0.63033365348044       -2.06367268426713
H           -6.91684062436657        2.07064127291802       -1.05399600692574
H           -5.51920963171115        1.59572362513508       -2.02061556409957
H           -7.64398303855694       -0.77695145066794       -0.00016244520584
H           -7.56218354903601        0.66255648412689        1.01027964112142
H           -6.60017651839628       -0.75770591043903        1.42211633898106
H           -6.74699485272704       -1.57091837084713       -1.87057425963938
H           -5.58416170405698       -3.48127427520286       -2.84432476237361
H           -3.17336781626478       -3.82839572467192       -2.37315317572274
H           -1.98055680163128       -2.26128079185017       -0.91972214778910
H           -2.04261824412500       -1.80172656436838        2.11764513933614
H            0.34974378887219       -2.25991535258270        2.59433253782830
H            4.53268975908043       -2.77763148197872        1.50543394413679
H            6.91246973957381       -2.95149249125001        2.24958590499210
H            8.32976359275002       -0.89269096686545        2.19171866823599
H            7.27532206415641        1.24290038587536        1.43149645706843
H            2.92215479336663        2.60170446569590       -1.75800372892983
H            4.67563717987720        3.43875078045381       -3.33154080495782
H            6.66506656785806        1.98973117121241       -3.77503945984837
H            6.77023753270931       -0.24191260640747       -2.65264811236404
H           -0.90341371084793        0.89795232113990       -1.00521555979496
H           -1.78671643121195        1.54808380368702        1.86352076676546
H           -2.78075258487709        3.52839056407296        2.90353052514964
H           -5.16537891980614        4.07195477681345        2.48966130490583
H           -6.50897936572524        2.62246051955416        1.05941127368733

          :  Hamiltonian                  GFN2-xTB          :
         :: gradient norm              0.000052005327 Eh/a0 ::
         :: HOMO-LUMO gap              0.694684234369 eV    ::
         :: SCC energy               -99.758012442618 Eh    ::
         :: -> dispersion             -0.086227835182 Eh    ::
         :: -> Gsolv                  -0.048368137478 Eh    ::
         :: repulsion energy           1.715609635499 Eh    ::

    * Orbital Energies and Occupations

         #    Occupation            Energy/Eh            Energy/eV
      -------------------------------------------------------------
         1        2.0000           -0.6800393             -18.5048
       ...           ...                  ...                  ...
        80        2.0000           -0.4238601             -11.5338
        81        2.0000           -0.4194324             -11.4133
        82        2.0000           -0.4153438             -11.3021
        83        2.0000           -0.4146462             -11.2831
        84        2.0000           -0.4088769             -11.1261
        85        2.0000           -0.4030743             -10.9682
        86        2.0000           -0.4015325             -10.9263
        87        2.0000           -0.3979338             -10.8283
        88        2.0000           -0.3794862             -10.3263
        89        2.0000           -0.3767734             -10.2525
        90        1.7344           -0.3589580              -9.7677
        91        1.2656           -0.3570251              -9.7151
        92        1.0000           -0.2999461              -8.1619 (HOMO)
        93        0.0000           -0.2744170              -7.4673 (LUMO)
        94                         -0.2515548              -6.8452
        95                         -0.2495688              -6.7911
        96                         -0.2368013              -6.4437
        97                         -0.2342645              -6.3747
        98                         -0.2294427              -6.2435
        99                         -0.2287689              -6.2251
       100                         -0.2252723              -6.1300
       101                         -0.2092530              -5.6941
       102                         -0.2017301              -5.4894
       103                         -0.1641850              -4.4677
       ...                                ...                  ...
       177                          0.6811892              18.5361
      -------------------------------------------------------------
                  HL-Gap            0.0255291 Eh            0.6947 eV

     #   Z          covCN         q      C6AA      α(0)
     1   6 C        3.761    -0.107    22.594     6.776
     2   6 C        3.909     0.023    20.130     6.377
     3   6 C        3.761    -0.107    22.595     6.776
     4   6 C        2.978    -0.005    28.144     8.702
     5   6 C        2.926    -0.034    28.849     8.808
     6   6 C        2.917    -0.036    28.893     8.814
     7   6 C        2.918    -0.030    28.743     8.792
     8   6 C        2.923    -0.051    29.264     8.871
     9   6 C        2.929     0.060    26.645     8.465
    10   7 N        2.755    -0.036    21.929     6.955
    11   6 C        2.925     0.053    26.822     8.493
    12   6 C        2.916    -0.050    29.230     8.866
    13   6 C        2.918    -0.065    29.610     8.923
    14   6 C        2.943     0.084    26.118     8.382
    15   7 N        1.850    -0.267    27.797     7.814
    16   6 C        2.940     0.096    25.878     8.343
    17   6 C        2.966     0.108    25.606     8.300
    18   6 C        2.919    -0.042    29.035     8.836
    19   6 C        2.927    -0.012    28.309     8.725
    20   6 C        2.914    -0.044    29.094     8.845
    21   6 C        2.905     0.064    26.576     8.453
    22   7 N        1.843    -0.254    27.452     7.765
    23   6 C        2.939     0.092    25.959     8.356
    24   6 C        2.965     0.105    25.680     8.312
    25   6 C        2.919    -0.042    29.050     8.839
    26   6 C        2.927    -0.012    28.326     8.728
    27   6 C        2.914    -0.045    29.123     8.849
    28   6 C        2.904     0.064    26.577     8.453
    29   7 N        1.843    -0.256    27.512     7.773
    30   7 N        1.850    -0.271    27.875     7.825
    31   6 C        2.942     0.088    26.036     8.369
    32   6 C        2.920    -0.074    29.849     8.959
    33   6 C        2.929     0.061    26.643     8.465
    34   6 C        2.923    -0.051    29.262     8.871
    35   6 C        2.918    -0.030    28.744     8.792
    36   6 C        2.917    -0.036    28.892     8.814
    37   6 C        2.926    -0.034    28.849     8.808
    38   6 C        2.978    -0.005    28.144     8.702
    39   1 H        0.925     0.050     2.322     2.383
    40   1 H        0.925     0.050     2.321     2.383
    41   1 H        0.925     0.035     2.519     2.482
    42   1 H        0.925     0.050     2.321     2.382
    43   1 H        0.925     0.050     2.322     2.383
    44   1 H        0.925     0.035     2.511     2.478
    45   1 H        0.926     0.047     2.356     2.400
    46   1 H        0.926     0.040     2.445     2.445
    47   1 H        0.926     0.038     2.482     2.464
    48   1 H        0.926     0.032     2.562     2.503
    49   1 H        0.926     0.046     2.371     2.408
    50   1 H        0.926     0.049     2.335     2.390
    51   1 H        0.926     0.045     2.378     2.412
    52   1 H        0.926     0.053     2.288     2.365
    53   1 H        0.926     0.051     2.313     2.378
    54   1 H        0.925     0.039     2.459     2.452
    55   1 H        0.926     0.047     2.364     2.404
    56   1 H        0.926     0.052     2.299     2.371
    57   1 H        0.926     0.049     2.328     2.386
    58   1 H        0.925     0.038     2.479     2.462
    59   1 H        0.926     0.047     2.357     2.401
    60   1 H        0.926     0.032     2.563     2.504
    61   1 H        0.926     0.037     2.483     2.464
    62   1 H        0.926     0.040     2.444     2.445
    63   1 H        0.926     0.047     2.356     2.400

molecular dipole:
                 x           y           z       tot (Debye)
 q only:       -2.411       0.226      -0.221
   full:       -2.051       0.208      -0.248       5.278

 projected vibrational frequencies (cm⁻¹)
eigval :       -0.00     0.00     0.00     0.00     0.00     0.00
eigval :       10.69    15.27    18.94    19.78    40.95    45.51
eigval :       51.59    60.40    78.33    82.33    93.78   101.50
eigval :      136.03   138.52   142.16   156.41   180.32   198.90
eigval :      213.06   219.11   222.99   234.91   257.06   276.94
eigval :      286.59   302.89   312.29   326.92   339.70   349.98
eigval :      369.98   372.66   378.66   382.42   391.01   410.37
eigval :      413.05   445.38   449.95   458.06   501.42   507.12
eigval :      511.08   535.18   539.25   543.50   545.59   555.18
eigval :      579.66   584.51   587.83   592.71   596.93   627.86
eigval :      643.45   654.14   682.72   687.09   690.19   700.12
eigval :      701.94   704.43   725.79   727.43   763.32   764.57
eigval :      773.34   775.46   790.98   802.51   825.19   833.91
eigval :      845.42   867.45   868.42   869.09   878.12   880.57
eigval :      912.39   912.93   913.77   914.33   914.45   919.61
eigval :      922.12   922.58   924.89   935.39   937.37   958.97
eigval :      981.20   991.83  1010.28  1013.23  1074.49  1082.46
eigval :     1086.50  1087.96  1105.48  1106.64  1112.39  1113.41
eigval :     1122.18  1129.09  1137.89  1150.24  1152.46  1155.48
eigval :     1159.09  1181.16  1182.61  1184.50  1208.98  1231.41
eigval :     1232.83  1239.11  1241.45  1242.76  1258.80  1265.03
eigval :     1271.04  1283.28  1288.10  1291.84  1291.94  1296.75
eigval :     1313.26  1317.98  1327.87  1333.19  1347.42  1379.49
eigval :     1397.45  1398.83  1406.83  1415.00  1415.92  1422.93
eigval :     1429.41  1433.18  1435.28  1457.01  1465.83  1481.70
eigval :     1482.04  1483.87  1492.48  1497.85  1514.43  1521.74
eigval :     1530.38  1538.68  1555.86  1561.97  1565.02  1570.15
eigval :     1578.94  1590.14  3027.04  3029.12  3045.41  3046.06
eigval :     3046.32  3048.33  3053.44  3057.14  3072.04  3073.05
eigval :     3081.04  3082.32  3088.09  3089.30  3090.53  3097.36
eigval :     3098.24  3098.60  3098.70  3099.22  3100.41  3100.99
eigval :     3101.75  3104.19  3104.93

   temp. (K)  partition function   enthalpy   heat capacity  entropy
                                   cal/mol     cal/K/mol   cal/K/mol   J/K/mol
 298.15  VIB  0.787E+14            17907.075    113.465    111.034
         ROT  0.418E+08              888.752      2.981     37.856
         INT  0.329E+22            18795.827    116.446    148.890
         TR   0.105E+29             1481.254      4.968     44.445
         TOT                       20277.0811   121.4141   193.3345   808.9114

       T/K    H(0)-H(T)+PV         H(T)/Eh          T*S/Eh         G(T)/Eh
   ------------------------------------------------------------------------
    298.15    0.323136E-01    0.515051E+00    0.918594E-01    0.423192E+00
   ------------------------------------------------------------------------

         :::::::::::::::::::::::::::::::::::::::::::::::::::::
         ::                  THERMODYNAMIC                  ::
         :::::::::::::::::::::::::::::::::::::::::::::::::::::
         :: total free energy         -97.619210999260 Eh   ::
         ::.................................................::
         :: total energy              -98.042402807236 Eh   ::
         :: zero point energy           0.482737659553 Eh   ::
         :: G(RRHO) w/o ZPVE           -0.059545851577 Eh   ::
         :: G(RRHO) contrib.            0.423191807976 Eh   ::
         :::::::::::::::::::::::::::::::::::::::::::::::::::::

           -------------------------------------------------
          | TOTAL ENERGY              -98.042402807236 Eh   |
          | TOTAL ENTHALPY            -97.527351562172 Eh   |
          | TOTAL FREE ENERGY         -97.619210999260 Eh   |
          | GRADIENT NORM               0.000052532838 Eh/α |
          | HOMO-LUMO GAP               0.694682084485 eV   |
           -------------------------------------------------

 * finished run on 2025/07/20 at 14:45:18.835
