   * xtb version 6.7.1 (edcfbbe) compiled by 'albert@albert-system' on 2024-07-22

   ID    Z sym.   atoms
    1    6 C      1-9, 11-14, 16-21, 23-28, 31-38
    2    7 N      10, 15, 22, 29, 30
    3    1 H      39-63

          program call               : xtb data2507/toluene/DPQ-DMAC/DPQ-DMAC_toluene_T1_crest.xyz --gfn 2 --uhf 2 --gbsa toluene --ohess vtight --parallel 40 --molden --ceasefiles --namespace data2507/toluene/DPQ-DMAC/DPQ-DMAC_toluene_T1_finalOpt
      * Solvation model:               GBSA
        Solvent                        toluene
        Solvent mass                       9.2140E+01 g/mol
          :  Hamiltonian                  GFN2-xTB          :
 * total energy  :   -98.0421200 Eh     change       -0.4044171E-07 Eh
 * total energy  :   -98.0422844 Eh     change       -0.1644679E-03 Eh
 * total energy  :   -98.0423694 Eh     change       -0.8502432E-04 Eh
 * total energy  :   -98.0423880 Eh     change       -0.1857911E-04 Eh
 * total energy  :   -98.0424136 Eh     change       -0.2561855E-04 Eh
 * total energy  :   -98.0424242 Eh     change       -0.1060739E-04 Eh
 * total energy  :   -98.0424417 Eh     change       -0.1742875E-04 Eh
 * total energy  :   -98.0424485 Eh     change       -0.6854364E-05 Eh
 * total energy  :   -98.0424513 Eh     change       -0.2755376E-05 Eh
 * total energy  :   -98.0424559 Eh     change       -0.4644419E-05 Eh
 * total energy  :   -98.0424910 Eh     change       -0.3113936E-06 Eh
 * total energy  :   -98.0424914 Eh     change       -0.4238713E-06 Eh
 * total energy  :   -98.0424919 Eh     change       -0.4568221E-06 Eh
 * total energy  :   -98.0424923 Eh     change       -0.4571113E-06 Eh
 * total energy  :   -98.0424927 Eh     change       -0.3696259E-06 Eh
 * total energy  :   -98.0424930 Eh     change       -0.2357189E-06 Eh
 * total energy  :   -98.0424931 Eh     change       -0.1476752E-06 Eh
 * total energy  :   -98.0424932 Eh     change       -0.1330697E-06 Eh
 * total energy  :   -98.0424932 Eh     change       -0.1235975E-08 Eh
   *** GEOMETRY OPTIMIZATION CONVERGED AFTER 44 ITERATIONS ***

 final structure:
================
63
 xtb: 6.7.1 (edcfbbe)
C           -6.36650861242337        1.22386814771506       -1.42372715258521
C           -5.81533738936098        0.33947268927777       -0.28809207478441
C           -6.97550933437960       -0.24039985674741        0.54463002689602
C           -5.03676940750133       -0.80597697701707       -0.90147006586777
C           -5.67406786953584       -1.68510071725781       -1.76678821305948
C           -5.00704266139901       -2.73971204520506       -2.36292431215306
C           -3.65907629033701       -2.92962100748696       -2.10117410174384
C           -3.00086795812632       -2.07531594002704       -1.24473926419572
C           -3.67617798908600       -1.01260017727884       -0.62906231486920
N           -2.99058133580145       -0.17919535287026        0.23247102928489
C           -1.61855267778577       -0.44983129068468        0.50702495136336
C           -1.27937906610237       -1.38976701139606        1.47236553398471
C            0.04754253225655       -1.66448169327503        1.74508856007480
C            1.07431713064329       -1.00192843635197        1.05997932388692
N            2.35939667050424       -1.22498841856112        1.32431765966147
C            3.32387895540611       -0.57419756476801        0.65730727610115
C            4.70107216089719       -0.76779428386395        1.03748172188780
C            5.07156477215929       -1.88234220717761        1.81001283618533
C            6.39440441091499       -2.04172560781682        2.15526567672636
C            7.32394830333338       -1.09131830038260        1.73913036759338
C            6.86070523927753       -0.01260833889498        1.00223683249660
N            5.59718888311775        0.15080323207614        0.66532536614536
C            2.96141115682058        0.31241788643630       -0.37659164741841
C            3.99062340836467        0.92995957682107       -1.23663336712922
C            4.17107024310172        2.31217099521624       -1.24586497118420
C            5.11269901909412        2.84479934550188       -2.10709897554822
C            5.82575873831891        1.99007316238555       -2.93564536242169
C            5.54927751558078        0.63378306553531       -2.86744783985880
N            4.65576092859019        0.11447818555219       -2.04438683099006
N            1.70186851668424        0.57780970735800       -0.63611250809824
C            0.71458748329213       -0.03474681473493        0.05522490776456
C           -0.62323414171483        0.22503810383280       -0.20030827721261
C           -3.59558244666542        0.90132285583357        0.84265219049785
C           -2.84877062299364        1.71333244497281        1.70721165239894
C           -3.42226022540872        2.80158458369344        2.32657538590232
C           -4.75695812717751        3.09940669120711        2.09996151620606
C           -5.50017697571496        2.29417589738396        1.25621379001176
C           -4.94948998036122        1.19182034281524        0.61657052274308
H           -7.00555325361050        0.64743363132666       -2.08593374088683
H           -6.94717034253072        2.04929719458128       -1.02291020094163
H           -5.54420326641053        1.63247238016155       -2.00827311921278
H           -7.62926862283362       -0.84650009004800       -0.07549967630496
H           -7.56633023899869        0.55533312001024        0.98849210154732
H           -6.58282041889231       -0.86513093152010        1.34486164846307
H           -6.72137818895065       -1.54802240391773       -1.98639197399313
H           -5.53312615709602       -3.40538226523113       -3.02990746621652
H           -3.11968629994352       -3.74208345912465       -2.56435089312166
H           -1.95064270462875       -2.22077579582927       -1.04519144957711
H           -2.06084195958143       -1.90555962907119        2.00985795586123
H            0.31994539797167       -2.38549103072832        2.49923912666900
H            4.30731266449540       -2.58375135340056        2.10589956575323
H            6.70822833527272       -2.89370381364294        2.74120940217197
H            8.36938251991182       -1.18185549365647        1.98624686864662
H            7.53097771820462        0.76919759580477        0.66629111640039
H            3.58726267833352        2.93728139240695       -0.58817267462047
H            5.28698825391113        3.91073788636593       -2.13446257615354
H            6.57238367151398        2.36488913017144       -3.61776974245227
H            6.06149945561154       -0.07974531924286       -3.50042281905598
H           -0.88169396391625        0.94710761432308       -0.95898193593778
H           -1.81125072718231        1.47904558361828        1.88784347075617
H           -2.82817694440547        3.41528275646843        2.98696517050286
H           -5.21616513926075        3.95003555994561        2.57992269594722
H           -6.53929287996600        2.53622467181526        1.09648223376479

          :  Hamiltonian                  GFN2-xTB          :
         :: gradient norm              0.000024855329 Eh/a0 ::
         :: HOMO-LUMO gap              0.859737995035 eV    ::
         :: SCC energy               -99.758504601897 Eh    ::
         :: -> dispersion             -0.086216785602 Eh    ::
         :: -> Gsolv                  -0.048208342538 Eh    ::
         :: repulsion energy           1.716011367750 Eh    ::

    * Orbital Energies and Occupations

         #    Occupation            Energy/Eh            Energy/eV
      -------------------------------------------------------------
         1        2.0000           -0.6797070             -18.4958
       ...           ...                  ...                  ...
        80        2.0000           -0.4221622             -11.4876
        81        2.0000           -0.4191775             -11.4064
        82        2.0000           -0.4151775             -11.2976
        83        2.0000           -0.4144430             -11.2776
        84        2.0000           -0.4087831             -11.1236
        85        2.0000           -0.4064988             -11.0614
        86        2.0000           -0.4027915             -10.9605
        87        2.0000           -0.3955830             -10.7644
        88        2.0000           -0.3802185             -10.3463
        89        2.0000           -0.3759637             -10.2305
        90        1.7474           -0.3587647              -9.7625
        91        1.2526           -0.3567040              -9.7064
        92        1.0000           -0.3011943              -8.1959 (HOMO)
        93                         -0.2695996              -7.3362 (LUMO)
        94                         -0.2538045              -6.9064
        95                         -0.2485672              -6.7639
        96                         -0.2382885              -6.4842
        97                         -0.2364798              -6.4349
        98                         -0.2292309              -6.2377
        99                         -0.2284178              -6.2156
       100                         -0.2255121              -6.1365
       101                         -0.2096900              -5.7060
       102                         -0.2015111              -5.4834
       103                         -0.1641309              -4.4662
       ...                                ...                  ...
       177                          0.6814066              18.5420
      -------------------------------------------------------------
                  HL-Gap            0.0315947 Eh            0.8597 eV

     #   Z          covCN         q      C6AA      α(0)
     1   6 C        3.761    -0.107    22.595     6.776
     2   6 C        3.909     0.023    20.130     6.377
     3   6 C        3.761    -0.107    22.591     6.776
     4   6 C        2.978    -0.005    28.147     8.703
     5   6 C        2.926    -0.034    28.851     8.809
     6   6 C        2.917    -0.036    28.895     8.815
     7   6 C        2.918    -0.030    28.744     8.792
     8   6 C        2.923    -0.051    29.266     8.872
     9   6 C        2.929     0.060    26.651     8.466
    10   7 N        2.755    -0.036    21.931     6.955
    11   6 C        2.925     0.049    26.909     8.507
    12   6 C        2.916    -0.045    29.119     8.849
    13   6 C        2.918    -0.066    29.653     8.930
    14   6 C        2.939     0.088    26.033     8.368
    15   7 N        1.849    -0.269    27.846     7.821
    16   6 C        2.938     0.076    26.306     8.412
    17   6 C        2.960     0.092    25.944     8.355
    18   6 C        2.919    -0.044    29.100     8.846
    19   6 C        2.925    -0.014    28.373     8.735
    20   6 C        2.914    -0.049    29.225     8.865
    21   6 C        2.899     0.063    26.578     8.453
    22   7 N        1.843    -0.264    27.700     7.800
    23   6 C        2.942     0.109    25.584     8.296
    24   6 C        2.970     0.119    25.373     8.263
    25   6 C        2.918    -0.039    28.981     8.828
    26   6 C        2.929    -0.010    28.259     8.718
    27   6 C        2.914    -0.042    29.034     8.836
    28   6 C        2.909     0.064    26.576     8.453
    29   7 N        1.843    -0.246    27.260     7.738
    30   7 N        1.849    -0.262    27.657     7.794
    31   6 C        2.947     0.083    26.148     8.387
    32   6 C        2.919    -0.069    29.721     8.940
    33   6 C        2.929     0.060    26.649     8.466
    34   6 C        2.923    -0.051    29.268     8.872
    35   6 C        2.918    -0.030    28.747     8.792
    36   6 C        2.917    -0.036    28.898     8.815
    37   6 C        2.926    -0.034    28.850     8.809
    38   6 C        2.978    -0.005    28.146     8.702
    39   1 H        0.925     0.050     2.324     2.384
    40   1 H        0.925     0.050     2.323     2.384
    41   1 H        0.925     0.035     2.519     2.482
    42   1 H        0.925     0.050     2.323     2.383
    43   1 H        0.925     0.050     2.324     2.384
    44   1 H        0.925     0.035     2.513     2.479
    45   1 H        0.926     0.047     2.360     2.402
    46   1 H        0.926     0.040     2.448     2.447
    47   1 H        0.926     0.038     2.482     2.464
    48   1 H        0.926     0.032     2.561     2.502
    49   1 H        0.926     0.047     2.354     2.399
    50   1 H        0.926     0.049     2.335     2.390
    51   1 H        0.926     0.048     2.345     2.395
    52   1 H        0.926     0.048     2.344     2.394
    53   1 H        0.926     0.045     2.381     2.413
    54   1 H        0.925     0.034     2.534     2.490
    55   1 H        0.926     0.041     2.437     2.441
    56   1 H        0.926     0.055     2.256     2.349
    57   1 H        0.926     0.054     2.271     2.356
    58   1 H        0.925     0.044     2.395     2.420
    59   1 H        0.926     0.049     2.332     2.388
    60   1 H        0.926     0.031     2.568     2.506
    61   1 H        0.926     0.037     2.489     2.467
    62   1 H        0.926     0.040     2.449     2.447
    63   1 H        0.926     0.047     2.359     2.402

molecular dipole:
                 x           y           z       tot (Debye)
 q only:       -2.453       0.497      -0.216
   full:       -2.042       0.549      -0.025       5.375

 projected vibrational frequencies (cm⁻¹)
eigval :       -0.00     0.00     0.00     0.00     0.00     0.00
eigval :      -11.49     5.44    16.33    19.68    44.36    50.78
eigval :       52.71    59.85    74.43    81.91    92.74   102.23
eigval :      132.78   134.67   138.68   160.81   178.66   196.72
eigval :      207.66   217.10   218.21   234.28   247.22   287.50
eigval :      292.72   303.90   315.82   327.28   339.62   347.76
eigval :      367.54   371.96   377.76   382.64   394.87   410.24
eigval :      414.31   445.01   447.05   449.95   500.98   506.66
eigval :      507.24   534.79   538.55   543.23   545.34   557.96
eigval :      579.31   584.47   587.05   591.86   595.87   627.59
eigval :      648.74   654.31   682.73   686.96   690.74   693.75
eigval :      699.85   706.08   725.46   726.41   756.04   764.46
eigval :      773.09   775.84   790.02   809.26   824.91   834.64
eigval :      846.12   867.62   868.01   868.84   876.06   882.39
eigval :      902.69   912.31   914.02   914.22   915.32   920.22
eigval :      922.47   925.15   927.45   936.24   937.06   958.76
eigval :      979.06   989.31  1010.99  1012.55  1074.20  1082.10
eigval :     1083.11  1089.42  1105.61  1106.60  1112.59  1115.77
eigval :     1125.87  1129.61  1137.16  1150.36  1151.63  1157.69
eigval :     1159.62  1180.13  1182.12  1183.88  1211.45  1225.72
eigval :     1234.70  1236.76  1239.65  1243.20  1258.07  1260.65
eigval :     1272.93  1279.75  1291.01  1291.92  1298.32  1307.08
eigval :     1317.36  1327.58  1333.02  1334.26  1350.66  1381.35
eigval :     1397.69  1398.37  1408.35  1416.08  1417.14  1422.87
eigval :     1429.48  1435.27  1439.88  1457.10  1466.62  1480.08
eigval :     1482.14  1484.15  1492.59  1498.08  1511.72  1515.35
eigval :     1530.54  1549.94  1556.09  1563.03  1568.83  1570.22
eigval :     1579.10  1590.05  3026.07  3028.07  3041.94  3046.72
eigval :     3048.86  3051.02  3053.87  3057.79  3070.69  3073.29
eigval :     3081.06  3081.76  3087.97  3088.35  3089.14  3093.62
eigval :     3097.82  3098.22  3098.46  3098.68  3098.99  3101.34
eigval :     3101.93  3103.97  3104.71

   temp. (K)  partition function   enthalpy   heat capacity  entropy
                                   cal/mol     cal/K/mol   cal/K/mol   J/K/mol
 298.15  VIB  0.222E+15            17941.907    113.648    112.406
         ROT  0.420E+08              888.752      2.981     37.862
         INT  0.930E+22            18830.659    116.629    150.268
         TR   0.105E+29             1481.254      4.968     44.445
         TOT                       20311.9129   121.5972   194.7123   814.6763

       T/K    H(0)-H(T)+PV         H(T)/Eh          T*S/Eh         G(T)/Eh
   ------------------------------------------------------------------------
    298.15    0.323691E-01    0.515098E+00    0.925141E-01    0.422584E+00
   ------------------------------------------------------------------------

         :::::::::::::::::::::::::::::::::::::::::::::::::::::
         ::                  THERMODYNAMIC                  ::
         :::::::::::::::::::::::::::::::::::::::::::::::::::::
         :: total free energy         -97.619908913941 Eh   ::
         ::.................................................::
         :: total energy              -98.042493237166 Eh   ::
         :: zero point energy           0.482729331295 Eh   ::
         :: G(RRHO) w/o ZPVE           -0.060145008070 Eh   ::
         :: G(RRHO) contrib.            0.422584323225 Eh   ::
         :::::::::::::::::::::::::::::::::::::::::::::::::::::

           -------------------------------------------------
          | TOTAL ENERGY              -98.042493237166 Eh   |
          | TOTAL ENTHALPY            -97.527394812300 Eh   |
          | TOTAL FREE ENERGY         -97.619908913941 Eh   |
          | GRADIENT NORM               0.000025912452 Eh/α |
          | HOMO-LUMO GAP               0.859736629848 eV   |
           -------------------------------------------------

 * finished run on 2025/07/20 at 14:49:12.949
