   * xtb version 6.7.1 (edcfbbe) compiled by 'albert@albert-system' on 2024-07-22

   ID    Z sym.   atoms
    1    6 C      1-13, 15-21, 23-28
    2    7 N      14
    3    8 O      22
    4    1 H      29-47

          program call               : xtb data2507/toluene/BACQ/BACQ_toluene_T1_crest.xyz --gfn 2 --uhf 2 --gbsa toluene --ohess vtight --parallel 40 --molden --ceasefiles --namespace data2507/toluene/BACQ/BACQ_toluene_T1_finalOpt
      * Solvation model:               GBSA
        Solvent                        toluene
        Solvent mass                       9.2140E+01 g/mol
          :  Hamiltonian                  GFN2-xTB          :
 * total energy  :   -72.3475283 Eh     change       -0.1559499E-09 Eh
 * total energy  :   -72.3476627 Eh     change       -0.1343994E-03 Eh
 * total energy  :   -72.3476988 Eh     change       -0.3606638E-04 Eh
 * total energy  :   -72.3477036 Eh     change       -0.4860778E-05 Eh
 * total energy  :   -72.3477061 Eh     change       -0.2499904E-05 Eh
 * total energy  :   -72.3477071 Eh     change       -0.1007578E-05 Eh
 * total energy  :   -72.3477080 Eh     change       -0.8369178E-06 Eh
 * total energy  :   -72.3477083 Eh     change       -0.3249324E-06 Eh
 * total energy  :   -72.3477086 Eh     change       -0.2754392E-06 Eh
 * total energy  :   -72.3477087 Eh     change       -0.1084223E-06 Eh
 * total energy  :   -72.3477088 Eh     change       -0.7685435E-07 Eh
   *** GEOMETRY OPTIMIZATION CONVERGED AFTER 11 ITERATIONS ***

 final structure:
================
47
 xtb: 6.7.1 (edcfbbe)
C            2.05627680107052       -2.76606612678424       -0.39819993111924
C            1.19032976752785       -1.75593481263791        0.39736083031145
C            1.33222812038548       -1.94753679723548        1.92867765625398
C            1.56066423739228       -0.33828329440520        0.02040330707502
C            0.53105987458833        0.59036176990871       -0.28861592786987
C            0.83819460758912        1.82529967878029       -0.89860218940709
C            2.12864346006762        2.19932874979474       -1.09190065006737
C            3.19297044826783        1.40118681047144       -0.58878932947285
C            4.51073558402745        1.85377025707589       -0.68012795317725
C            5.56246446985351        1.10476120397221       -0.18491568616168
C            5.29499098813296       -0.11567346514662        0.42372259614074
C            4.00668429142467       -0.59562210706509        0.50938432891177
C            2.90194265813250        0.12705229732041       -0.01075717802039
N           -0.78196841087255        0.28238873408186       -0.03228384406728
C           -1.72082191355687        1.27746487156255        0.23179815113301
C           -1.34186868087446        2.47775214364354        0.83078529455642
C           -2.26788750515045        3.48507537667551        1.04002150220269
C           -3.59251521865883        3.30426685221654        0.64710105367079
C           -3.99647670713395        2.09679033656103        0.12315169865832
C           -3.08642859594553        1.04395058559952       -0.05940227513627
C           -3.54355319539844       -0.26790250838516       -0.46279863417578
O           -4.72666236784748       -0.49159080705310       -0.83108340571913
C           -2.56595195812357       -1.32706925026616       -0.30325502247015
C           -2.95604074051591       -2.66617971894109       -0.39102897164235
C           -2.03753402419262       -3.67808034828504       -0.20299060330075
C           -0.70660496587997       -3.37979370564210        0.04892454693468
C           -0.26369745112268       -2.05832914931722        0.09587539000865
C           -1.19990095074691       -1.03786988857695       -0.06164514049494
H            1.52015386105284       -3.08318044900948       -1.29013175590205
H            2.28032869651144       -3.64286514564734        0.20258631930766
H            2.98957791968673       -2.32364725176510       -0.72640646644152
H            2.33847166074153       -1.73768731154868        2.27311588136749
H            0.65072495911307       -1.27243183032638        2.44395980255490
H            1.06930437589389       -2.96715193445969        2.19805665540895
H            0.02659182230956        2.44273490852011       -1.25255290618440
H            2.36408587994536        3.11582897447931       -1.61029298575616
H            4.69712050103741        2.81268044299737       -1.14168711134817
H            6.57574098968961        1.47008158840365       -0.25736343406037
H            6.10484794532500       -0.69670676396215        0.84028670402718
H            3.85662212197303       -1.53398864340314        1.01222490060722
H           -0.31969281136198        2.61421052346001        1.15106238035242
H           -1.95894991029375        4.40704444272172        1.50671997376166
H           -4.30808295452885        4.10226939969252        0.77785418054907
H           -5.02531252082544        1.91367287621285       -0.14978259893227
H           -3.99616829368715       -2.87088133247849       -0.59655964099754
H           -2.35627770447421       -4.70884838439880       -0.24718512512810
H           -0.01017317984802       -4.18627757251119        0.20516828975883

          :  Hamiltonian                  GFN2-xTB          :
         :: gradient norm              0.000085227952 Eh/a0 ::
         :: HOMO-LUMO gap              0.370377947371 eV    ::
         :: SCC energy               -73.606275101024 Eh    ::
         :: -> dispersion             -0.065299988049 Eh    ::
         :: -> Gsolv                  -0.038948401031 Eh    ::
         :: repulsion energy           1.258566341715 Eh    ::

    * Orbital Energies and Occupations

         #    Occupation            Energy/Eh            Energy/eV
      -------------------------------------------------------------
         1        2.0000           -0.6956967             -18.9309
       ...           ...                  ...                  ...
        56        2.0000           -0.4353292             -11.8459
        57        2.0000           -0.4342770             -11.8173
        58        2.0000           -0.4278904             -11.6435
        59        2.0000           -0.4229891             -11.5101
        60        2.0000           -0.4179671             -11.3735
        61        2.0000           -0.4146640             -11.2836
        62        2.0000           -0.4122373             -11.2175
        63        2.0000           -0.4080801             -11.1044
        64        2.0000           -0.4054869             -11.0339
        65        2.0000           -0.3900714             -10.6144
        66        1.9570           -0.3715341             -10.1100
        67        1.0430           -0.3656404              -9.9496
        68        0.9992           -0.2831251              -7.7042 (HOMO)
        69        0.0008           -0.2695141              -7.3339 (LUMO)
        70                         -0.2429347              -6.6106
        71                         -0.2390999              -6.5062
        72                         -0.2313527              -6.2954
        73                         -0.2143943              -5.8340
        74                         -0.2011168              -5.4727
        75                         -0.1720841              -4.6826
        76                         -0.1559648              -4.2440
        77                         -0.1086972              -2.9578
        78                         -0.0760075              -2.0683
        79                         -0.0676914              -1.8420
       ...                                ...                  ...
       131                          0.6961076              18.9421
      -------------------------------------------------------------
                  HL-Gap            0.0136109 Eh            0.3704 eV

     #   Z          covCN         q      C6AA      α(0)
     1   6 C        3.758    -0.115    22.762     6.802
     2   6 C        3.905     0.027    20.060     6.366
     3   6 C        3.763    -0.103    22.520     6.764
     4   6 C        2.968    -0.008    28.226     8.715
     5   6 C        2.932     0.051    26.865     8.500
     6   6 C        2.914    -0.045    29.109     8.847
     7   6 C        2.918    -0.040    28.987     8.829
     8   6 C        2.986     0.014    27.701     8.633
     9   6 C        2.922    -0.035    28.877     8.812
    10   6 C        2.914    -0.027    28.665     8.780
    11   6 C        2.914    -0.030    28.760     8.794
    12   6 C        2.918    -0.040    28.999     8.831
    13   6 C        2.975     0.013    27.709     8.635
    14   7 N        2.758     0.017    20.960     6.800
    15   6 C        2.933     0.046    26.969     8.517
    16   6 C        2.918    -0.041    29.012     8.833
    17   6 C        2.917    -0.040    29.003     8.831
    18   6 C        2.914    -0.026    28.655     8.778
    19   6 C        2.921    -0.029    28.722     8.789
    20   6 C        2.978    -0.028    28.692     8.786
    21   6 C        2.834     0.177    24.195     8.061
    22   8 O        0.857    -0.533    24.527     6.640
    23   6 C        2.977    -0.030    28.738     8.793
    24   6 C        2.922    -0.029    28.723     8.789
    25   6 C        2.913    -0.028    28.712     8.787
    26   6 C        2.923    -0.046    29.142     8.853
    27   6 C        2.983     0.001    28.002     8.680
    28   6 C        2.945     0.042    27.062     8.532
    29   1 H        0.925     0.045     2.386     2.416
    30   1 H        0.925     0.055     2.261     2.351
    31   1 H        0.925     0.059     2.206     2.323
    32   1 H        0.925     0.060     2.203     2.321
    33   1 H        0.925     0.037     2.496     2.471
    34   1 H        0.925     0.053     2.284     2.363
    35   1 H        0.926     0.044     2.392     2.418
    36   1 H        0.926     0.045     2.381     2.413
    37   1 H        0.926     0.038     2.475     2.460
    38   1 H        0.926     0.037     2.489     2.467
    39   1 H        0.926     0.038     2.472     2.459
    40   1 H        0.926     0.058     2.219     2.329
    41   1 H        0.926     0.050     2.324     2.384
    42   1 H        0.926     0.044     2.391     2.418
    43   1 H        0.926     0.042     2.426     2.436
    44   1 H        0.926     0.041     2.435     2.440
    45   1 H        0.926     0.042     2.427     2.436
    46   1 H        0.926     0.043     2.403     2.424
    47   1 H        0.926     0.056     2.249     2.345

molecular dipole:
                 x           y           z       tot (Debye)
 q only:        4.283       0.021       0.942
   full:        4.182       0.132       0.942      10.901

 projected vibrational frequencies (cm⁻¹)
eigval :       -0.00    -0.00    -0.00     0.00     0.00     0.00
eigval :       38.80    43.85    65.30    82.62    99.79   123.27
eigval :      143.45   149.90   158.81   167.93   195.06   200.46
eigval :      243.54   256.17   272.80   288.61   295.17   303.28
eigval :      321.31   343.55   355.42   377.04   381.64   407.56
eigval :      414.77   427.21   457.57   468.56   479.18   492.78
eigval :      505.27   525.07   534.68   550.00   563.58   567.19
eigval :      597.76   617.44   623.78   631.38   642.45   680.16
eigval :      698.78   703.97   716.81   729.10   755.40   762.05
eigval :      786.40   794.15   819.59   834.69   846.31   858.03
eigval :      862.62   877.11   893.96   897.96   899.10   911.08
eigval :      913.10   919.33   920.47   924.15   959.72   970.37
eigval :      991.77  1017.75  1046.20  1082.02  1096.68  1110.51
eigval :     1113.71  1119.88  1121.23  1143.01  1154.34  1168.51
eigval :     1181.75  1185.20  1192.02  1201.89  1216.54  1223.31
eigval :     1231.33  1241.93  1246.49  1249.45  1268.56  1292.44
eigval :     1318.80  1333.60  1340.55  1346.36  1363.79  1383.08
eigval :     1390.28  1392.83  1406.26  1409.56  1420.77  1423.79
eigval :     1442.64  1448.19  1474.49  1485.28  1491.32  1493.84
eigval :     1502.28  1508.58  1515.69  1524.64  1527.57  1533.94
eigval :     1556.20  1569.57  3023.65  3033.18  3041.43  3045.27
eigval :     3071.68  3073.63  3077.67  3079.53  3081.30  3081.95
eigval :     3083.32  3085.87  3091.53  3092.24  3094.19  3097.86
eigval :     3102.33  3120.17  3141.48

   temp. (K)  partition function   enthalpy   heat capacity  entropy
                                   cal/mol     cal/K/mol   cal/K/mol   J/K/mol
 298.15  VIB  0.107E+08            11970.901     83.863     69.905
         ROT  0.119E+08              888.752      2.981     35.351
         INT  0.126E+15            12859.653     86.843    105.255
         TR   0.665E+28             1481.254      4.968     43.528
         TOT                       14340.9074    91.8115   148.7837   622.5109

       T/K    H(0)-H(T)+PV         H(T)/Eh          T*S/Eh         G(T)/Eh
   ------------------------------------------------------------------------
    298.15    0.228537E-01    0.385919E+00    0.706919E-01    0.315227E+00
   ------------------------------------------------------------------------

         :::::::::::::::::::::::::::::::::::::::::::::::::::::
         ::                  THERMODYNAMIC                  ::
         :::::::::::::::::::::::::::::::::::::::::::::::::::::
         :: total free energy         -72.032482115014 Eh   ::
         ::.................................................::
         :: total energy              -72.347708757332 Eh   ::
         :: zero point energy           0.363064880219 Eh   ::
         :: G(RRHO) w/o ZPVE           -0.047838237901 Eh   ::
         :: G(RRHO) contrib.            0.315226642318 Eh   ::
         :::::::::::::::::::::::::::::::::::::::::::::::::::::

           -------------------------------------------------
          | TOTAL ENERGY              -72.347708757332 Eh   |
          | TOTAL ENTHALPY            -71.961790186468 Eh   |
          | TOTAL FREE ENERGY         -72.032482115014 Eh   |
          | GRADIENT NORM               0.000086050189 Eh/α |
          | HOMO-LUMO GAP               0.370372177695 eV   |
           -------------------------------------------------

 * finished run on 2025/07/17 at 21:51:12.927
