   * xtb version 6.7.1 (edcfbbe) compiled by 'albert@albert-system' on 2024-07-22

   ID    Z sym.   atoms
    1    6 C      1-13, 15-21, 23-28
    2    7 N      14
    3    8 O      22
    4    1 H      29-47

          program call               : xtb data2507/toluene/BACQ/BACQ.xyz --gfn 2 --gbsa toluene --ohess vtight --parallel 40 --molden --ceasefiles --namespace data2507/toluene/BACQ/BACQ_toluene_S0_preOpt
      * Solvation model:               GBSA
        Solvent                        toluene
        Solvent mass                       9.2140E+01 g/mol
          :  Hamiltonian                  GFN2-xTB          :
 * total energy  :   -72.4051685 Eh     change       -0.2806757E-08 Eh
 * total energy  :   -72.4193254 Eh     change       -0.1415692E-01 Eh
 * total energy  :   -72.4244128 Eh     change       -0.5087419E-02 Eh
 * total energy  :   -72.4253592 Eh     change       -0.9464002E-03 Eh
 * total energy  :   -72.4259551 Eh     change       -0.5958608E-03 Eh
 * total energy  :   -72.4262649 Eh     change       -0.3097866E-03 Eh
 * total energy  :   -72.4264517 Eh     change       -0.1868651E-03 Eh
 * total energy  :   -72.4265451 Eh     change       -0.9337630E-04 Eh
 * total energy  :   -72.4265885 Eh     change       -0.4341339E-04 Eh
 * total energy  :   -72.4266314 Eh     change       -0.4291989E-04 Eh
 * total energy  :   -72.4267655 Eh     change       -0.3702742E-06 Eh
 * total energy  :   -72.4267659 Eh     change       -0.4527131E-06 Eh
 * total energy  :   -72.4267665 Eh     change       -0.5878252E-06 Eh
 * total energy  :   -72.4267673 Eh     change       -0.7550316E-06 Eh
 * total energy  :   -72.4267680 Eh     change       -0.6884291E-06 Eh
 * total energy  :   -72.4267685 Eh     change       -0.5657440E-06 Eh
 * total energy  :   -72.4267688 Eh     change       -0.2782068E-06 Eh
 * total energy  :   -72.4267689 Eh     change       -0.1258652E-06 Eh
 * total energy  :   -72.4267690 Eh     change       -0.2284453E-07 Eh
   *** GEOMETRY OPTIMIZATION CONVERGED AFTER 32 ITERATIONS ***

 final structure:
================
47
 xtb: 6.7.1 (edcfbbe)
C            2.03052145152426       -2.46007192230461        0.82764367672091
C            0.93518091554713       -1.40143156045635        0.69689396029683
C            0.42427041440029       -1.13918680378702        2.13498241485779
C            1.28086497953387       -0.04013183676429        0.08021290962090
C            0.17061181952784        0.74031627923779       -0.21182045794211
C            0.27192455554853        1.99578225316118       -0.84045931392015
C            1.49353976812980        2.51967156773134       -1.11869780892049
C            2.66202692842228        1.80957621282540       -0.78304994736204
C            3.91550049568672        2.39417817792577       -1.05927439718087
C            5.08125954725813        1.75249586598612       -0.75764129833562
C            5.01464507519258        0.49012505555925       -0.15846920700953
C            3.81136521428915       -0.10212419626293        0.11491830194662
C            2.57309472577820        0.51461803385340       -0.18502797419324
N           -1.13319759554656        0.23246733918100       -0.02133612493815
C           -2.23468951968528        1.03218753799078        0.19270821574979
C           -2.12364067703124        2.23788207533028        0.89803280572179
C           -3.23515410602155        3.01404579089521        1.13298468527101
C           -4.48969866295620        2.61561336267997        0.67540316744447
C           -4.61693349810297        1.42241101290912        0.00474632496339
C           -3.50498322045816        0.60905368305625       -0.23800015269824
C           -3.67761278071772       -0.66710661043005       -0.93569220398814
O           -4.72016854834258       -0.97310187359648       -1.51693068116311
C           -2.52437424161209       -1.56112031244021       -0.84921159985472
C           -2.61176404390188       -2.89286180821498       -1.26596967305019
C           -1.51657451707502       -3.71619988208786       -1.16796074047242
C           -0.33666372277355       -3.25750448991561       -0.58293563633042
C           -0.22447808021191       -1.96052501624264       -0.12093048280273
C           -1.31003352280086       -1.09720132307835       -0.32962413247708
H            1.57279696543803       -3.38583933166224        1.17029083556574
H            2.74809081518932       -2.17995234008081        1.59250794808518
H            2.53232903415604       -2.64716195627849       -0.11787311974494
H            1.23105319553677       -0.72301519870392        2.73471790867629
H           -0.40861149692804       -0.44286634548974        2.15737613637995
H            0.09789075834713       -2.07363130771528        2.58674702859676
H           -0.62977845139021        2.51750722989142       -1.12201718736029
H            1.58198386952929        3.47828830544759       -1.60767120124034
H            3.92813057624107        3.37352184385969       -1.51648793630642
H            6.03826007873406        2.20542047016579       -0.97031054459085
H            5.92925460301746       -0.02627563291141        0.09555237938935
H            3.84215903420665       -1.06375930742339        0.58193948100487
H           -1.15861181620310        2.54296015733839        1.27399714663658
H           -3.13291306683645        3.93570475853834        1.68602617366928
H           -5.35507198993038        3.23370958614175        0.85852179991147
H           -5.57597848517229        1.07118276706033       -0.34807404221179
H           -3.55345081379074       -3.23860078171124       -1.66584833297361
H           -1.57302791034116       -4.73646010721949       -1.51585447886128
H            0.48065794659576       -3.95259142199061       -0.48903562457950

          :  Hamiltonian                  GFN2-xTB          :
         :: gradient norm              0.000122829555 Eh/a0 ::
         :: HOMO-LUMO gap              2.237274505419 eV    ::
         :: SCC energy               -73.701918789431 Eh    ::
         :: -> dispersion             -0.065401779339 Eh    ::
         :: -> Gsolv                  -0.033806978860 Eh    ::
         :: repulsion energy           1.275149832549 Eh    ::

    * Orbital Energies and Occupations

         #    Occupation            Energy/Eh            Energy/eV
      -------------------------------------------------------------
         1        2.0000           -0.6935429             -18.8723
       ...           ...                  ...                  ...
        55        2.0000           -0.4384127             -11.9298
        56        2.0000           -0.4364261             -11.8758
        57        2.0000           -0.4329049             -11.7799
        58        2.0000           -0.4255903             -11.5809
        59        2.0000           -0.4219036             -11.4806
        60        2.0000           -0.4178813             -11.3711
        61        2.0000           -0.4163067             -11.3283
        62        2.0000           -0.4138985             -11.2628
        63        2.0000           -0.4080456             -11.1035
        64        2.0000           -0.4045303             -11.0078
        65        2.0000           -0.3851719             -10.4811
        66        2.0000           -0.3836772             -10.4404
        67        2.0000           -0.3669796              -9.9860 (HOMO)
        68                         -0.2847613              -7.7487 (LUMO)
        69                         -0.2618799              -7.1261
        70                         -0.2424848              -6.5983
        71                         -0.2361427              -6.4258
        72                         -0.2334861              -6.3535
        73                         -0.2127259              -5.7886
        74                         -0.1934143              -5.2631
        75                         -0.1787825              -4.8649
        76                         -0.1483525              -4.0369
        77                         -0.1097704              -2.9870
        78                         -0.0739394              -2.0120
       ...                                ...                  ...
       131                          0.7021101              19.1054
      -------------------------------------------------------------
                  HL-Gap            0.0822184 Eh            2.2373 eV

     #   Z          covCN         q      C6AA      α(0)
     1   6 C        3.762    -0.112    22.690     6.790
     2   6 C        3.911     0.025    20.092     6.371
     3   6 C        3.765    -0.104    22.535     6.766
     4   6 C        2.969    -0.013    28.330     8.731
     5   6 C        2.944     0.049    26.896     8.506
     6   6 C        2.918    -0.046    29.152     8.854
     7   6 C        2.923    -0.038    28.942     8.822
     8   6 C        2.992     0.008    27.834     8.654
     9   6 C        2.927    -0.035    28.868     8.811
    10   6 C        2.913    -0.031    28.771     8.796
    11   6 C        2.918    -0.031    28.784     8.798
    12   6 C        2.919    -0.045    29.107     8.847
    13   6 C        2.976     0.011    27.758     8.642
    14   7 N        2.762    -0.034    21.900     6.950
    15   6 C        2.930     0.062    26.604     8.459
    16   6 C        2.919    -0.048    29.182     8.859
    17   6 C        2.919    -0.023    28.587     8.768
    18   6 C        2.915    -0.036    28.889     8.814
    19   6 C        2.923    -0.020    28.496     8.754
    20   6 C        2.979    -0.037    28.919     8.821
    21   6 C        2.832     0.216    23.452     7.936
    22   8 O        0.857    -0.478    23.295     6.471
    23   6 C        2.978    -0.039    28.953     8.826
    24   6 C        2.922    -0.024    28.601     8.770
    25   6 C        2.916    -0.038    28.954     8.824
    26   6 C        2.924    -0.033    28.834     8.806
    27   6 C        2.984    -0.008    28.214     8.713
    28   6 C        2.964     0.056    26.744     8.483
    29   1 H        0.925     0.050     2.323     2.383
    30   1 H        0.925     0.052     2.290     2.366
    31   1 H        0.925     0.047     2.363     2.404
    32   1 H        0.925     0.048     2.350     2.397
    33   1 H        0.925     0.034     2.526     2.486
    34   1 H        0.925     0.044     2.402     2.424
    35   1 H        0.926     0.038     2.477     2.461
    36   1 H        0.926     0.041     2.436     2.441
    37   1 H        0.926     0.034     2.535     2.490
    38   1 H        0.926     0.032     2.560     2.502
    39   1 H        0.926     0.034     2.535     2.490
    40   1 H        0.927     0.058     2.217     2.328
    41   1 H        0.926     0.050     2.319     2.382
    42   1 H        0.926     0.049     2.329     2.387
    43   1 H        0.926     0.043     2.404     2.425
    44   1 H        0.926     0.046     2.368     2.407
    45   1 H        0.926     0.045     2.389     2.417
    46   1 H        0.926     0.043     2.405     2.425
    47   1 H        0.926     0.058     2.221     2.330

molecular dipole:
                 x           y           z       tot (Debye)
 q only:        2.756       0.409       1.293
   full:        2.631       0.499       1.254       7.516

 projected vibrational frequencies (cm⁻¹)
eigval :       -0.00    -0.00    -0.00     0.00     0.00     0.00
eigval :       27.14    41.77    60.88    64.63   105.48   128.14
eigval :      146.41   164.90   178.75   199.16   207.14   230.21
eigval :      243.09   269.25   297.51   307.96   314.47   333.16
eigval :      341.93   352.91   374.49   385.76   409.50   420.20
eigval :      433.05   462.77   479.72   485.71   489.82   498.71
eigval :      516.79   521.65   536.76   548.48   567.77   578.56
eigval :      599.02   628.37   636.65   655.75   663.70   691.47
eigval :      709.41   722.14   729.45   734.81   757.69   784.84
eigval :      795.96   801.23   839.58   841.36   848.83   863.18
eigval :      884.35   899.64   905.14   911.34   917.45   918.57
eigval :      923.46   924.73   929.85   934.57   954.49   979.30
eigval :      990.38  1009.57  1041.25  1087.83  1097.83  1116.51
eigval :     1124.34  1132.20  1144.75  1159.11  1175.09  1178.19
eigval :     1187.19  1192.78  1202.55  1213.02  1224.38  1235.11
eigval :     1243.28  1247.41  1260.14  1269.84  1295.95  1324.28
eigval :     1333.31  1349.81  1360.47  1366.45  1378.41  1395.58
eigval :     1410.45  1414.54  1423.94  1441.06  1442.19  1454.87
eigval :     1471.01  1489.73  1491.30  1503.35  1515.77  1541.94
eigval :     1547.67  1555.93  1569.30  1584.70  1591.87  1596.97
eigval :     1610.50  1616.10  3022.51  3027.89  3029.50  3040.82
eigval :     3054.41  3057.29  3067.14  3072.92  3081.00  3081.97
eigval :     3083.86  3083.95  3086.71  3091.99  3093.94  3097.22
eigval :     3099.95  3121.01  3228.91

   temp. (K)  partition function   enthalpy   heat capacity  entropy
                                   cal/mol     cal/K/mol   cal/K/mol   J/K/mol
 298.15  VIB  0.883E+07            11589.829     81.671     67.311
         ROT  0.117E+08              888.752      2.981     35.325
         INT  0.103E+15            12478.582     84.652    102.636
         TR   0.665E+28             1481.254      4.968     43.528
         TOT                       13959.8354    89.6201   146.1643   611.5514

       T/K    H(0)-H(T)+PV         H(T)/Eh          T*S/Eh         G(T)/Eh
   ------------------------------------------------------------------------
    298.15    0.222464E-01    0.389587E+00    0.694474E-01    0.320140E+00
   ------------------------------------------------------------------------

         :::::::::::::::::::::::::::::::::::::::::::::::::::::
         ::                  THERMODYNAMIC                  ::
         :::::::::::::::::::::::::::::::::::::::::::::::::::::
         :: total free energy         -72.106628925073 Eh   ::
         ::.................................................::
         :: total energy              -72.426768958835 Eh   ::
         :: zero point energy           0.367340993483 Eh   ::
         :: G(RRHO) w/o ZPVE           -0.047200959721 Eh   ::
         :: G(RRHO) contrib.            0.320140033762 Eh   ::
         :::::::::::::::::::::::::::::::::::::::::::::::::::::

           -------------------------------------------------
          | TOTAL ENERGY              -72.426768958835 Eh   |
          | TOTAL ENTHALPY            -72.037181551534 Eh   |
          | TOTAL FREE ENERGY         -72.106628925073 Eh   |
          | GRADIENT NORM               0.000122834289 Eh/α |
          | HOMO-LUMO GAP               2.237276053628 eV   |
           -------------------------------------------------

 * finished run on 2025/07/17 at 21:47:45.959
