   * xtb version 6.7.1 (edcfbbe) compiled by 'albert@albert-system' on 2024-07-22

   ID    Z sym.   atoms
    1    6 C      1-13, 15-21, 23-28
    2    7 N      14
    3    8 O      22
    4    1 H      29-47

          program call               : xtb data2507/toluene/BACQ/BACQ_toluene_S0_crest.xyz --gfn 2 --gbsa toluene --ohess vtight --parallel 40 --molden --ceasefiles --namespace data2507/toluene/BACQ/BACQ_toluene_S0_finalOpt
      * Solvation model:               GBSA
        Solvent                        toluene
        Solvent mass                       9.2140E+01 g/mol
          :  Hamiltonian                  GFN2-xTB          :
 * total energy  :   -72.4300773 Eh     change       -0.2114007E-08 Eh
 * total energy  :   -72.4301858 Eh     change       -0.1084563E-03 Eh
 * total energy  :   -72.4302122 Eh     change       -0.2644809E-04 Eh
 * total energy  :   -72.4302150 Eh     change       -0.2761292E-05 Eh
 * total energy  :   -72.4302168 Eh     change       -0.1840573E-05 Eh
 * total energy  :   -72.4302189 Eh     change       -0.2118741E-05 Eh
 * total energy  :   -72.4302203 Eh     change       -0.1396519E-05 Eh
 * total energy  :   -72.4302214 Eh     change       -0.1050507E-05 Eh
 * total energy  :   -72.4302222 Eh     change       -0.8339760E-06 Eh
 * total energy  :   -72.4302229 Eh     change       -0.6488398E-06 Eh
 * total energy  :   -72.4302238 Eh     change       -0.3828534E-06 Eh
 * total energy  :   -72.4302241 Eh     change       -0.3725160E-06 Eh
 * total energy  :   -72.4302245 Eh     change       -0.3399384E-06 Eh
 * total energy  :   -72.4302249 Eh     change       -0.4003485E-06 Eh
 * total energy  :   -72.4302252 Eh     change       -0.3488283E-06 Eh
 * total energy  :   -72.4302255 Eh     change       -0.2714042E-06 Eh
 * total energy  :   -72.4302257 Eh     change       -0.2053149E-06 Eh
 * total energy  :   -72.4302258 Eh     change       -0.1104573E-06 Eh
 * total energy  :   -72.4302258 Eh     change       -0.1946350E-07 Eh
   *** GEOMETRY OPTIMIZATION CONVERGED AFTER 20 ITERATIONS ***

 final structure:
================
47
 xtb: 6.7.1 (edcfbbe)
C            2.06964643918057       -2.75234095724084       -0.32606922050365
C            1.18518737815529       -1.74120608471404        0.44321762556075
C            1.28771087093625       -1.91427008045658        1.97314658394189
C            1.55618737375690       -0.31700573927081        0.05399041996021
C            0.55998949128759        0.58461270726283       -0.26681823844910
C            0.85782080764841        1.79700175833615       -0.92750149508706
C            2.14757599016966        2.16750945171435       -1.14072943878203
C            3.20335280028119        1.38226769386728       -0.63289137419525
C            4.53509906701060        1.83310189387528       -0.73311118538993
C            5.56700561421608        1.10763662182804       -0.20911106094430
C            5.28857687035299       -0.09509427685797        0.45206129180412
C            4.00799332910998       -0.56986081948014        0.53877970692833
C            2.91204711420610        0.13181596665767       -0.01883248144721
N           -0.79524287148368        0.28856162005221       -0.03058056076375
C           -1.72630530405453        1.27439256794239        0.22806524886739
C           -1.35571377993756        2.49851739469326        0.80244159101676
C           -2.29774289160054        3.47004580387119        1.05052776491059
C           -3.63931233019927        3.25866297203866        0.73849772456172
C           -4.02505789877064        2.04636691544220        0.21918854256521
C           -3.08879953474882        1.03604451796423       -0.02511561563280
C           -3.54344697982097       -0.27253558640103       -0.49174372864025
O           -4.67974926275171       -0.47354174332432       -0.92420610648232
C           -2.55242309781786       -1.33564859525782       -0.33636462585279
C           -2.95242481183340       -2.67236596303468       -0.40172342658467
C           -2.03613186229967       -3.67662717231367       -0.20487896269778
C           -0.70648043534320       -3.35771994960347        0.04949335620215
C           -0.26452288997633       -2.04671892238569        0.09227619085235
C           -1.20351617039590       -1.02559308790551       -0.09376630906939
H            2.99690074337584       -2.30762145426468       -0.66719980539261
H            1.54269442662524       -3.10195928935843       -1.21166161852369
H            2.30823143448644       -3.61078693162405        0.29625505374167
H            0.60692446205779       -1.22093332388849        2.46509987555823
H            1.00332002621450       -2.92581707810524        2.25388977763719
H            2.28982060630559       -1.71667948484272        2.33876754044262
H            0.04367830949671        2.40291124045934       -1.29485253675389
H            2.37664071086594        3.07504392799712       -1.67891603476356
H            4.71874344881677        2.77926141375251       -1.22212878384513
H            6.58535406768929        1.45968511531953       -0.28339494852766
H            6.09680343963515       -0.65287873905799        0.90284188815133
H            3.84658602031092       -1.48675923976326        1.07820259873709
H           -0.32527040123427        2.66749959160410        1.07513052239070
H           -1.99187166550222        4.40158063724846        1.50284606687712
H           -4.36899446884226        4.03155115187940        0.92429934700006
H           -5.05992518417063        1.82742509656408       -0.00145418095034
H           -3.99550029091250       -2.87774416988036       -0.59214447826630
H           -2.34355346390182       -4.71075389336209       -0.23541221008648
H           -0.01059267119399       -4.16127117987638        0.23058560602452

          :  Hamiltonian                  GFN2-xTB          :
         :: gradient norm              0.000088780618 Eh/a0 ::
         :: HOMO-LUMO gap              2.185373247952 eV    ::
         :: SCC energy               -73.705703785784 Eh    ::
         :: -> dispersion             -0.065403690087 Eh    ::
         :: -> Gsolv                  -0.033782301282 Eh    ::
         :: repulsion energy           1.275477967475 Eh    ::

    * Orbital Energies and Occupations

         #    Occupation            Energy/Eh            Energy/eV
      -------------------------------------------------------------
         1        2.0000           -0.6928632             -18.8538
       ...           ...                  ...                  ...
        55        2.0000           -0.4380498             -11.9199
        56        2.0000           -0.4362899             -11.8721
        57        2.0000           -0.4332366             -11.7890
        58        2.0000           -0.4243207             -11.5464
        59        2.0000           -0.4213187             -11.4647
        60        2.0000           -0.4167394             -11.3401
        61        2.0000           -0.4154332             -11.3045
        62        2.0000           -0.4127574             -11.2317
        63        2.0000           -0.4081557             -11.1065
        64        2.0000           -0.4065087             -11.0617
        65        2.0000           -0.3860636             -10.5053
        66        2.0000           -0.3838130             -10.4441
        67        2.0000           -0.3640128              -9.9053 (HOMO)
        68                         -0.2837018              -7.7199 (LUMO)
        69                         -0.2635011              -7.1702
        70                         -0.2416015              -6.5743
        71                         -0.2372521              -6.4560
        72                         -0.2321536              -6.3172
        73                         -0.2113345              -5.7507
        74                         -0.1952705              -5.3136
        75                         -0.1787040              -4.8628
        76                         -0.1500489              -4.0830
        77                         -0.1078270              -2.9341
        78                         -0.0739165              -2.0114
       ...                                ...                  ...
       131                          0.7038781              19.1535
      -------------------------------------------------------------
                  HL-Gap            0.0803110 Eh            2.1854 eV

     #   Z          covCN         q      C6AA      α(0)
     1   6 C        3.758    -0.116    22.768     6.803
     2   6 C        3.905     0.024    20.106     6.374
     3   6 C        3.762    -0.103    22.518     6.764
     4   6 C        2.969    -0.013    28.326     8.730
     5   6 C        2.931     0.051    26.865     8.500
     6   6 C        2.919    -0.046    29.146     8.853
     7   6 C        2.919    -0.038    28.944     8.822
     8   6 C        2.990     0.008    27.831     8.654
     9   6 C        2.923    -0.034    28.859     8.810
    10   6 C        2.914    -0.031    28.772     8.796
    11   6 C        2.917    -0.032    28.788     8.798
    12   6 C        2.918    -0.040    28.992     8.830
    13   6 C        2.982     0.010    27.793     8.648
    14   7 N        2.758    -0.032    21.858     6.944
    15   6 C        2.931     0.062    26.612     8.460
    16   6 C        2.919    -0.048    29.184     8.859
    17   6 C        2.920    -0.024    28.597     8.769
    18   6 C        2.915    -0.036    28.893     8.814
    19   6 C        2.923    -0.020    28.504     8.755
    20   6 C        2.981    -0.037    28.918     8.821
    21   6 C        2.834     0.216    23.452     7.936
    22   8 O        0.857    -0.479    23.323     6.475
    23   6 C        2.980    -0.039    28.969     8.829
    24   6 C        2.923    -0.024    28.604     8.771
    25   6 C        2.915    -0.038    28.953     8.824
    26   6 C        2.927    -0.033    28.819     8.804
    27   6 C        2.983    -0.007    28.194     8.710
    28   6 C        2.947     0.056    26.752     8.483
    29   1 H        0.925     0.055     2.261     2.352
    30   1 H        0.925     0.040     2.448     2.447
    31   1 H        0.925     0.049     2.336     2.390
    32   1 H        0.925     0.033     2.543     2.494
    33   1 H        0.925     0.046     2.373     2.409
    34   1 H        0.925     0.053     2.285     2.364
    35   1 H        0.926     0.040     2.443     2.444
    36   1 H        0.926     0.042     2.426     2.436
    37   1 H        0.926     0.035     2.522     2.484
    38   1 H        0.926     0.032     2.553     2.499
    39   1 H        0.926     0.034     2.528     2.486
    40   1 H        0.926     0.053     2.280     2.361
    41   1 H        0.926     0.050     2.314     2.379
    42   1 H        0.926     0.049     2.331     2.388
    43   1 H        0.926     0.043     2.404     2.425
    44   1 H        0.926     0.046     2.369     2.407
    45   1 H        0.926     0.044     2.402     2.423
    46   1 H        0.926     0.042     2.417     2.431
    47   1 H        0.926     0.057     2.235     2.338

molecular dipole:
                 x           y           z       tot (Debye)
 q only:        3.014       0.136       0.920
   full:        2.920       0.224       0.926       7.808

 projected vibrational frequencies (cm⁻¹)
eigval :       -0.00    -0.00     0.00     0.00     0.00     0.00
eigval :       37.83    44.92    63.76    79.53    97.91   127.71
eigval :      138.18   153.25   157.65   173.10   196.60   202.01
eigval :      241.53   258.10   278.18   287.22   299.80   312.22
eigval :      326.80   345.48   364.03   377.53   398.60   416.83
eigval :      421.51   439.77   464.12   483.00   495.42   501.32
eigval :      514.18   528.41   543.81   562.55   570.81   574.47
eigval :      606.63   627.73   638.12   652.94   665.59   698.96
eigval :      709.38   729.03   733.64   734.57   771.39   785.81
eigval :      800.32   811.12   840.51   842.20   854.37   884.35
eigval :      886.31   904.00   910.56   916.91   922.78   923.68
eigval :      924.19   930.41   936.66   937.56   964.57   975.15
eigval :      996.13  1025.32  1048.86  1089.63  1093.46  1119.07
eigval :     1125.11  1130.21  1149.11  1155.49  1174.54  1174.91
eigval :     1185.75  1191.08  1199.25  1209.90  1223.52  1234.92
eigval :     1242.87  1250.97  1255.51  1276.99  1301.08  1320.54
eigval :     1335.80  1349.01  1355.46  1371.44  1387.90  1403.15
eigval :     1410.05  1419.86  1423.41  1440.45  1450.37  1457.32
eigval :     1470.30  1481.63  1493.72  1497.00  1504.45  1517.58
eigval :     1549.24  1559.51  1570.64  1583.32  1591.86  1597.06
eigval :     1608.14  1616.27  3020.05  3029.83  3033.91  3038.63
eigval :     3063.56  3069.87  3074.09  3081.41  3082.07  3084.07
eigval :     3084.55  3084.84  3088.38  3093.92  3094.34  3096.03
eigval :     3100.93  3108.85  3132.82

   temp. (K)  partition function   enthalpy   heat capacity  entropy
                                   cal/mol     cal/K/mol   cal/K/mol   J/K/mol
 298.15  VIB  0.912E+07            11761.656     82.267     68.845
         ROT  0.119E+08              888.752      2.981     35.350
         INT  0.108E+15            12650.409     85.248    104.195
         TR   0.665E+28             1481.254      4.968     43.528
         TOT                       14131.6627    90.2159   147.7235   618.0752

       T/K    H(0)-H(T)+PV         H(T)/Eh          T*S/Eh         G(T)/Eh
   ------------------------------------------------------------------------
    298.15    0.225202E-01    0.389485E+00    0.701882E-01    0.319297E+00
   ------------------------------------------------------------------------

         :::::::::::::::::::::::::::::::::::::::::::::::::::::
         ::                  THERMODYNAMIC                  ::
         :::::::::::::::::::::::::::::::::::::::::::::::::::::
         :: total free energy         -72.110929114544 Eh   ::
         ::.................................................::
         :: total energy              -72.430225816258 Eh   ::
         :: zero point energy           0.366964669392 Eh   ::
         :: G(RRHO) w/o ZPVE           -0.047667967678 Eh   ::
         :: G(RRHO) contrib.            0.319296701714 Eh   ::
         :::::::::::::::::::::::::::::::::::::::::::::::::::::

           -------------------------------------------------
          | TOTAL ENERGY              -72.430225816258 Eh   |
          | TOTAL ENTHALPY            -72.040740908896 Eh   |
          | TOTAL FREE ENERGY         -72.110929114544 Eh   |
          | GRADIENT NORM               0.000088768195 Eh/α |
          | HOMO-LUMO GAP               2.185372760360 eV   |
           -------------------------------------------------

 * finished run on 2025/07/17 at 21:49:15.403
