   * xtb version 6.7.1 (edcfbbe) compiled by 'albert@albert-system' on 2024-07-22

   ID    Z sym.   atoms
    1    6 C      1-13, 15-21, 23-28
    2    7 N      14
    3    8 O      22
    4    1 H      29-47

          program call               : xtb data2507/toluene/BACQ/BACQ_toluene_S0_finalOpt.xtbopt.xyz --gfn 2 --uhf 2 --gbsa toluene --ohess vtight --parallel 40 --molden --ceasefiles --namespace data2507/toluene/BACQ/BACQ_toluene_T1_preOpt
      * Solvation model:               GBSA
        Solvent                        toluene
        Solvent mass                       9.2140E+01 g/mol
          :  Hamiltonian                  GFN2-xTB          :
 * total energy  :   -72.3433506 Eh     change       -0.3634320E-07 Eh
 * total energy  :   -72.3464498 Eh     change       -0.3099272E-02 Eh
 * total energy  :   -72.3474435 Eh     change       -0.9936262E-03 Eh
 * total energy  :   -72.3475461 Eh     change       -0.1025917E-03 Eh
 * total energy  :   -72.3476105 Eh     change       -0.6446301E-04 Eh
 * total energy  :   -72.3476411 Eh     change       -0.3062710E-04 Eh
 * total energy  :   -72.3476630 Eh     change       -0.2183163E-04 Eh
 * total energy  :   -72.3476747 Eh     change       -0.1167763E-04 Eh
 * total energy  :   -72.3476832 Eh     change       -0.8557920E-05 Eh
 * total energy  :   -72.3476881 Eh     change       -0.4865108E-05 Eh
 * total energy  :   -72.3477034 Eh     change       -0.5221588E-06 Eh
 * total energy  :   -72.3477037 Eh     change       -0.2722798E-06 Eh
 * total energy  :   -72.3477039 Eh     change       -0.2238359E-06 Eh
 * total energy  :   -72.3477042 Eh     change       -0.3130326E-06 Eh
 * total energy  :   -72.3477046 Eh     change       -0.4075080E-06 Eh
 * total energy  :   -72.3477049 Eh     change       -0.3066599E-06 Eh
 * total energy  :   -72.3477051 Eh     change       -0.1524885E-06 Eh
 * total energy  :   -72.3477053 Eh     change       -0.2093054E-06 Eh
 * total energy  :   -72.3477053 Eh     change       -0.5437440E-07 Eh
   *** GEOMETRY OPTIMIZATION CONVERGED AFTER 24 ITERATIONS ***

 final structure:
================
47
 xtb: 6.7.1 (edcfbbe)
C            2.05970326344511       -2.76390877263996       -0.36830530727386
C            1.19102017269660       -1.75156899253254        0.42118451878489
C            1.33324135203506       -1.93383287062551        1.95354559553023
C            1.55725696255893       -0.33527853738268        0.03504869065275
C            0.52488552493609        0.58819108259885       -0.28033870101961
C            0.82809014988723        1.81932282943784       -0.89977678745816
C            2.11741399887756        2.19503241430454       -1.09763652327001
C            3.18430086820054        1.40381458755281       -0.58908688762997
C            4.50081365226660        1.85897912989268       -0.68556030533670
C            5.55495134992289        1.11702313663694       -0.18478207735444
C            5.29114208129530       -0.09836770384126        0.43535171140782
C            4.00409000711692       -0.58083849482891        0.52637157377492
C            2.89714333583013        0.13391974125117        0.00010478140676
N           -0.78717381457296        0.27834000809567       -0.02085646671029
C           -1.72849719647473        1.27244568913692        0.23766033836971
C           -1.35213105680768        2.47792675056854        0.82786568311184
C           -2.28075941866236        3.48392278135355        1.03177782133982
C           -3.60554056982657        3.29652613654415        0.64248674237620
C           -4.00675377877850        2.08435864962787        0.12730570061451
C           -3.09383232514716        1.03311408079406       -0.04995818289459
C           -3.54779631446999       -0.28251334527389       -0.44484416719403
O           -4.73074154753689       -0.51185814056600       -0.80991934478810
C           -2.56672836155269       -1.33782310245548       -0.28054205317716
C           -2.95291066558350       -2.67851959799336       -0.36095674385656
C           -2.03119856296492       -3.68666948009506       -0.16859856124249
C           -0.70104320532458       -3.38304650301820        0.08111102455587
C           -0.26208086646439       -2.06006623144136        0.12118307562902
C           -1.20135808337102       -1.04322904969617       -0.04175370585816
H            2.99599640460742       -2.32384902425713       -0.69097724862511
H            1.52813584602745       -3.08045146220768       -1.26319813157915
H            2.27822615359397       -3.64064989517674        0.23457011425400
H            0.65131312995593       -1.25618541743317        2.46491333111191
H            1.07108146529134       -2.95203442993188        2.22899269522502
H            2.33934979411967       -1.72139737739975        2.29676888514547
H            0.01455220771759        2.43204815231023       -1.25743548111956
H            2.34988622574884        3.10800001919645       -1.62354942037121
H            4.68434212370108        2.81424921590505       -1.15572879120017
H            6.56722368167217        1.48422923613452       -0.26157143472005
H            6.10277171495027       -0.67343966658032        0.85671372475255
H            3.85682752667023       -1.51459674214857        1.03854883393564
H           -0.32986074409389        2.61950526516220        1.14559760853161
H           -1.97372880177224        4.40996915176926        1.49161184151713
H           -4.32325931256804        4.09323585460953        0.76924243015030
H           -5.03550569544946        1.89638628282757       -0.14263688826443
H           -3.99259327274718       -2.88738929913804       -0.56454448724464
H           -2.34673928990410       -4.71863549722426       -0.20747320638305
H           -0.00222224085642       -4.18670529374830        0.24102162743403

          :  Hamiltonian                  GFN2-xTB          :
         :: gradient norm              0.000123056555 Eh/a0 ::
         :: HOMO-LUMO gap              0.369812427502 eV    ::
         :: SCC energy               -73.606258310782 Eh    ::
         :: -> dispersion             -0.065297710757 Eh    ::
         :: -> Gsolv                  -0.038937025459 Eh    ::
         :: repulsion energy           1.258552979093 Eh    ::

    * Orbital Energies and Occupations

         #    Occupation            Energy/Eh            Energy/eV
      -------------------------------------------------------------
         1        2.0000           -0.6956964             -18.9309
       ...           ...                  ...                  ...
        56        2.0000           -0.4353110             -11.8454
        57        2.0000           -0.4342817             -11.8174
        58        2.0000           -0.4278686             -11.6429
        59        2.0000           -0.4229759             -11.5098
        60        2.0000           -0.4179659             -11.3734
        61        2.0000           -0.4146678             -11.2837
        62        2.0000           -0.4122343             -11.2175
        63        2.0000           -0.4080927             -11.1048
        64        2.0000           -0.4055039             -11.0343
        65        2.0000           -0.3900502             -10.6138
        66        1.9571           -0.3715427             -10.1102
        67        1.0429           -0.3656419              -9.9496
        68        0.9992           -0.2831216              -7.7041 (HOMO)
        69        0.0008           -0.2695311              -7.3343 (LUMO)
        70                         -0.2429313              -6.6105
        71                         -0.2391042              -6.5064
        72                         -0.2313604              -6.2956
        73                         -0.2143949              -5.8340
        74                         -0.2011363              -5.4732
        75                         -0.1720865              -4.6827
        76                         -0.1559871              -4.2446
        77                         -0.1086987              -2.9578
        78                         -0.0760342              -2.0690
        79                         -0.0676853              -1.8418
       ...                                ...                  ...
       131                          0.6960888              18.9415
      -------------------------------------------------------------
                  HL-Gap            0.0135905 Eh            0.3698 eV

     #   Z          covCN         q      C6AA      α(0)
     1   6 C        3.758    -0.115    22.761     6.802
     2   6 C        3.905     0.027    20.059     6.366
     3   6 C        3.763    -0.103    22.519     6.764
     4   6 C        2.968    -0.008    28.227     8.715
     5   6 C        2.932     0.051    26.866     8.500
     6   6 C        2.914    -0.045    29.109     8.847
     7   6 C        2.918    -0.040    28.988     8.829
     8   6 C        2.986     0.014    27.701     8.633
     9   6 C        2.922    -0.035    28.877     8.812
    10   6 C        2.914    -0.027    28.666     8.780
    11   6 C        2.914    -0.030    28.760     8.794
    12   6 C        2.918    -0.040    28.999     8.831
    13   6 C        2.975     0.013    27.709     8.634
    14   7 N        2.758     0.017    20.960     6.800
    15   6 C        2.933     0.046    26.969     8.517
    16   6 C        2.918    -0.041    29.013     8.833
    17   6 C        2.917    -0.040    29.003     8.831
    18   6 C        2.914    -0.026    28.655     8.778
    19   6 C        2.921    -0.029    28.722     8.789
    20   6 C        2.978    -0.028    28.692     8.786
    21   6 C        2.834     0.177    24.194     8.060
    22   8 O        0.857    -0.533    24.526     6.640
    23   6 C        2.977    -0.030    28.738     8.793
    24   6 C        2.922    -0.029    28.723     8.789
    25   6 C        2.913    -0.028    28.712     8.787
    26   6 C        2.923    -0.046    29.141     8.853
    27   6 C        2.983     0.001    28.002     8.680
    28   6 C        2.945     0.042    27.062     8.532
    29   1 H        0.925     0.060     2.205     2.322
    30   1 H        0.925     0.045     2.388     2.416
    31   1 H        0.925     0.055     2.261     2.351
    32   1 H        0.925     0.037     2.496     2.471
    33   1 H        0.925     0.053     2.284     2.363
    34   1 H        0.925     0.060     2.203     2.321
    35   1 H        0.926     0.044     2.392     2.418
    36   1 H        0.926     0.045     2.381     2.413
    37   1 H        0.926     0.038     2.475     2.460
    38   1 H        0.926     0.037     2.489     2.467
    39   1 H        0.926     0.038     2.473     2.459
    40   1 H        0.926     0.058     2.220     2.330
    41   1 H        0.926     0.050     2.324     2.384
    42   1 H        0.926     0.044     2.391     2.418
    43   1 H        0.926     0.042     2.426     2.436
    44   1 H        0.926     0.041     2.435     2.440
    45   1 H        0.926     0.042     2.427     2.436
    46   1 H        0.926     0.043     2.403     2.424
    47   1 H        0.926     0.056     2.249     2.345

molecular dipole:
                 x           y           z       tot (Debye)
 q only:        4.281       0.039       0.937
   full:        4.181       0.150       0.936      10.895

 projected vibrational frequencies (cm⁻¹)
eigval :       -0.00    -0.00    -0.00     0.00     0.00     0.00
eigval :       38.91    43.83    65.05    82.72    99.60   122.65
eigval :      142.98   150.03   158.50   166.73   195.09   200.83
eigval :      243.41   256.05   272.60   288.29   294.76   303.20
eigval :      321.21   343.35   355.29   376.89   381.46   407.46
eigval :      414.68   427.38   457.67   468.81   479.25   492.83
eigval :      505.26   524.78   534.54   549.82   563.50   566.75
eigval :      597.68   617.56   623.85   631.27   642.53   680.09
eigval :      698.71   703.79   716.69   729.02   756.02   760.80
eigval :      786.51   794.16   819.70   834.66   846.43   857.61
eigval :      864.24   876.62   893.80   898.07   901.42   911.33
eigval :      913.54   919.09   920.38   924.11   959.57   970.38
eigval :      991.77  1017.60  1046.27  1081.90  1097.90  1110.32
eigval :     1113.61  1119.95  1121.44  1143.64  1154.87  1168.08
eigval :     1182.04  1185.56  1191.57  1201.29  1216.59  1223.34
eigval :     1231.20  1241.88  1246.31  1249.98  1268.65  1292.10
eigval :     1318.69  1333.51  1340.46  1346.23  1363.71  1383.02
eigval :     1390.35  1392.98  1406.17  1409.48  1420.74  1423.56
eigval :     1442.60  1448.14  1474.46  1485.58  1491.16  1493.35
eigval :     1502.27  1507.74  1515.73  1524.45  1527.59  1533.86
eigval :     1556.08  1569.50  3023.68  3032.93  3041.22  3045.30
eigval :     3071.74  3075.38  3077.98  3080.05  3081.19  3082.01
eigval :     3083.24  3085.86  3091.57  3093.40  3094.25  3097.91
eigval :     3101.97  3120.38  3141.27

   temp. (K)  partition function   enthalpy   heat capacity  entropy
                                   cal/mol     cal/K/mol   cal/K/mol   J/K/mol
 298.15  VIB  0.108E+08            11974.972     83.865     69.948
         ROT  0.119E+08              888.752      2.981     35.351
         INT  0.128E+15            12863.725     86.846    105.298
         TR   0.665E+28             1481.254      4.968     43.528
         TOT                       14344.9787    91.8138   148.8267   622.6909

       T/K    H(0)-H(T)+PV         H(T)/Eh          T*S/Eh         G(T)/Eh
   ------------------------------------------------------------------------
    298.15    0.228602E-01    0.385924E+00    0.707124E-01    0.315211E+00
   ------------------------------------------------------------------------

         :::::::::::::::::::::::::::::::::::::::::::::::::::::
         ::                  THERMODYNAMIC                  ::
         :::::::::::::::::::::::::::::::::::::::::::::::::::::
         :: total free energy         -72.032494111944 Eh   ::
         ::.................................................::
         :: total energy              -72.347705329790 Eh   ::
         :: zero point energy           0.363063402576 Eh   ::
         :: G(RRHO) w/o ZPVE           -0.047852184730 Eh   ::
         :: G(RRHO) contrib.            0.315211217846 Eh   ::
         :::::::::::::::::::::::::::::::::::::::::::::::::::::

           -------------------------------------------------
          | TOTAL ENERGY              -72.347705329790 Eh   |
          | TOTAL ENTHALPY            -71.961781748570 Eh   |
          | TOTAL FREE ENERGY         -72.032494111944 Eh   |
          | GRADIENT NORM               0.000124463577 Eh/α |
          | HOMO-LUMO GAP               0.369816005315 eV   |
           -------------------------------------------------

 * finished run on 2025/07/17 at 21:49:17.603
