   * xtb version 6.7.1 (edcfbbe) compiled by 'albert@albert-system' on 2024-07-22

   ID    Z sym.   atoms
    1    6 C      1-64
    2    1 H      65-106

          program call               : xtb data2507/gas/DPPP/DPPP.xyz --gfn 2 --ohess vtight --parallel 40 --molden --ceasefiles --namespace data2507/gas/DPPP/DPPP_gas_S0_preOpt
          :  Hamiltonian                  GFN2-xTB          :
 * total energy  :  -158.4540339 Eh     change       -0.3482455E-08 Eh
 * total energy  :  -158.4690649 Eh     change       -0.1503101E-01 Eh
 * total energy  :  -158.4729259 Eh     change       -0.3861004E-02 Eh
 * total energy  :  -158.4739168 Eh     change       -0.9909052E-03 Eh
 * total energy  :  -158.4745774 Eh     change       -0.6605492E-03 Eh
 * total energy  :  -158.4750145 Eh     change       -0.4371309E-03 Eh
 * total energy  :  -158.4755634 Eh     change       -0.5488550E-03 Eh
 * total energy  :  -158.4761424 Eh     change       -0.5790007E-03 Eh
 * total energy  :  -158.4766661 Eh     change       -0.5236939E-03 Eh
 * total energy  :  -158.4771166 Eh     change       -0.4505552E-03 Eh
 * total energy  :  -158.4940296 Eh     change       -0.1748939E-05 Eh
 * total energy  :  -158.4940314 Eh     change       -0.1763788E-05 Eh
 * total energy  :  -158.4940332 Eh     change       -0.1792662E-05 Eh
 * total energy  :  -158.4940350 Eh     change       -0.1772434E-05 Eh
 * total energy  :  -158.4940367 Eh     change       -0.1686373E-05 Eh
 * total energy  :  -158.4940382 Eh     change       -0.1577024E-05 Eh
 * total energy  :  -158.4940398 Eh     change       -0.1586394E-05 Eh
 * total energy  :  -158.4940414 Eh     change       -0.1591444E-05 Eh
 * total energy  :  -158.4940414 Eh     change       -0.7432362E-08 Eh
   *** GEOMETRY OPTIMIZATION CONVERGED AFTER 122 ITERATIONS ***

 final structure:
================
106
 xtb: 6.7.1 (edcfbbe)
C           -3.65520209435510       -1.12129904920029        4.64543494549865
C           -4.63328038357462       -1.69289974987383        3.84893649756395
C           -4.77147293746681       -1.30336758405296        2.53005038034456
C           -3.93692025137938       -0.32990780842506        1.98736089468357
C           -4.02904296732945        0.04951780025721        0.57036344180707
C           -3.84109550233303        1.36527470498280        0.16168895546792
C           -3.85763014530654        1.70304611915238       -1.18585471893247
C           -3.63982283410288        3.09749900711836       -1.59935057441776
C           -2.62337814848462        3.84820207942126       -1.01373409656488
C           -2.40760382427371        5.15790699697903       -1.39950170471841
C           -3.20701000813977        5.73892843623493       -2.36992978482168
C           -4.21868989365056        4.99955257405645       -2.95947885438669
C           -4.43069992311745        3.68645793452146       -2.58134178764769
C           -4.00948166700227        0.70022834448472       -2.13838489253669
C           -4.14058792257480       -0.62624172254838       -1.74957887076070
C           -4.04656632304783       -1.71282276099349       -2.74454820961424
C           -4.88338846194148       -1.77075938223282       -3.84965772238503
C           -4.76257898871151       -2.79415192396280       -4.77429849938999
C           -3.79690305287162       -3.77092985064409       -4.60239502729119
C           -2.94958735394828       -3.72039106871792       -3.50879406829716
C           -3.05434963934542       -2.69538828300741       -2.57919787210045
C           -2.17334991452967       -2.62549523512542       -1.39708391164705
C           -2.22144361594647       -3.63578735528841       -0.44344437843966
C           -1.61307622768879       -3.48511829627246        0.78600078108735
C           -0.95327665250243       -2.30045367901590        1.11302985599156
C           -0.41851800513902       -2.06053932383459        2.41053821017061
C            0.22663398779603       -0.90822483882259        2.70212014391583
C            0.41261231975900        0.10730215636183        1.71557131245363
C            1.17086656921978        1.26049969291811        1.96566066563347
C            1.95980331846769        1.42748817681245        3.20987007351801
C            1.42128460564037        1.98756553867609        4.35781260058423
C            2.21658059298070        2.20497755090770        5.47082097896078
C            3.56084057662349        1.87733978388995        5.43583207214867
C            4.10922432754711        1.31827500200909        4.29367188607278
C            3.31810174228650        1.07798262387950        3.18030986913609
C            3.84393638783482        0.47088710401504        1.94032120890979
C            4.81950557937224        1.09263728487875        1.17480345030951
C            5.17497674665877        0.57718763563927       -0.06968715114788
C            6.23948326489972        1.20950985028111       -0.86435330532969
C            7.17835377266964        0.42355663090137       -1.52858862561345
C            8.18919532741686        1.00796909560555       -2.26835721282578
C            8.27516290036275        2.38699532288984       -2.36187594269213
C            7.34421498202585        3.17778696078595       -1.70949008478078
C            6.33595956668075        2.59493007930221       -0.96433288148604
C            4.49407999538707       -0.52916504485815       -0.56869207522338
C            3.53113692815305       -1.17468995589240        0.19691554618868
C            2.71659944215098       -2.28074600334780       -0.33016870111605
C            2.13738879029501       -2.17614842737442       -1.59131407924519
C            1.29700751971288       -3.16750961273298       -2.06253948087958
C            1.03107063071232       -4.28123800335865       -1.28512097218336
C            1.60769333445132       -4.39757695235073       -0.03186548969092
C            2.43946892194350       -3.40271571284595        0.44535544402814
C            3.25994273015802       -0.69913258974847        1.47244526296126
C            1.29434565596981        2.23211679405038        0.97970327735114
C            0.71384911967548        2.06936886172440       -0.26126566168458
C            0.01742060614689        0.90048969568227       -0.57097905219378
C           -0.51242371193120        0.65695104287327       -1.86934979123900
C           -1.18951519298098       -0.48004235207311       -2.14704578590679
C           -1.39839940566766       -1.47872220716281       -1.15199603814234
C           -0.82205138466476       -1.29460609260811        0.12604695929847
C           -0.13780380921612       -0.09205801780332        0.42632787999115
C           -4.20737712742049       -0.93284874731463       -0.39538438586812
C           -2.96295844617567        0.24490510350255        2.80001783731447
C           -2.82198372376258       -0.15041112436651        4.11664697531724
H           -3.54330664787452       -1.43206221326333        5.67390867125103
H           -5.29028923943317       -2.44714787305151        4.25788844740075
H           -5.54342267781390       -1.74560772724512        1.91688814700918
H           -3.70836839043399        2.14149116542992        0.90100486906103
H           -1.98772196677676        3.39074279565748       -0.26891378725580
H           -1.61252964190072        5.72863691685680       -0.94138911382735
H           -3.04144718969003        6.76423311222872       -2.66670146332278
H           -4.84567455847856        5.44938772282052       -3.71579540542260
H           -5.22815956137256        3.11482997499767       -3.03422081825484
H           -3.95248301539361        0.94784099221661       -3.18883426114516
H           -5.64466656663095       -1.01372685625240       -3.97389546874684
H           -5.42350865217209       -2.82992398204166       -5.62785694054312
H           -3.70107902234096       -4.57081564800667       -5.32196576857283
H           -2.18421896464044       -4.47230960956140       -3.37830651064644
H           -2.79306949783838       -4.52898168415386       -0.65655431219516
H           -1.68414435932234       -4.27067164292382        1.52467683644323
H           -0.54742194343954       -2.82506481701301        3.16373370600923
H            0.62546885696694       -0.73407995986051        3.69222114857133
H            0.37520292591511        2.26010125831089        4.37294514865244
H            1.78754384057368        2.63905951702226        6.36209931371335
H            4.18390193132401        2.05714107680997        6.29963339046302
H            5.15683111360580        1.05448316183869        4.26421199141209
H            5.30355269265296        1.98410694379826        1.54731120852211
H            7.12320960109200       -0.65242421160737       -1.44554999011693
H            8.91456903777523        0.38577471788485       -2.77256844793484
H            9.06429665065531        2.84336036366448       -2.94114766738275
H            7.40409693816413        4.25413676354024       -1.78345087509964
H            5.60292849961014        3.21641516013120       -0.47051273184138
H            4.71564810180146       -0.88827172965969       -1.56334793045484
H            2.32566449354120       -1.29704862557396       -2.19064789315092
H            0.84272247006723       -3.06667885264948       -3.03761777729312
H            0.37380087593875       -5.05582782704928       -1.65167693779367
H            1.40413973166066       -5.26593861640867        0.57791715034400
H            2.89058142263241       -3.49890126569015        1.42257998692891
H            2.54573470917688       -1.22118227066245        2.08849574048323
H            1.87469347836972        3.11943919786210        1.19188419549784
H            0.82280954104093        2.83502937906771       -1.01638527513037
H           -0.35787496747918        1.40810779886440       -2.63134372477017
H           -1.57204744080850       -0.65999212676460       -3.14132262337108
H           -4.33769246593827       -1.95977179817243       -0.08967270510230
H           -2.29378119345708        0.98481331822414        2.38581611618686
H           -2.05375565131822        0.29535077166808        4.73178564613969

          :  Hamiltonian                  GFN2-xTB          :
         :: gradient norm              0.000254869105 Eh/a0 ::
         :: HOMO-LUMO gap              2.225705844406 eV    ::
         :: SCC energy              -161.645065858825 Eh    ::
         :: -> dispersion             -0.182646751593 Eh    ::
         :: repulsion energy           3.151024441810 Eh    ::

    * Orbital Energies and Occupations

         #    Occupation            Energy/Eh            Energy/eV
      -------------------------------------------------------------
         1        2.0000           -0.6522788             -17.7494
       ...           ...                  ...                  ...
       137        2.0000           -0.4011214             -10.9151
       138        2.0000           -0.4004215             -10.8960
       139        2.0000           -0.3993814             -10.8677
       140        2.0000           -0.3985585             -10.8453
       141        2.0000           -0.3967774             -10.7969
       142        2.0000           -0.3942613             -10.7284
       143        2.0000           -0.3915510             -10.6546
       144        2.0000           -0.3864751             -10.5165
       145        2.0000           -0.3822256             -10.4009
       146        2.0000           -0.3799454             -10.3388
       147        2.0000           -0.3792151             -10.3190
       148        2.0000           -0.3778486             -10.2818
       149        2.0000           -0.3565679              -9.7027 (HOMO)
       150                         -0.2747747              -7.4770 (LUMO)
       151                         -0.2456644              -6.6849
       152                         -0.2436121              -6.6290
       153                         -0.2435497              -6.6273
       154                         -0.2405910              -6.5468
       155                         -0.2368823              -6.4459
       156                         -0.2257698              -6.1435
       157                         -0.2237710              -6.0891
       158                         -0.2223731              -6.0511
       159                         -0.2218457              -6.0367
       160                         -0.2199291              -5.9846
       ...                                ...                  ...
       298                          0.7367167              20.0471
      -------------------------------------------------------------
                  HL-Gap            0.0817932 Eh            2.2257 eV

     #   Z          covCN         q      C6AA      α(0)
     1   6 C        2.920    -0.032    28.789     8.799
     2   6 C        2.919    -0.030    28.749     8.793
     3   6 C        2.925    -0.034    28.836     8.806
     4   6 C        2.978     0.010    27.781     8.646
     5   6 C        2.975     0.008    27.837     8.654
     6   6 C        2.931    -0.041    29.013     8.834
     7   6 C        2.976     0.008    27.838     8.655
     8   6 C        2.979     0.011    27.765     8.643
     9   6 C        2.925    -0.032    28.805     8.802
    10   6 C        2.919    -0.029    28.733     8.790
    11   6 C        2.920    -0.032    28.791     8.799
    12   6 C        2.919    -0.030    28.746     8.792
    13   6 C        2.925    -0.033    28.830     8.805
    14   6 C        2.930    -0.040    28.988     8.830
    15   6 C        2.975     0.009    27.805     8.649
    16   6 C        2.983     0.007    27.853     8.657
    17   6 C        2.921    -0.034    28.847     8.808
    18   6 C        2.918    -0.032    28.806     8.801
    19   6 C        2.918    -0.032    28.805     8.801
    20   6 C        2.921    -0.034    28.838     8.806
    21   6 C        2.982     0.009    27.819     8.652
    22   6 C        2.978     0.005    27.908     8.666
    23   6 C        2.920    -0.034    28.853     8.808
    24   6 C        2.919    -0.037    28.917     8.818
    25   6 C        2.983     0.009    27.801     8.649
    26   6 C        2.914    -0.035    28.864     8.810
    27   6 C        2.913    -0.033    28.815     8.802
    28   6 C        2.984     0.009    27.815     8.651
    29   6 C        2.978     0.003    27.945     8.671
    30   6 C        2.985     0.009    27.820     8.652
    31   6 C        2.921    -0.033    28.822     8.804
    32   6 C        2.919    -0.033    28.812     8.802
    33   6 C        2.919    -0.032    28.808     8.802
    34   6 C        2.921    -0.034    28.837     8.806
    35   6 C        2.985     0.006    27.870     8.660
    36   6 C        2.976     0.009    27.817     8.651
    37   6 C        2.928    -0.041    29.027     8.836
    38   6 C        2.975     0.008    27.844     8.656
    39   6 C        2.978     0.011    27.770     8.644
    40   6 C        2.926    -0.034    28.837     8.806
    41   6 C        2.918    -0.030    28.741     8.791
    42   6 C        2.920    -0.031    28.785     8.798
    43   6 C        2.919    -0.030    28.746     8.792
    44   6 C        2.925    -0.033    28.834     8.806
    45   6 C        2.929    -0.042    29.036     8.837
    46   6 C        2.975     0.008    27.836     8.654
    47   6 C        2.979     0.010    27.777     8.645
    48   6 C        2.926    -0.032    28.791     8.799
    49   6 C        2.919    -0.027    28.687     8.783
    50   6 C        2.921    -0.029    28.734     8.790
    51   6 C        2.919    -0.029    28.722     8.789
    52   6 C        2.925    -0.033    28.828     8.805
    53   6 C        2.937    -0.041    29.030     8.836
    54   6 C        2.921    -0.035    28.869     8.811
    55   6 C        2.919    -0.038    28.934     8.821
    56   6 C        2.984     0.009    27.812     8.651
    57   6 C        2.914    -0.036    28.889     8.814
    58   6 C        2.914    -0.032    28.796     8.799
    59   6 C        2.986     0.007    27.848     8.656
    60   6 C        2.998     0.004    27.934     8.670
    61   6 C        2.997     0.003    27.955     8.673
    62   6 C        2.933    -0.039    28.971     8.827
    63   6 C        2.926    -0.031    28.763     8.795
    64   6 C        2.919    -0.028    28.707     8.786
    65   1 H        0.926     0.029     2.602     2.523
    66   1 H        0.926     0.029     2.601     2.522
    67   1 H        0.926     0.030     2.583     2.513
    68   1 H        0.926     0.032     2.559     2.502
    69   1 H        0.926     0.030     2.592     2.518
    70   1 H        0.926     0.029     2.607     2.525
    71   1 H        0.926     0.029     2.606     2.525
    72   1 H        0.926     0.029     2.602     2.522
    73   1 H        0.926     0.030     2.587     2.515
    74   1 H        0.926     0.031     2.577     2.510
    75   1 H        0.926     0.031     2.573     2.508
    76   1 H        0.926     0.030     2.590     2.517
    77   1 H        0.926     0.030     2.590     2.517
    78   1 H        0.926     0.030     2.586     2.515
    79   1 H        0.925     0.029     2.605     2.524
    80   1 H        0.926     0.030     2.590     2.517
    81   1 H        0.926     0.028     2.615     2.529
    82   1 H        0.925     0.029     2.595     2.519
    83   1 H        0.926     0.029     2.607     2.525
    84   1 H        0.926     0.030     2.592     2.518
    85   1 H        0.926     0.030     2.591     2.517
    86   1 H        0.926     0.031     2.571     2.507
    87   1 H        0.926     0.031     2.572     2.508
    88   1 H        0.926     0.031     2.575     2.510
    89   1 H        0.926     0.029     2.603     2.523
    90   1 H        0.926     0.029     2.607     2.525
    91   1 H        0.926     0.029     2.605     2.524
    92   1 H        0.926     0.030     2.586     2.515
    93   1 H        0.926     0.032     2.563     2.503
    94   1 H        0.926     0.028     2.614     2.529
    95   1 H        0.926     0.027     2.624     2.533
    96   1 H        0.926     0.026     2.639     2.540
    97   1 H        0.926     0.028     2.609     2.526
    98   1 H        0.926     0.030     2.593     2.518
    99   1 H        0.926     0.034     2.533     2.489
   100   1 H        0.925     0.026     2.644     2.543
   101   1 H        0.926     0.031     2.576     2.510
   102   1 H        0.926     0.029     2.605     2.524
   103   1 H        0.926     0.029     2.598     2.520
   104   1 H        0.926     0.030     2.588     2.516
   105   1 H        0.926     0.027     2.626     2.534
   106   1 H        0.926     0.028     2.615     2.529

molecular dipole:
                 x           y           z       tot (Debye)
 q only:       -0.055      -0.053      -0.006
   full:       -0.038      -0.054      -0.025       0.181

 projected vibrational frequencies (cm⁻¹)
eigval :       -0.00    -0.00    -0.00    -0.00     0.00     0.00
eigval :        5.62     8.03    11.40    15.24    28.86    34.35
eigval :       35.61    40.20    43.99    46.27    49.53    52.47
eigval :       53.20    54.32    59.59    62.25    66.49    76.30
eigval :       82.60   100.62   111.60   112.56   115.75   128.80
eigval :      130.19   136.79   154.11   168.32   185.35   191.15
eigval :      194.77   217.42   227.57   230.76   247.97   254.56
eigval :      256.37   262.68   269.72   281.90   284.71   293.47
eigval :      300.28   307.70   312.27   322.54   346.84   351.12
eigval :      354.41   365.63   372.37   372.80   372.88   374.68
eigval :      377.29   380.70   395.55   399.18   414.95   418.26
eigval :      448.35   474.58   476.37   478.43   482.14   485.89
eigval :      494.66   497.20   513.26   531.02   545.85   547.76
eigval :      553.50   557.44   560.71   581.14   581.29   583.22
eigval :      585.02   586.16   586.57   588.25   590.32   606.24
eigval :      607.50   608.72   613.60   628.39   642.10   646.30
eigval :      648.33   651.29   667.30   669.71   672.64   673.86
eigval :      675.02   678.12   682.90   685.49   695.41   715.04
eigval :      719.24   722.86   742.55   754.82   754.99   757.33
eigval :      759.24   764.52   781.35   782.07   802.99   812.73
eigval :      823.10   827.70   828.57   830.48   830.70   841.48
eigval :      843.72   847.13   851.71   875.30   877.03   877.19
eigval :      878.72   878.80   885.42   886.66   892.57   894.34
eigval :      899.47   899.88   903.10   904.53   907.34   911.62
eigval :      913.31   916.99   917.25   917.54   925.53   928.17
eigval :      928.93   929.24   929.94   930.16   930.38   930.52
eigval :      931.04   932.36   932.52   933.69   952.86   955.15
eigval :      986.52   986.55   990.99   991.50   995.10   998.04
eigval :     1045.79  1064.57  1083.38  1085.04  1085.49  1086.91
eigval :     1089.38  1092.14  1098.10  1109.34  1111.02  1119.84
eigval :     1120.72  1121.65  1122.12  1122.61  1124.51  1131.18
eigval :     1140.53  1150.54  1155.70  1165.57  1180.94  1181.32
eigval :     1182.41  1182.60  1182.71  1183.02  1186.75  1199.52
eigval :     1200.51  1200.73  1201.05  1203.20  1209.53  1228.22
eigval :     1228.77  1238.67  1243.40  1244.98  1246.94  1249.06
eigval :     1250.33  1253.68  1254.47  1281.74  1281.89  1282.78
eigval :     1284.27  1288.76  1291.83  1304.85  1305.87  1312.13
eigval :     1317.00  1317.68  1319.91  1320.17  1322.81  1323.31
eigval :     1324.50  1354.01  1354.53  1365.95  1379.99  1388.05
eigval :     1412.39  1414.16  1414.62  1416.65  1421.69  1423.51
eigval :     1435.19  1436.05  1439.09  1439.24  1448.27  1448.65
eigval :     1455.83  1471.61  1473.86  1485.97  1486.40  1487.99
eigval :     1488.16  1499.95  1506.40  1535.37  1563.86  1566.50
eigval :     1568.99  1569.24  1577.85  1578.71  1579.26  1579.44
eigval :     1584.87  1584.92  1586.38  1587.84  1594.01  1596.71
eigval :     1601.01  1601.14  1602.23  1602.78  1606.54  1608.44
eigval :     3062.78  3064.29  3065.21  3067.75  3068.94  3069.05
eigval :     3069.28  3069.73  3069.85  3070.32  3070.97  3071.01
eigval :     3071.35  3071.63  3072.92  3073.01  3075.88  3076.56
eigval :     3077.71  3078.33  3078.45  3078.76  3079.22  3079.54
eigval :     3080.02  3080.80  3081.35  3081.52  3082.23  3083.17
eigval :     3083.46  3084.05  3084.61  3086.12  3090.42  3090.45
eigval :     3090.80  3091.19  3091.30  3091.83  3095.48  3111.64

   temp. (K)  partition function   enthalpy   heat capacity  entropy
                                   cal/mol     cal/K/mol   cal/K/mol   J/K/mol
 298.15  VIB  0.983E+24            29875.769    189.067    187.858
         ROT  0.120E+09              888.752      2.981     39.954
         INT  0.118E+33            30764.521    192.048    227.813
         TR   0.223E+29             1481.254      4.968     45.936
         TOT                       32245.7754   197.0159   273.7489  1145.3653

       T/K    H(0)-H(T)+PV         H(T)/Eh          T*S/Eh         G(T)/Eh
   ------------------------------------------------------------------------
    298.15    0.513869E-01    0.877522E+00    0.130067E+00    0.747455E+00
   ------------------------------------------------------------------------

         :::::::::::::::::::::::::::::::::::::::::::::::::::::
         ::                  THERMODYNAMIC                  ::
         :::::::::::::::::::::::::::::::::::::::::::::::::::::
         :: total free energy        -157.746586494856 Eh   ::
         ::.................................................::
         :: total energy             -158.494041417015 Eh   ::
         :: zero point energy           0.826134934020 Eh   ::
         :: G(RRHO) w/o ZPVE           -0.078680011861 Eh   ::
         :: G(RRHO) contrib.            0.747454922159 Eh   ::
         :::::::::::::::::::::::::::::::::::::::::::::::::::::

           -------------------------------------------------
          | TOTAL ENERGY             -158.494041417015 Eh   |
          | TOTAL ENTHALPY           -157.616519568966 Eh   |
          | TOTAL FREE ENERGY        -157.746586494856 Eh   |
          | GRADIENT NORM               0.000254868423 Eh/α |
          | HOMO-LUMO GAP               2.225705870925 eV   |
           -------------------------------------------------

 * finished run on 2025/09/10 at 10:50:40.339
