   * xtb version 6.7.1 (edcfbbe) compiled by 'albert@albert-system' on 2024-07-22

   ID    Z sym.   atoms
    1    6 C      1-64
    2    1 H      65-106

          program call               : xtb data2507/gas/DPPP/DPPP_gas_T1_crest.xyz --gfn 2 --spinpol --tblite --uhf 2 --ohess vtight --parallel 40 --molden --ceasefiles --namespace data2507/gas/DPPP/DPPP_gas_T1_finalOpt
 * total energy  :  -158.4323416 Eh     change       -0.1543782E-07 Eh
 * total energy  :  -158.4323646 Eh     change       -0.2301100E-04 Eh
 * total energy  :  -158.4323739 Eh     change       -0.9289671E-05 Eh
 * total energy  :  -158.4323765 Eh     change       -0.2605351E-05 Eh
 * total energy  :  -158.4323796 Eh     change       -0.3186582E-05 Eh
 * total energy  :  -158.4323817 Eh     change       -0.2067655E-05 Eh
 * total energy  :  -158.4323831 Eh     change       -0.1432752E-05 Eh
 * total energy  :  -158.4323840 Eh     change       -0.8669957E-06 Eh
 * total energy  :  -158.4323846 Eh     change       -0.5924219E-06 Eh
 * total energy  :  -158.4323853 Eh     change       -0.6464452E-06 Eh
 * total energy  :  -158.4323915 Eh     change       -0.6963726E-06 Eh
 * total energy  :  -158.4323919 Eh     change       -0.3919817E-06 Eh
 * total energy  :  -158.4323918 Eh     change        0.1068070E-06 Eh
 * total energy  :  -158.4323919 Eh     change       -0.1081268E-06 Eh
 * total energy  :  -158.4323920 Eh     change       -0.1065357E-06 Eh
 * total energy  :  -158.4323922 Eh     change       -0.2463609E-06 Eh
 * total energy  :  -158.4323923 Eh     change       -0.1158247E-06 Eh
 * total energy  :  -158.4323925 Eh     change       -0.1813242E-06 Eh
 * total energy  :  -158.4323926 Eh     change       -0.3763691E-07 Eh
   *** GEOMETRY OPTIMIZATION CONVERGED AFTER 28 ITERATIONS ***

 final structure:
================
106
 xtb: 6.7.1 (edcfbbe)
C            0.49889231953547        1.82239410201765        4.46601481597725
C           -0.18268276121274        0.68108285552615        4.85350756143790
C           -1.25468128071775        0.22415271309133        4.11060721385139
C           -1.66769345833459        0.90453587709437        2.96785704883760
C           -2.76175694659918        0.39764864453880        2.12739987460032
C           -3.62298377753067        1.26931442774223        1.46934596181706
C           -4.59901063294687        0.79261267931360        0.60264921712338
C           -5.48802062737131        1.72661057311195       -0.10404330241981
C           -6.84634828092872        1.45492147026626       -0.24272582826333
C           -7.67451025894808        2.33521453534161       -0.91418693464140
C           -7.15681353723791        3.49555909115170       -1.46491699184221
C           -5.80558393339890        3.77204062047415       -1.33829133428525
C           -4.97746698726144        2.89672009520063       -0.66102259742316
C           -4.68359651745779       -0.57468882092786        0.36173583448666
C           -3.81054073585488       -1.45920680362558        0.98227479765831
C           -3.78729127586183       -2.87523891977103        0.57610440579219
C           -4.96694624780329       -3.60330445078723        0.50260346859148
C           -4.96399289601225       -4.93804237235046        0.13702344788586
C           -3.76408027003076       -5.56497543571923       -0.16125780602830
C           -2.58144594029035       -4.85658591747118       -0.09448282310582
C           -2.56526950808473       -3.50447372714178        0.25587702960796
C           -1.29855851653375       -2.78713252162364        0.34099847463364
C           -0.25479881705584       -3.33107466340671        1.09779828836525
C            0.81911208725097       -2.57384714868291        1.48499778830644
C            0.90932163809045       -1.19396167648097        1.12352154317216
C            1.90488838157921       -0.35891061195019        1.62061437596112
C            2.00225645333683        0.96169308714932        1.20259850082383
C            1.14217837344571        1.46872702715524        0.23116129919912
C            1.30560247375987        2.78790448651355       -0.33001189837783
C            2.57358676572653        3.50328030525692       -0.24652424283043
C            2.59332655717250        4.85481908462916        0.10555327955512
C            3.77778869340507        5.56032035651420        0.17129529609564
C            4.97573237660968        4.93096104738434       -0.12971004095327
C            4.97504208740108        3.59675929664984       -0.49734305658053
C            3.79354812163493        2.87165382485431       -0.56996378280624
C            3.81212732837330        1.45650671098868       -0.97956524864900
C            2.88821176737838        0.97125403994216       -1.89904519310441
C            2.75575466396059       -0.39370016854348       -2.12865871651872
C            1.65894108908621       -0.89480997816119       -2.96897117058885
C            0.97075594596504       -2.04836270998010       -2.59928578497327
C           -0.10648528153716       -2.49570957802576       -3.33980431031545
C           -0.51209114207083       -1.80233786407397       -4.46706114737022
C            0.17082552810841       -0.66059243985238       -4.85090320288694
C            1.24507370014030       -0.20884541634972       -4.10809364218568
C            3.61585858831100       -1.26984749797834       -1.47513680045637
C            4.59499737189974       -0.79867572206559       -0.60894383881678
C            5.48356033382211       -1.73791075073458        0.09133110475958
C            4.97156889573920       -2.90886096899898        0.64520828020508
C            5.79974407357469       -3.78987634357237        1.31498188617338
C            7.15238504915172       -3.51829499082384        1.43708446556065
C            7.67143079722551       -2.35698481007998        0.88966869985801
C            6.84325706845387       -1.47100860671763        0.22573602612900
C            4.68387308335007        0.56757013392433       -0.36353668080782
C            0.26154037428987        3.33240260665297       -1.08593180342743
C           -0.81253182555718        2.57523880290432       -1.47296037326959
C           -0.90255702810430        1.19514824259446       -1.11203895230729
C           -1.89769235999851        0.35989657969626       -1.60966945574088
C           -1.99475564033916       -0.96085963026524       -1.19205937248426
C           -1.13529060987798       -1.46784918757525       -0.22001056004594
C           -0.05624936096835       -0.66605115215194        0.22978665958600
C            0.06289881578419        0.66709324573924       -0.21827433471631
C           -2.88973919086650       -0.96843160277760        1.90192182578522
C           -0.98100864710088        2.05782179800735        2.59455137770681
C            0.09411321192584        2.51022266905517        3.33507334609949
H            1.34152950153022        2.17369646797148        5.04320714724390
H            0.12399418122801        0.14360989005600        5.73935746200716
H           -1.78826325297891       -0.65994164500655        4.42833423561559
H           -3.55222472911995        2.33097221323290        1.65400107590797
H           -7.25602685198958        0.55681171264846        0.19680220898536
H           -8.72847272017709        2.11658165181332       -1.00807941615860
H           -7.80386469279209        4.18149599019235       -1.99160706625441
H           -5.39652237090507        4.67380503922505       -1.77104273550799
H           -3.92062969646290        3.10546826439274       -0.57675873785876
H           -5.38946008632021       -0.94430142645228       -0.36829654811581
H           -5.89753640111689       -3.11870282151151        0.76203137385743
H           -5.89173583903244       -5.48872759735832        0.09112914056228
H           -3.75323743903832       -6.60637793143247       -0.44816093370117
H           -1.64901699687867       -5.34121992506869       -0.34724677298173
H           -0.35004362539624       -4.34717733431031        1.45674556365720
H            1.58806188620909       -2.99165272797688        2.11835335207276
H            2.61872972752723       -0.74860810920781        2.33191821738714
H            2.76825092518103        1.59738477642141        1.62059008141712
H            1.66239890383136        5.34127634822957        0.36034533523198
H            3.76989873556254        6.60137078417576        0.45956357565033
H            5.90483149869067        5.47941375466073       -0.08447866143587
H            5.90406037887956        3.11040635054935       -0.75910964470143
H            2.22860922694036        1.66143823730908       -2.40290854498611
H            1.26368108314727       -2.58189218141754       -1.70725881910215
H           -0.63667395693774       -3.38511939740630       -3.03096149613542
H           -1.35641132601488       -2.14965090926244       -5.04421064181560
H           -0.13650725986371       -0.11877061271648       -5.73387421284132
H            1.77971769137498        0.67555917058440       -4.42314727062726
H            3.54198103511015       -2.33069193388648       -1.66318422721253
H            3.91372679833038       -3.11389315187313        0.56441077835765
H            5.38966338218431       -4.69237265991613        1.74523453016217
H            7.79950993266043       -4.20882717415403        1.95764383573728
H            8.72646940979661       -2.14212558529070        0.98010368318215
H            7.25388332406400       -0.57215622940934       -0.21138328583796
H            5.39237172247631        0.93280240577098        0.36614285911214
H            0.35678302459994        4.34862158722134       -1.44456247342957
H           -1.58164541724093        2.99322681743236       -2.10599391806658
H           -2.61135971135725        0.74941386854469       -2.32124447173729
H           -2.76018735424047       -1.59669045497844       -1.61082944740064
H           -2.22897135520895       -1.65507813073430        2.40912151047609
H           -1.27339957055585        2.58707970261544        1.69980867009508
H            0.62335415441399        3.39919369522180        3.02336036827490

 projected vibrational frequencies (cm⁻¹)
eigval :       -0.00    -0.00    -0.00     0.00     0.00     0.00
eigval :       10.62    12.45    13.03    15.80    28.70    38.41
eigval :       39.39    40.45    43.22    48.08    50.16    54.05
eigval :       55.82    57.57    57.98    74.83    78.40    84.27
eigval :       86.84   104.66   115.19   118.20   124.27   129.32
eigval :      130.82   144.32   160.82   171.01   190.94   194.43
eigval :      194.56   212.45   231.64   232.81   253.47   255.45
eigval :      261.93   264.84   270.12   274.92   286.24   290.44
eigval :      293.98   309.61   311.53   324.23   346.27   357.47
eigval :      366.20   370.32   371.68   374.05   375.78   380.14
eigval :      380.20   382.45   389.78   395.72   405.51   409.65
eigval :      432.97   450.61   469.82   477.49   483.47   485.11
eigval :      491.40   493.45   504.66   507.40   534.95   536.10
eigval :      552.16   553.48   560.46   581.25   581.36   583.83
eigval :      584.84   585.42   586.03   586.17   589.59   599.80
eigval :      603.97   605.24   609.29   616.74   619.21   635.02
eigval :      644.93   648.54   662.76   665.45   665.90   673.80
eigval :      673.95   675.26   679.96   682.28   686.05   707.43
eigval :      709.40   718.67   737.06   739.39   754.48   754.81
eigval :      763.43   764.09   765.12   773.16   779.38   784.83
eigval :      807.05   814.86   817.25   827.13   827.39   830.19
eigval :      830.51   841.80   841.95   876.64   876.95   877.36
eigval :      877.97   878.13   880.52   881.38   886.69   887.70
eigval :      893.59   893.78   899.56   899.93   901.88   902.25
eigval :      904.81   904.91   907.45   907.66   916.12   916.27
eigval :      925.14   925.16   929.51   929.54   930.99   931.01
eigval :      932.53   932.55   933.50   933.54   951.03   954.32
eigval :      976.71   986.30   986.34   990.67   991.01   992.68
eigval :     1042.59  1061.12  1081.57  1085.13  1085.71  1088.27
eigval :     1090.71  1096.24  1098.39  1109.12  1120.35  1120.37
eigval :     1121.37  1123.55  1123.62  1125.43  1126.00  1128.41
eigval :     1139.52  1148.17  1155.22  1155.88  1165.86  1181.25
eigval :     1181.39  1182.71  1182.77  1183.20  1183.23  1199.95
eigval :     1199.99  1203.25  1205.17  1205.25  1205.95  1220.64
eigval :     1227.77  1232.52  1234.11  1245.51  1245.79  1250.90
eigval :     1251.65  1253.86  1254.57  1269.64  1276.83  1281.78
eigval :     1281.80  1285.43  1285.48  1305.73  1308.83  1309.87
eigval :     1316.94  1318.11  1319.06  1320.78  1321.09  1326.14
eigval :     1326.26  1336.97  1345.85  1353.02  1354.01  1378.88
eigval :     1384.82  1391.79  1408.07  1411.79  1414.39  1416.58
eigval :     1419.10  1428.27  1431.73  1436.62  1437.73  1440.33
eigval :     1442.93  1454.66  1454.77  1464.26  1470.09  1481.05
eigval :     1485.71  1485.85  1487.75  1487.78  1502.57  1516.29
eigval :     1523.10  1547.31  1547.48  1567.25  1573.61  1574.10
eigval :     1576.39  1576.70  1579.24  1580.82  1583.80  1583.80
eigval :     1585.30  1585.36  1600.56  1600.56  1602.02  1602.03
eigval :     3060.20  3060.40  3069.55  3069.62  3069.75  3069.78
eigval :     3070.36  3070.43  3071.11  3071.21  3071.75  3071.83
eigval :     3072.26  3072.37  3073.13  3073.14  3077.53  3077.58
eigval :     3078.85  3079.27  3079.79  3079.93  3080.76  3080.89
eigval :     3081.33  3081.39  3083.30  3083.39  3084.67  3084.96
eigval :     3087.84  3088.01  3088.30  3089.67  3091.17  3091.25
eigval :     3091.36  3091.87  3092.32  3092.49  3093.00  3093.16

   temp. (K)  partition function   enthalpy   heat capacity  entropy
                                   cal/mol     cal/K/mol   cal/K/mol   J/K/mol
 298.15  VIB  0.119E+24            29882.400    190.834    185.954
         ROT  0.109E+09              888.752      2.981     39.767
         INT  0.130E+32            30771.152    193.815    225.721
         TR   0.223E+29             1481.254      4.968     45.936
         TOT                       32252.4059   198.7827   271.6573  1136.6140

       T/K    H(0)-H(T)+PV         H(T)/Eh          T*S/Eh         G(T)/Eh
   ------------------------------------------------------------------------
    298.15    0.513975E-01    0.874802E+00    0.129073E+00    0.745729E+00
   ------------------------------------------------------------------------

         :::::::::::::::::::::::::::::::::::::::::::::::::::::
         ::                  THERMODYNAMIC                  ::
         :::::::::::::::::::::::::::::::::::::::::::::::::::::
         :: total free energy        -157.686663339661 Eh   ::
         ::.................................................::
         :: total energy             -158.432392595474 Eh   ::
         :: zero point energy           0.823404912719 Eh   ::
         :: G(RRHO) w/o ZPVE           -0.077675656907 Eh   ::
         :: G(RRHO) contrib.            0.745729255813 Eh   ::
         :::::::::::::::::::::::::::::::::::::::::::::::::::::

           -------------------------------------------------
          | TOTAL ENERGY             -158.432392595474 Eh   |
          | TOTAL ENTHALPY           -157.557590202384 Eh   |
          | TOTAL FREE ENERGY        -157.686663339661 Eh   |
          | GRADIENT NORM               0.000041651388 Eh/α |
           -------------------------------------------------

 * finished run on 2025/09/10 at 11:05:43.825
