   * xtb version 6.7.1 (edcfbbe) compiled by 'albert@albert-system' on 2024-07-22

   ID    Z sym.   atoms
    1    6 C      1-64
    2    1 H      65-106

          program call               : xtb data2507/gas/DPPP/DPPP_gas_S0_crest.xyz --gfn 2 --ohess vtight --parallel 40 --molden --ceasefiles --namespace data2507/gas/DPPP/DPPP_gas_S0_finalOpt
          :  Hamiltonian                  GFN2-xTB          :
 * total energy  :  -158.4974298 Eh     change       -0.4285994E-08 Eh
 * total energy  :  -158.4974311 Eh     change       -0.1321481E-05 Eh
 * total energy  :  -158.4974332 Eh     change       -0.2061479E-05 Eh
 * total energy  :  -158.4974362 Eh     change       -0.3012883E-05 Eh
 * total energy  :  -158.4974383 Eh     change       -0.2123939E-05 Eh
 * total energy  :  -158.4974399 Eh     change       -0.1623375E-05 Eh
 * total energy  :  -158.4974418 Eh     change       -0.1920879E-05 Eh
 * total energy  :  -158.4974436 Eh     change       -0.1742033E-05 Eh
 * total energy  :  -158.4974444 Eh     change       -0.7954317E-06 Eh
 * total energy  :  -158.4974449 Eh     change       -0.5572901E-06 Eh
 * total energy  :  -158.4974464 Eh     change       -0.7155188E-06 Eh
 * total energy  :  -158.4974468 Eh     change       -0.4214795E-06 Eh
 * total energy  :  -158.4974472 Eh     change       -0.3820430E-06 Eh
 * total energy  :  -158.4974477 Eh     change       -0.5217856E-06 Eh
 * total energy  :  -158.4974482 Eh     change       -0.5200613E-06 Eh
 * total energy  :  -158.4974486 Eh     change       -0.3508224E-06 Eh
 * total energy  :  -158.4974488 Eh     change       -0.2150447E-06 Eh
 * total energy  :  -158.4974489 Eh     change       -0.1306756E-06 Eh
 * total energy  :  -158.4974489 Eh     change       -0.1662065E-07 Eh
   *** GEOMETRY OPTIMIZATION CONVERGED AFTER 20 ITERATIONS ***

 final structure:
================
106
 xtb: 6.7.1 (edcfbbe)
C            0.46934066351096        1.89404717059848        4.41908195023307
C           -0.24394662745902        0.79244483757764        4.86046914424197
C           -1.32866316280423        0.33051042909853        4.13911255480971
C           -1.72296031144528        0.96753680386871        2.96566906551828
C           -2.82673842809609        0.44953464213808        2.14427321087675
C           -3.67973186912860        1.31068387104724        1.46233400243541
C           -4.65849136901475        0.81773958840079        0.60821900094993
C           -5.54851344733847        1.73785122457547       -0.11558074804735
C           -5.03750899573295        2.89067149415558       -0.70678759378168
C           -5.86803245761033        3.75314470570839       -1.39757516537546
C           -7.22170664203258        3.48045113628021       -1.50436141722151
C           -7.73956001962921        2.33646801435596       -0.92058897047453
C           -6.90915874483600        1.46922864182864       -0.23505049668034
C           -4.74316159571577       -0.55382175848932        0.39387129745742
C           -3.87467980796464       -1.42808325615694        1.03606918502820
C           -3.84230740870224       -2.84692702730945        0.63206883480492
C           -5.01668900596686       -3.58509866920550        0.55103777170548
C           -5.00457339283851       -4.90260684480575        0.12916233812831
C           -3.80801106624979       -5.50032841554804       -0.22733284505240
C           -2.63015744041081       -4.77922149576519       -0.15070449118023
C           -2.62696604009832       -3.45446109442831        0.26966615244736
C           -1.35679052180891       -2.71856898905158        0.40770770376453
C           -0.37774477667407       -3.23686844087291        1.25074673543598
C            0.72473497428106       -2.48978228079107        1.61164511649797
C            0.87070741308434       -1.17625012862884        1.16244030161296
C            1.91348594267803       -0.32705804218510        1.62703325537892
C            2.04825280671640        0.93495064948940        1.16162618152688
C            1.16719647409551        1.45412207229705        0.16884742021024
C            1.35896714456380        2.71811906095951       -0.41703287799935
C            2.62843106203423        3.45483699469414       -0.27677888313188
C            2.62965696600686        4.78036492608731        0.14125563647692
C            3.80688885310618        5.50223103170600        0.22016304040951
C            5.00493063046283        4.90443679122503       -0.13123847516635
C            5.01907008050952        3.58614950420359       -0.55065440349651
C            3.84525157229617        2.84745904868674       -0.63436018759717
C            3.87876316079736        1.42812260843061       -1.03654746075494
C            2.97059426885320        0.92115814629734       -1.95914111038747
C            2.83429415015775       -0.44907332885938       -2.14846639831132
C            1.73450629857445       -0.96628212653658       -2.97564209316847
C            1.00993175281852       -2.07689238007269       -2.54869237634279
C           -0.07522902106423       -2.53206599510594       -3.27281264011851
C           -0.45098650213668       -1.89056760929523       -4.44043879463815
C            0.26868389922456       -0.79263542372682       -4.88069798600458
C            1.34995269315329       -0.33165029573897       -4.15359716265190
C            3.68135233267521       -1.31076501875694       -1.45988307560736
C            4.65542277719396       -0.81843316830434       -0.60007164239998
C            5.53643123167645       -1.73945992457134        0.13352370719702
C            5.01572892820998       -2.88821387920930        0.72424777066862
C            5.83664634119401       -3.75129777346336        1.42563962902169
C            7.19034645693326       -3.48336087298017        1.54359212458723
C            7.71782797160662       -2.34359218987522        0.96018799608230
C            6.89696135687001       -1.47562263599526        0.26412327022872
C            4.74194842344030        0.55335920429275       -0.38792930037285
C            0.38106938262408        3.23559487325620       -1.26184038287565
C           -0.72176980935313        2.48880744487062       -1.62238669588021
C           -0.86887089250432        1.17596173317299       -1.17170412693424
C           -1.91295061125166        0.32740529779450       -1.63467970754695
C           -2.04822348304517       -0.93431567222466       -1.16867023277652
C           -1.16577593221446       -1.45417922611134       -0.17747362562286
C           -0.07073737384218       -0.66057137066265        0.23924930564891
C            0.07246330059188        0.66036951014149       -0.24834512521924
C           -2.96217832076113       -0.92070852100057        1.95419901014998
C           -1.00444129197813        2.08161645460203        2.53742954380946
C            0.08392549388326        2.53799218266484        3.25594634842918
H            1.32212379245180        2.24852673245770        4.97913946205164
H            0.04821184212346        0.28950890496102        5.77116830118022
H           -1.88631503322852       -0.52321952055571        4.49629178832644
H           -3.60006379105128        2.37631214553329        1.61903838621090
H           -3.97874162007465        3.09600036032940       -0.63833701184273
H           -5.45888865699197        4.64189956655216       -1.85639284579976
H           -7.87059537650397        4.15661545314864       -2.04135348725518
H           -8.79534386136441        2.12063534298714       -0.99938866154710
H           -7.31835748672190        0.58387032699264        0.23011892216548
H           -5.44669008701391       -0.93664322783058       -0.33177254302565
H           -5.94833817235581       -3.12034078227348        0.84097002108196
H           -5.92737541481425       -5.46156674911834        0.07847188872287
H           -3.79166795335740       -6.52708484414164       -0.56229030433167
H           -1.69455657412092       -5.24063227114824       -0.43447164350588
H           -0.51850532500517       -4.22412250108767        1.66942473682629
H            1.46108532741121       -2.90154372798929        2.28768011493793
H            2.59314981906446       -0.71378478933246        2.37325726480428
H            2.82615946351851        1.57836260508322        1.54493344189125
H            1.69295949564583        5.24178502815771        0.42137090687767
H            3.78893249496475        6.52964969654444        0.55300955426884
H            5.92726245156246        5.46399057745014       -0.07859941032170
H            5.95186547557318        3.12114811157468       -0.83649379729021
H            2.31828735688934        1.59669439082678       -2.49113013362226
H            1.28217671094782       -2.56857594837089       -1.62638647034373
H           -0.63487597816609       -3.38650028648755       -2.92038030161010
H           -1.30110566604423       -2.24419123679439       -5.00507158122511
H           -0.01577844353158       -0.29193157687034       -5.79506885773267
H            1.91260864076638        0.51931077019182       -4.50958545960837
H            3.60026638105385       -2.37649017969509       -1.61520835671527
H            3.95683253489901       -3.08968766651699        0.64700016051521
H            5.41994387187264       -4.63672362579667        1.88410138573805
H            7.83174920428437       -4.15995991265905        2.08896881703936
H            8.77369254470707       -2.13154530414485        1.04769067623913
H            7.31369673689489       -0.59343972925646       -0.20039801476215
H            5.44186663535912        0.93612271283614        0.34123868049400
H            0.52252499601253        4.22226742739288       -1.68165214878759
H           -1.45750699428337        2.90038640218988       -2.29919075236485
H           -2.59346292919683        0.71460654679665       -2.37988635288198
H           -2.82777189347031       -1.57692625717116       -1.55003086914045
H           -2.30620050898899       -1.59583175996921        2.48211648577672
H           -1.28402285988760        2.57521789587585        1.61834231816556
H            0.63845974036221        3.39543988174976        2.90275441073792

          :  Hamiltonian                  GFN2-xTB          :
         :: gradient norm              0.000102332595 Eh/a0 ::
         :: HOMO-LUMO gap              2.123281923494 eV    ::
         :: SCC energy              -161.646047912730 Eh    ::
         :: -> dispersion             -0.185514188224 Eh    ::
         :: repulsion energy           3.148598969933 Eh    ::

    * Orbital Energies and Occupations

         #    Occupation            Energy/Eh            Energy/eV
      -------------------------------------------------------------
         1        2.0000           -0.6521308             -17.7454
       ...           ...                  ...                  ...
       137        2.0000           -0.4006255             -10.9016
       138        2.0000           -0.4004178             -10.8959
       139        2.0000           -0.3994937             -10.8708
       140        2.0000           -0.3984424             -10.8422
       141        2.0000           -0.3980996             -10.8328
       142        2.0000           -0.3943423             -10.7306
       143        2.0000           -0.3922492             -10.6736
       144        2.0000           -0.3866630             -10.5216
       145        2.0000           -0.3801239             -10.3437
       146        2.0000           -0.3788210             -10.3082
       147        2.0000           -0.3786871             -10.3046
       148        2.0000           -0.3762922             -10.2394
       149        2.0000           -0.3545464              -9.6477 (HOMO)
       150                         -0.2765172              -7.5244 (LUMO)
       151                         -0.2469134              -6.7189
       152                         -0.2457971              -6.6885
       153                         -0.2447560              -6.6601
       154                         -0.2441680              -6.6442
       155                         -0.2360441              -6.4231
       156                         -0.2292558              -6.2384
       157                         -0.2252414              -6.1291
       158                         -0.2248106              -6.1174
       159                         -0.2204617              -5.9991
       160                         -0.2204269              -5.9981
       ...                                ...                  ...
       298                          0.7372613              20.0619
      -------------------------------------------------------------
                  HL-Gap            0.0780292 Eh            2.1233 eV

     #   Z          covCN         q      C6AA      α(0)
     1   6 C        2.920    -0.031    28.776     8.797
     2   6 C        2.919    -0.030    28.747     8.792
     3   6 C        2.925    -0.034    28.835     8.806
     4   6 C        2.978     0.010    27.784     8.646
     5   6 C        2.974     0.008    27.833     8.654
     6   6 C        2.931    -0.041    29.012     8.833
     7   6 C        2.975     0.008    27.843     8.655
     8   6 C        2.978     0.011    27.766     8.644
     9   6 C        2.925    -0.033    28.820     8.804
    10   6 C        2.919    -0.030    28.740     8.791
    11   6 C        2.920    -0.032    28.790     8.799
    12   6 C        2.919    -0.030    28.743     8.792
    13   6 C        2.925    -0.033    28.831     8.806
    14   6 C        2.932    -0.041    29.008     8.833
    15   6 C        2.974     0.010    27.800     8.649
    16   6 C        2.980     0.007    27.859     8.658
    17   6 C        2.923    -0.034    28.852     8.809
    18   6 C        2.918    -0.032    28.804     8.801
    19   6 C        2.918    -0.032    28.804     8.801
    20   6 C        2.923    -0.034    28.851     8.808
    21   6 C        2.981     0.008    27.828     8.653
    22   6 C        2.977     0.004    27.924     8.668
    23   6 C        2.921    -0.036    28.908     8.817
    24   6 C        2.919    -0.039    28.967     8.826
    25   6 C        2.984     0.009    27.801     8.649
    26   6 C        2.914    -0.036    28.887     8.813
    27   6 C        2.914    -0.032    28.787     8.798
    28   6 C        2.985     0.009    27.806     8.650
    29   6 C        2.977     0.004    27.924     8.668
    30   6 C        2.981     0.008    27.828     8.653
    31   6 C        2.923    -0.034    28.851     8.808
    32   6 C        2.918    -0.032    28.804     8.801
    33   6 C        2.918    -0.032    28.804     8.801
    34   6 C        2.923    -0.034    28.852     8.809
    35   6 C        2.980     0.007    27.859     8.658
    36   6 C        2.974     0.010    27.800     8.649
    37   6 C        2.931    -0.038    28.947     8.824
    38   6 C        2.974     0.008    27.833     8.654
    39   6 C        2.978     0.010    27.784     8.646
    40   6 C        2.927    -0.031    28.765     8.795
    41   6 C        2.919    -0.028    28.695     8.784
    42   6 C        2.920    -0.031    28.776     8.797
    43   6 C        2.919    -0.030    28.747     8.792
    44   6 C        2.925    -0.034    28.836     8.806
    45   6 C        2.931    -0.041    29.011     8.833
    46   6 C        2.975     0.008    27.842     8.655
    47   6 C        2.978     0.011    27.766     8.643
    48   6 C        2.925    -0.033    28.820     8.804
    49   6 C        2.919    -0.030    28.740     8.791
    50   6 C        2.920    -0.032    28.790     8.799
    51   6 C        2.919    -0.030    28.743     8.792
    52   6 C        2.925    -0.033    28.831     8.805
    53   6 C        2.932    -0.041    29.007     8.833
    54   6 C        2.921    -0.036    28.907     8.817
    55   6 C        2.919    -0.039    28.967     8.826
    56   6 C        2.984     0.009    27.800     8.649
    57   6 C        2.914    -0.036    28.887     8.813
    58   6 C        2.914    -0.032    28.788     8.798
    59   6 C        2.985     0.009    27.805     8.650
    60   6 C        2.998     0.003    27.949     8.672
    61   6 C        2.998     0.003    27.949     8.672
    62   6 C        2.931    -0.038    28.948     8.824
    63   6 C        2.927    -0.031    28.765     8.795
    64   6 C        2.919    -0.028    28.695     8.784
    65   1 H        0.926     0.029     2.603     2.523
    66   1 H        0.926     0.029     2.600     2.522
    67   1 H        0.926     0.030     2.585     2.514
    68   1 H        0.926     0.033     2.550     2.497
    69   1 H        0.926     0.030     2.588     2.516
    70   1 H        0.926     0.028     2.609     2.526
    71   1 H        0.926     0.029     2.607     2.525
    72   1 H        0.926     0.029     2.603     2.523
    73   1 H        0.926     0.030     2.588     2.515
    74   1 H        0.926     0.031     2.570     2.507
    75   1 H        0.926     0.031     2.573     2.508
    76   1 H        0.926     0.029     2.595     2.519
    77   1 H        0.926     0.029     2.595     2.519
    78   1 H        0.926     0.030     2.591     2.517
    79   1 H        0.925     0.029     2.605     2.524
    80   1 H        0.926     0.028     2.609     2.526
    81   1 H        0.926     0.028     2.611     2.527
    82   1 H        0.926     0.030     2.592     2.518
    83   1 H        0.926     0.030     2.592     2.517
    84   1 H        0.926     0.029     2.595     2.519
    85   1 H        0.926     0.029     2.595     2.519
    86   1 H        0.926     0.031     2.573     2.509
    87   1 H        0.926     0.030     2.580     2.512
    88   1 H        0.926     0.028     2.616     2.529
    89   1 H        0.926     0.028     2.620     2.531
    90   1 H        0.926     0.029     2.603     2.523
    91   1 H        0.926     0.029     2.600     2.521
    92   1 H        0.926     0.030     2.585     2.514
    93   1 H        0.926     0.033     2.550     2.497
    94   1 H        0.926     0.030     2.587     2.515
    95   1 H        0.926     0.028     2.609     2.526
    96   1 H        0.926     0.029     2.607     2.525
    97   1 H        0.926     0.029     2.603     2.523
    98   1 H        0.926     0.030     2.588     2.515
    99   1 H        0.926     0.031     2.570     2.507
   100   1 H        0.925     0.029     2.605     2.524
   101   1 H        0.926     0.028     2.609     2.526
   102   1 H        0.926     0.028     2.611     2.527
   103   1 H        0.926     0.030     2.592     2.518
   104   1 H        0.926     0.030     2.579     2.512
   105   1 H        0.926     0.028     2.616     2.529
   106   1 H        0.926     0.028     2.620     2.531

molecular dipole:
                 x           y           z       tot (Debye)
 q only:        0.000       0.000       0.000
   full:       -0.000       0.001       0.000       0.003

 projected vibrational frequencies (cm⁻¹)
eigval :       -0.00    -0.00    -0.00     0.00     0.00     0.00
eigval :       10.40    11.55    12.39    15.39    26.79    38.99
eigval :       39.11    41.14    42.54    46.78    48.58    53.84
eigval :       55.52    56.41    56.97    73.75    76.87    82.48
eigval :       87.01   105.00   116.06   119.29   126.99   130.03
eigval :      132.86   138.98   159.64   170.67   192.69   195.63
eigval :      197.60   221.81   231.33   232.95   253.79   258.07
eigval :      259.97   264.40   272.93   283.85   289.24   294.44
eigval :      298.06   312.10   312.66   326.70   350.95   356.28
eigval :      367.29   370.24   372.74   373.80   377.27   379.70
eigval :      379.92   384.41   388.44   396.61   412.41   420.26
eigval :      452.53   475.94   477.59   480.33   484.38   487.19
eigval :      493.46   497.14   518.92   523.18   544.32   548.81
eigval :      556.28   560.00   561.85   581.09   581.21   584.57
eigval :      585.00   586.04   586.52   586.73   590.70   605.10
eigval :      605.56   607.82   612.07   625.84   643.16   645.16
eigval :      647.75   651.82   666.41   667.05   674.01   674.12
eigval :      677.48   678.14   682.44   683.60   694.17   716.33
eigval :      716.34   722.41   742.78   754.08   754.65   755.04
eigval :      764.33   764.47   781.11   782.41   805.38   812.34
eigval :      824.22   827.76   828.06   830.32   830.83   842.17
eigval :      842.94   848.15   850.97   877.34   877.56   878.13
eigval :      878.22   879.23   886.19   886.77   894.81   894.97
eigval :      900.97   901.00   904.53   904.62   909.64   910.08
eigval :      913.07   914.37   919.98   920.21   927.57   929.12
eigval :      929.60   929.66   929.82   929.97   930.86   931.13
eigval :      932.44   932.70   933.39   933.46   952.66   954.90
eigval :      986.36   986.38   991.07   991.60   995.39   998.61
eigval :     1045.59  1064.05  1083.51  1084.95  1085.87  1088.01
eigval :     1092.97  1097.36  1100.07  1110.30  1111.97  1120.21
eigval :     1120.25  1123.30  1123.70  1124.96  1125.18  1131.25
eigval :     1140.92  1153.18  1157.00  1167.14  1181.63  1181.99
eigval :     1182.64  1182.69  1183.10  1183.13  1188.38  1199.89
eigval :     1199.90  1202.51  1204.42  1204.51  1211.80  1230.62
eigval :     1231.02  1239.68  1245.50  1245.50  1250.71  1251.45
eigval :     1251.68  1254.77  1255.52  1281.67  1281.68  1284.73
eigval :     1284.78  1288.78  1291.28  1305.44  1305.62  1313.53
eigval :     1317.64  1317.94  1320.38  1320.51  1323.14  1325.13
eigval :     1325.15  1352.93  1353.09  1366.35  1379.18  1386.89
eigval :     1411.88  1412.16  1414.61  1415.10  1419.98  1422.64
eigval :     1433.42  1434.52  1439.03  1439.12  1448.29  1448.77
eigval :     1455.72  1472.88  1473.55  1486.20  1486.25  1487.98
eigval :     1488.00  1497.46  1503.05  1531.99  1560.98  1561.78
eigval :     1565.93  1568.08  1576.41  1576.46  1578.52  1578.55
eigval :     1584.64  1584.67  1585.97  1586.04  1592.54  1592.66
eigval :     1601.06  1601.07  1602.40  1602.43  1607.45  1607.82
eigval :     3062.99  3063.10  3068.77  3068.93  3069.10  3069.26
eigval :     3069.37  3069.44  3069.72  3069.83  3070.54  3070.57
eigval :     3071.83  3071.87  3072.32  3072.33  3075.68  3076.26
eigval :     3076.57  3076.66  3078.92  3078.95  3080.36  3080.49
eigval :     3081.05  3081.13  3082.64  3082.68  3083.81  3084.02
eigval :     3086.94  3087.20  3087.44  3088.86  3090.74  3090.78
eigval :     3090.97  3091.24  3091.98  3092.19  3096.38  3096.74

   temp. (K)  partition function   enthalpy   heat capacity  entropy
                                   cal/mol     cal/K/mol   cal/K/mol   J/K/mol
 298.15  VIB  0.133E+24            29681.424    189.251    185.041
         ROT  0.111E+09              888.752      2.981     39.791
         INT  0.148E+32            30570.177    192.232    224.831
         TR   0.223E+29             1481.254      4.968     45.936
         TOT                       32051.4305   197.2000   270.7678  1132.8924

       T/K    H(0)-H(T)+PV         H(T)/Eh          T*S/Eh         G(T)/Eh
   ------------------------------------------------------------------------
    298.15    0.510772E-01    0.877744E+00    0.128651E+00    0.749094E+00
   ------------------------------------------------------------------------

         :::::::::::::::::::::::::::::::::::::::::::::::::::::
         ::                  THERMODYNAMIC                  ::
         :::::::::::::::::::::::::::::::::::::::::::::::::::::
         :: total free energy        -157.748355221685 Eh   ::
         ::.................................................::
         :: total energy             -158.497448942793 Eh   ::
         :: zero point energy           0.826667025235 Eh   ::
         :: G(RRHO) w/o ZPVE           -0.077573304127 Eh   ::
         :: G(RRHO) contrib.            0.749093721108 Eh   ::
         :::::::::::::::::::::::::::::::::::::::::::::::::::::

           -------------------------------------------------
          | TOTAL ENERGY             -158.497448942793 Eh   |
          | TOTAL ENTHALPY           -157.619704711920 Eh   |
          | TOTAL FREE ENERGY        -157.748355221685 Eh   |
          | GRADIENT NORM               0.000102329735 Eh/α |
          | HOMO-LUMO GAP               2.123281910730 eV   |
           -------------------------------------------------

 * finished run on 2025/09/10 at 10:58:23.432
