   * xtb version 6.7.1 (edcfbbe) compiled by 'albert@albert-system' on 2024-07-22

   ID    Z sym.   atoms
    1    6 C      1-64
    2    1 H      65-106

          program call               : xtb data2507/gas/DPPP/DPPP_gas_S0_finalOpt.xtbopt.xyz --gfn 2 --spinpol --tblite --uhf 2 --ohess vtight --parallel 40 --molden --ceasefiles --namespace data2507/gas/DPPP/DPPP_gas_T1_preOpt
 * total energy  :  -158.4233799 Eh     change       -0.1597292E-07 Eh
 * total energy  :  -158.4299527 Eh     change       -0.6572843E-02 Eh
 * total energy  :  -158.4316083 Eh     change       -0.1655563E-02 Eh
 * total energy  :  -158.4317757 Eh     change       -0.1674070E-03 Eh
 * total energy  :  -158.4319697 Eh     change       -0.1940049E-03 Eh
 * total energy  :  -158.4320805 Eh     change       -0.1108640E-03 Eh
 * total energy  :  -158.4321779 Eh     change       -0.9741004E-04 Eh
 * total energy  :  -158.4322480 Eh     change       -0.7007139E-04 Eh
 * total energy  :  -158.4322883 Eh     change       -0.4028795E-04 Eh
 * total energy  :  -158.4323138 Eh     change       -0.2549887E-04 Eh
 * total energy  :  -158.4323902 Eh     change       -0.2241830E-06 Eh
 * total energy  :  -158.4323904 Eh     change       -0.2284197E-06 Eh
 * total energy  :  -158.4323906 Eh     change       -0.2203602E-06 Eh
 * total energy  :  -158.4323911 Eh     change       -0.4705981E-06 Eh
 * total energy  :  -158.4323915 Eh     change       -0.3869738E-06 Eh
 * total energy  :  -158.4323920 Eh     change       -0.5484524E-06 Eh
 * total energy  :  -158.4323922 Eh     change       -0.1837484E-06 Eh
 * total energy  :  -158.4323923 Eh     change       -0.1011056E-06 Eh
 * total energy  :  -158.4323924 Eh     change       -0.6803387E-07 Eh
   *** GEOMETRY OPTIMIZATION CONVERGED AFTER 34 ITERATIONS ***

 final structure:
================
106
 xtb: 6.7.1 (edcfbbe)
C            0.48641082863445        1.88998370208557        4.41266289411858
C           -0.19630284492025        0.75384965249625        4.81310256019567
C           -1.26957420352026        0.29025283516647        4.07620840478887
C           -1.68261638796175        0.95843374410471        2.92627546940292
C           -2.77765176647016        0.44373042618185        2.09183435004051
C           -3.63613473676990        1.30929870845190        1.42218443449875
C           -4.61254960978410        0.82431325052574        0.56057258822782
C           -5.50067913573989        1.75167285955030       -0.15590907716321
C           -4.98959676578055        2.91531585868197       -0.72574939477373
C           -5.81783256135203        3.78480824084092       -1.41036470671046
C           -7.16963320700002        3.50881174011856       -1.53180222067853
C           -7.68779545458343        2.35464779423631       -0.96866420573186
C           -6.85956764155950        1.48022558250604       -0.28968812838961
C           -4.69966875033449       -0.54555960113429        0.33576976614168
C           -3.83013434791317       -1.42469624435526        0.96884203251508
C           -3.81154575310645       -2.84598849447842        0.58127306274006
C           -4.99478864367210       -3.56867578175649        0.51100823522283
C           -4.99748791007990       -4.90785247438302        0.16219024409684
C           -3.79962408228443       -5.54505842028712       -0.12223556540866
C           -2.61344670972468       -4.84242413880790       -0.05793418964702
C           -2.59142246623090       -3.48613840546982        0.27564247556621
C           -1.32089398095883       -2.77539907402460        0.35906278568541
C           -0.28506025594515       -3.31578186902824        1.12916072064716
C            0.79061177138374       -2.55976601130863        1.51388231125778
C            0.89083332054592       -1.18494778616010        1.13607524813982
C            1.88726550177027       -0.34898013396527        1.62992988054603
C            1.99481263917692        0.96568568081662        1.19612364751122
C            1.14491525652069        1.46486723006022        0.21173143144055
C            1.31984508503405        2.77571884546691       -0.36531265387260
C            2.59018216961253        3.48670940684115       -0.28148725115207
C            2.61153180127382        4.84339314029398        0.05064429264048
C            3.79741445033723        5.54646823935724        0.11527647436776
C            4.99575759859982        4.90934422564448       -0.16732217076108
C            4.99379360324929        3.56976525401086       -0.51459235699127
C            3.81084071076306        2.84665176435217       -0.58518998874443
C            3.83034346580069        1.42482100526977       -0.97074083410884
C            2.91166206193432        0.92333364524167       -1.88677278473001
C            2.78029224597333       -0.44554578617277       -2.09265357653295
C            1.68709114726670       -0.96168033187441       -2.92861992725872
C            0.99763998903661       -2.10871799354159       -2.54131142978856
C           -0.07700372223702       -2.56904944154797       -3.27760736192889
C           -0.47882508264165       -1.89545415823220       -4.41810751798394
C            0.20540185939167       -0.76054184361518       -4.81943753223838
C            1.27710311045020       -0.29580261896200       -4.08097283975711
C            3.63716361136302       -1.30996227173162       -1.41945664229948
C            4.61156752569807       -0.82350933623341       -0.55638337377579
C            5.49706175687350       -1.74944552123607        0.16516839602163
C            4.98363574958982       -2.91165769475052        0.73584321349739
C            5.80898393460495       -3.77936186313866        1.42618507957878
C            7.16025618687545       -3.50301843507254        1.55261040620635
C            7.68078277283612       -2.35037688941794        0.98853192949446
C            6.85541109685356       -1.47772705441395        0.30381693064769
C            4.69847710232981        0.54680404045415       -0.33421349001633
C            0.28421073744031        3.31596731738457       -1.13581204267996
C           -0.79171560034095        2.56013415644521       -1.52015251187816
C           -0.89225372374271        1.18546671949245       -1.14191588577681
C           -1.88917512487998        0.34972543324108       -1.63521095209726
C           -1.99678122133545       -0.96491698762177       -1.20136265337934
C           -1.14630611758556       -1.46433880050775       -0.21760237141934
C           -0.06559531783733       -0.66307150706143        0.22909330306487
C            0.06425975258581        0.66355542440540       -0.23505009987143
C           -2.90961772239183       -0.92477274424779        1.88391279786460
C           -0.99454658826509        2.10658098744289        2.53979178578128
C            0.08158071542717        2.56585793046223        3.27457798690804
H            1.33004714686809        2.24645018767166        4.98520296855735
H            0.11050773870681        0.22560851546177        5.70443757519025
H           -1.80395694806390       -0.58958261115893        4.40421552901937
H           -3.56328871091600        2.37295899017040        1.59402042217101
H           -3.93234898183723        3.12362559042539       -0.64546475974241
H           -5.40843888956500        4.68168823134433       -1.85282971943965
H           -7.81678210400226        4.19031959205227       -2.06408578779348
H           -8.74217371713091        2.13635171507485       -1.05857439216425
H           -7.26959556346120        0.58715538044994        0.15967160984233
H           -5.40528657142189       -0.92220807789949       -0.39088616461385
H           -5.92401619082850       -3.07590475422671        0.75969508516490
H           -5.92806886534573       -5.45391076346187        0.11845264804978
H           -3.79314401661224       -6.58995641080106       -0.39626360176910
H           -1.68242902984080       -5.33537648537040       -0.29958673465577
H           -0.38836918155895       -4.32677353112262        1.50010196075682
H            1.55312524264677       -2.97402866347490        2.15727100504450
H            2.59372470642530       -0.73340067108651        2.35141192717159
H            2.76107155648833        1.60252338738653        1.61184034396115
H            1.68016996915254        5.33634615811606        0.29095714235154
H            3.79034069679504        6.59166234564697        0.38815968736982
H            5.92612207187144        5.45574464161784       -0.12330638629878
H            5.92340143428011        3.07693880935405       -0.76174549864682
H            2.25510492603282        1.60447909249909       -2.40666223418879
H            1.28736174465926       -2.62654920159587       -1.63904684098476
H           -0.60839623515336       -3.45283171970125       -2.95498255072913
H           -1.32126685441312       -2.25278225848138       -4.99186659151200
H           -0.09900890395261       -0.23414842175326       -5.71268679506604
H            1.81268061171271        0.58308497643273       -4.40958075136872
H            3.56448104064476       -2.37393153698867       -1.58944308613691
H            3.92673942264144       -3.12018233851485        0.65169189003551
H            5.39772130516774       -4.67506967696840        1.86929630134438
H            7.80514051012964       -4.18305573959755        2.08950498394609
H            8.73477311310269       -2.13182768885585        1.08230840048427
H            7.26735655192979       -0.58583652485903       -0.14612900417570
H            5.40246306871242        0.92481717040659        0.39331739421906
H            0.38775521818516        4.32676122884617       -1.50720846467817
H           -1.55422360352951        2.97441654634034       -2.16353398915149
H           -2.59592526625043        0.73432341411652       -2.35631290265407
H           -2.76349518420888       -1.60156915563830       -1.61654414549837
H           -2.25224852474504       -1.60684186032007        2.40152960636004
H           -1.28652121105313        2.62614915086262        1.63924655898084
H            0.61178377015253        3.45060326237458        2.95262889687320

 projected vibrational frequencies (cm⁻¹)
eigval :       -0.00    -0.00    -0.00     0.00     0.00     0.00
eigval :       11.14    12.39    12.91    15.81    28.83    38.34
eigval :       39.59    40.47    43.16    47.66    49.81    53.95
eigval :       55.80    57.67    57.90    74.70    78.40    84.24
eigval :       86.72   104.62   115.24   118.21   124.19   129.24
eigval :      130.66   144.39   160.94   171.07   190.83   194.55
eigval :      194.63   211.87   231.55   232.73   253.45   255.46
eigval :      261.91   264.78   270.17   274.88   286.24   290.40
eigval :      294.08   309.60   311.03   324.25   346.36   357.12
eigval :      366.24   370.25   371.61   373.93   375.69   380.11
eigval :      380.16   382.34   389.82   395.78   405.44   409.70
eigval :      432.90   450.69   469.73   477.31   483.45   485.04
eigval :      491.18   493.37   504.51   507.08   534.88   536.08
eigval :      552.16   553.44   560.40   581.16   581.27   583.77
eigval :      584.76   585.37   585.93   586.07   589.53   599.72
eigval :      603.87   605.16   609.19   616.65   619.24   634.95
eigval :      644.76   648.50   662.32   665.38   665.83   673.72
eigval :      673.82   675.29   679.97   682.23   685.97   707.42
eigval :      709.16   718.12   737.07   739.34   754.28   754.55
eigval :      763.20   763.89   764.94   773.00   779.30   784.64
eigval :      806.58   814.67   817.13   827.11   827.42   830.11
eigval :      830.45   841.73   841.88   876.39   876.83   877.33
eigval :      877.74   877.91   880.47   881.34   886.55   887.46
eigval :      893.45   893.64   899.46   899.82   901.68   902.13
eigval :      904.59   904.67   907.38   907.56   916.13   916.26
eigval :      925.09   925.11   929.21   929.22   930.81   930.82
eigval :      932.27   932.29   933.22   933.25   950.95   954.34
eigval :      976.69   986.32   986.33   990.56   991.02   992.87
eigval :     1042.67  1061.02  1081.69  1085.25  1085.79  1088.50
eigval :     1090.89  1096.43  1098.51  1109.09  1120.33  1120.35
eigval :     1121.34  1123.58  1123.61  1125.33  1126.00  1128.36
eigval :     1139.40  1148.12  1155.25  1155.79  1166.01  1180.85
eigval :     1180.97  1182.20  1182.26  1182.73  1182.77  1199.56
eigval :     1199.60  1203.18  1204.90  1204.93  1205.97  1220.60
eigval :     1227.68  1232.45  1233.78  1245.29  1245.36  1250.71
eigval :     1251.49  1253.54  1254.19  1269.44  1276.72  1281.55
eigval :     1281.56  1285.23  1285.26  1305.72  1308.78  1309.92
eigval :     1316.94  1318.11  1319.11  1320.80  1321.12  1326.14
eigval :     1326.28  1336.76  1345.88  1352.60  1353.66  1378.49
eigval :     1384.65  1391.76  1408.03  1411.45  1414.02  1416.25
eigval :     1418.70  1427.95  1431.32  1436.29  1437.39  1440.04
eigval :     1442.70  1454.48  1454.56  1464.12  1470.04  1480.98
eigval :     1485.34  1485.47  1487.30  1487.34  1502.52  1516.38
eigval :     1523.10  1547.18  1547.33  1567.20  1573.49  1573.99
eigval :     1576.31  1576.62  1579.17  1580.74  1583.78  1583.79
eigval :     1585.27  1585.34  1600.58  1600.58  1602.00  1602.02
eigval :     3060.18  3060.37  3069.13  3069.14  3069.27  3069.27
eigval :     3069.99  3070.04  3070.74  3070.75  3071.53  3071.55
eigval :     3072.05  3072.12  3072.85  3073.09  3077.32  3077.38
eigval :     3078.92  3079.06  3079.61  3079.70  3080.46  3080.56
eigval :     3081.00  3081.14  3082.89  3082.94  3084.21  3084.52
eigval :     3087.53  3087.90  3088.44  3089.37  3090.74  3091.05
eigval :     3091.24  3091.68  3092.05  3092.40  3093.08  3093.20

   temp. (K)  partition function   enthalpy   heat capacity  entropy
                                   cal/mol     cal/K/mol   cal/K/mol   J/K/mol
 298.15  VIB  0.117E+24            29887.625    190.849    185.953
         ROT  0.110E+09              888.752      2.981     39.770
         INT  0.128E+32            30776.378    193.830    225.724
         TR   0.223E+29             1481.254      4.968     45.936
         TOT                       32257.6317   198.7977   271.6601  1136.6260

       T/K    H(0)-H(T)+PV         H(T)/Eh          T*S/Eh         G(T)/Eh
   ------------------------------------------------------------------------
    298.15    0.514058E-01    0.874720E+00    0.129074E+00    0.745646E+00
   ------------------------------------------------------------------------

         :::::::::::::::::::::::::::::::::::::::::::::::::::::
         ::                  THERMODYNAMIC                  ::
         :::::::::::::::::::::::::::::::::::::::::::::::::::::
         :: total free energy        -157.686746774329 Eh   ::
         ::.................................................::
         :: total energy             -158.432392439059 Eh   ::
         :: zero point energy           0.823314351110 Eh   ::
         :: G(RRHO) w/o ZPVE           -0.077668686380 Eh   ::
         :: G(RRHO) contrib.            0.745645664730 Eh   ::
         :::::::::::::::::::::::::::::::::::::::::::::::::::::

           -------------------------------------------------
          | TOTAL ENERGY             -158.432392439059 Eh   |
          | TOTAL ENTHALPY           -157.557672279787 Eh   |
          | TOTAL FREE ENERGY        -157.686746774329 Eh   |
          | GRADIENT NORM               0.000030270023 Eh/α |
           -------------------------------------------------

 * finished run on 2025/09/10 at 10:58:38.699
