   * xtb version 6.7.1 (edcfbbe) compiled by 'albert@albert-system' on 2024-07-22

   ID    Z sym.   atoms
    1    6 C      1-8, 10-19, 21-30, 32-44, 46-70
    2    7 N      9, 31, 45
    3    5 B      20
    4    1 H      71-146

          program call               : xtb data2507/gas/TBN-TPA/TBN-TPA_gas_T1_crest.xyz --gfn 2 --spinpol --tblite --uhf 2 --ohess vtight --parallel 40 --molden --ceasefiles --namespace data2507/gas/TBN-TPA/TBN-TPA_gas_T1_finalOpt
 * total energy  :  -190.2150204 Eh     change       -0.4296567E-07 Eh
 * total energy  :  -190.2150256 Eh     change       -0.5231969E-05 Eh
 * total energy  :  -190.2150287 Eh     change       -0.3100137E-05 Eh
 * total energy  :  -190.2150298 Eh     change       -0.1084364E-05 Eh
 * total energy  :  -190.2150315 Eh     change       -0.1708978E-05 Eh
 * total energy  :  -190.2150327 Eh     change       -0.1200514E-05 Eh
 * total energy  :  -190.2150337 Eh     change       -0.9908321E-06 Eh
 * total energy  :  -190.2150343 Eh     change       -0.5493000E-06 Eh
 * total energy  :  -190.2150348 Eh     change       -0.5651500E-06 Eh
 * total energy  :  -190.2150353 Eh     change       -0.4363987E-06 Eh
 * total energy  :  -190.2150376 Eh     change       -0.4381150E-06 Eh
 * total energy  :  -190.2150379 Eh     change       -0.2611973E-06 Eh
 * total energy  :  -190.2150383 Eh     change       -0.3734039E-06 Eh
 * total energy  :  -190.2150386 Eh     change       -0.3234175E-06 Eh
 * total energy  :  -190.2150390 Eh     change       -0.3873631E-06 Eh
 * total energy  :  -190.2150392 Eh     change       -0.2592906E-06 Eh
 * total energy  :  -190.2150397 Eh     change       -0.4284847E-06 Eh
 * total energy  :  -190.2150400 Eh     change       -0.3489273E-06 Eh
 * total energy  :  -190.2150401 Eh     change       -0.6867646E-07 Eh
   *** GEOMETRY OPTIMIZATION CONVERGED AFTER 22 ITERATIONS ***

 final structure:
================
146
 xtb: 6.7.1 (edcfbbe)
C           -3.07350947422871       -6.38265555292907        0.96324619737092
C           -1.84789979369350       -6.84041272757488        0.15823032186759
C           -1.24613650641411       -8.10380651164313        0.78821005069885
C           -2.30865856646071       -7.18910341693274       -1.25939636978617
C           -0.82323546453859       -5.71888939290965        0.18079890906214
C           -0.28547632670354       -5.30379916311965        1.39841899204993
C            0.59021790845679       -4.23995347772095        1.48049420157986
C            0.95355143093293       -3.55206350104373        0.32889578834150
N            1.75299380378330       -2.37838821411978        0.37963837770259
C            3.12069626838581       -2.47319218889634        0.54670521319474
C            3.68363596633340       -3.72331185388002        0.81156126564300
C            5.03592440717230       -3.85317668476304        1.06418233041299
C            5.87156692182596       -2.73238076770397        1.08197528982655
C            7.34099272882461       -2.90965732689477        1.42436983406378
C            8.12764301492053       -1.59731314789726        1.37418820046838
C            7.97914214944031       -3.88322216782142        0.42271638888036
C            7.45153782510384       -3.48164006183871        2.84531548114700
C            5.30850135735519       -1.50472332674304        0.77072194604442
C            3.95587904088538       -1.32360961453468        0.44229786079262
B            3.31770008894179        0.00535939722466       -0.00172683497225
C            3.95076405314997        1.33680822707701       -0.44552901259684
C            5.30289637509584        1.52322013485339       -0.77284339979807
C            5.86128039671939        2.75293507154322       -1.08439646803509
C            7.33049996042362        2.93587911097197       -1.42471531450082
C            8.12201347093315        1.62647454639445       -1.37397659137798
C            7.44135217189496        3.50896584835238       -2.84516971269035
C            7.96334548268098        3.91132133312313       -0.42151204526938
C            5.02096914155155        3.87028633075023       -1.06838905359429
C            3.66898894361567        3.73506527806782       -0.81693485409341
C            3.11097532597339        2.48292124134848       -0.55110725923661
N            1.74363533310629        2.38287757179882       -0.38432140594867
C            0.93970117007436        3.55370998082144       -0.33512200235084
C            0.57001594771964        4.23601011310811       -1.48798255635817
C           -0.30993713426015        5.29646159843190       -1.40695409363205
C           -0.84570032142218        5.71353617186421       -0.18915077718714
C           -1.87512129530383        6.83073957589345       -0.16729178397067
C           -2.33280586983362        7.18249306293243        1.25057662275676
C           -1.28087668891179        8.09447174476954       -0.80369324161785
C           -3.10128414454867        6.36484740718544       -0.96677398408033
C           -0.43197658487061        5.04614736483721        0.95822542501554
C            0.44491752956553        3.97953313368819        0.89007637763618
C            1.06660274085421        1.18400193389270       -0.21548013059453
C           -0.32513958233806        1.16812518324685       -0.29271455481073
C           -1.03081636936154       -0.00288455667453        0.00043621427469
N           -2.42678499533462       -0.00528517610439        0.00168725655802
C           -3.23863333979591       -1.00048093758558       -0.51025251263207
C           -2.91882781282777       -2.17603569263768       -1.17390843446663
C           -3.95018176671780       -2.99139507586679       -1.59137777594037
C           -5.30228179934650       -2.68009642682591       -1.38479978372717
C           -6.36527467371439       -3.65012413295659       -1.88065930588343
C           -7.78620857852412       -3.17885733009310       -1.55908688206775
C           -6.24449707898907       -3.79290800839102       -3.40460862726664
C           -6.15784316286121       -5.01747826887411       -1.21408585154372
C           -5.61282693080711       -1.48857653899748       -0.75331956588151
C           -4.59429591878656       -0.64691684368070       -0.32237657717089
C           -4.59579034257140        0.63095098566400        0.32641675041520
C           -5.61624181972130        1.47011645038020        0.75767470333692
C           -5.30841338365771        2.66232018734275        1.38919995286492
C           -6.37366770368740        3.62978135659714        1.88523202172939
C           -7.79356472982144        3.15441686060864        1.56512095963117
C           -6.25207078335283        3.77397907698337        3.40898775615465
C           -6.17054106391446        4.99722395420163        1.21756070086367
C           -3.95701953779691        2.97675238952521        1.59574386996383
C           -2.92380829050939        2.16392872666077        1.17792091631128
C           -3.24095537709524        0.98783193364401        0.51394249708582
C           -0.32037018482793       -1.17126412472981        0.29211693816679
C            1.07130192913614       -1.18187397243453        0.21244656847847
C            1.80534137225807        0.00246875428510       -0.00175830074174
C            0.45667867911759       -3.97565642236186       -0.89629132734358
C           -0.41592976857186       -5.04567083311335       -0.96549489778335
H           -3.85554458874320       -7.13755764793756        0.91920419858575
H           -2.82013749320501       -6.21480033757265        2.00647534480358
H           -3.46518120674732       -5.45298531998402        0.55502148799505
H           -0.96061085202767       -7.93708618822227        1.82294378415766
H           -0.36193411359236       -8.41530287390182        0.23575791873556
H           -1.97140502560579       -8.91421367429576        0.76370413005500
H           -2.78210087379066       -6.33487644216652       -1.73724632521268
H           -3.03867452303678       -7.99477695551864       -1.21534149643899
H           -1.47477768746563       -7.52378630871458       -1.87240242240974
H           -0.56697716020021       -5.80487916831510        2.31188726765047
H            0.97816662437116       -3.91961145922235        2.43635580303791
H            3.06117437790258       -4.60562535144568        0.82825009394414
H            5.42769823993965       -4.83827400131035        1.26487491656183
H            7.72860466688595       -0.87294735785981        2.08049023648120
H            8.10689881344650       -1.17151061479330        0.37382428849360
H            9.16690855430947       -1.78651137221757        1.63716765543218
H            9.03834622858521       -4.00468694987829        0.64116814584544
H            7.87681993099670       -3.49921347043108       -0.59027210354255
H            7.50952566468289       -4.86192582527716        0.46481148942736
H            6.99309141510149       -2.80081968880197        3.55978364078752
H            6.95264398082667       -4.44374483190482        2.92367267390273
H            8.49698725587261       -3.61545044681726        3.11651654310715
H            5.92175666582907       -0.62165164573603        0.78729788638595
H            5.91973645567771        0.64263436973887       -0.78818750476079
H            8.10305320362825        1.20114295557465       -0.37337373569992
H            9.16050907581249        1.81936796659608       -1.63730995836513
H            7.72551090538626        0.90024067095460       -2.07978916228758
H            6.98909949277181        2.82552960150543       -3.56107863452359
H            6.93676853391502        4.46799324089815       -2.92467392311010
H            8.48670881881785        3.64929845606405       -3.11344878675152
H            7.86061069912135        3.52648337049256        0.59112332576048
H            9.02249790879648        4.03673726657075       -0.63800536883742
H            7.49017349640926        4.88829389402639       -0.46403227251893
H            5.40890892873505        4.85683591871219       -1.26946925278216
H            3.04277676941543        4.61471557408284       -0.83515037233990
H            0.95643923090985        3.91402907159503       -2.44391157772850
H           -0.59637743043523        5.79312278505866       -2.32129984470336
H           -1.49845680073013        7.52339672610267        1.85950390127533
H           -3.06678733376917        7.98453186568948        1.20602342786539
H           -2.80058281182342        6.32783055999126        1.73319791320023
H           -0.99908746478787        7.92561462634316       -1.83910469313537
H           -0.39557290991594        8.41111275786327       -0.25595307473054
H           -2.00917518444211        8.90214212167585       -0.77865115838369
H           -3.48692645751512        5.43431602091099       -0.55480685565068
H           -3.88687244250899        7.11600561367970       -0.92192614066521
H           -2.85075428048223        6.19554903150738       -2.01045496437355
H           -0.79806138376763        5.33917388485768        1.92817968203677
H            0.74188183304479        3.45724874485342        1.78829055371041
H           -0.87608715255034        2.04821187910502       -0.58194197214296
H           -1.89558345365759       -2.45126665760026       -1.37855046765682
H           -3.69003157486317       -3.90350795317505       -2.10727611776777
H           -7.92879926254574       -3.07390072568668       -0.48599328077335
H           -8.50336655823656       -3.91164513109609       -1.92427926436193
H           -8.00219364420782       -2.22906212662715       -2.04261616323684
H           -6.37670970220113       -2.82482888189499       -3.88333728120220
H           -5.27122317042381       -4.18231560570429       -3.69047736945650
H           -7.00723342429942       -4.47202378809239       -3.78055451371153
H           -6.93401568720423       -5.71128167418435       -1.53107295598294
H           -5.19496315639082       -5.44562136092950       -1.47696519863410
H           -6.20421148676849       -4.91875851771751       -0.13137088440130
H           -6.63330939466811       -1.18617535006870       -0.58642849676010
H           -6.63603501331805        1.16525073649502        0.59105909556900
H           -8.00689832309541        2.20488355768314        2.05034450100287
H           -7.93644864255613        3.04731844979465        0.49228081160604
H           -8.51237153759465        3.88605180747571        1.92937796180698
H           -7.01812912829429        4.44908448465258        3.78539741309346
H           -6.37846452181884        2.80543170905856        3.88834010152048
H           -5.28068247274518        4.16892890917886        3.69365081196046
H           -6.94633572149865        5.69014260280032        1.53740252653572
H           -6.22098553771368        4.89817818321635        0.13505792881265
H           -5.20715419087658        5.42656022370610        1.47658156505514
H           -3.69896518863595        3.88928327609134        2.11196298718889
H           -1.90114439030585        2.44137562928676        1.38256241849768
H           -0.86738038544984       -2.05343529956024        0.58248028070218
H            0.74869834750643       -3.44900647660782       -1.79358400810217
H           -0.78381341009485       -5.33680389278784       -1.93534141719344

 projected vibrational frequencies (cm⁻¹)
eigval :       -0.00    -0.00    -0.00     0.00     0.00     0.00
eigval :        7.95    12.71    13.94    16.67    24.46    26.20
eigval :       26.73    29.52    29.96    32.71    33.60    39.00
eigval :       39.05    43.50    44.59    59.14    60.71    65.46
eigval :       68.71    69.28    75.81    77.26    89.02    91.17
eigval :       99.31   101.59   102.13   125.26   128.48   146.48
eigval :      150.66   159.27   161.61   161.88   170.94   177.98
eigval :      179.42   179.92   181.52   185.32   193.50   196.97
eigval :      202.95   210.55   211.29   221.39   221.52   223.39
eigval :      224.98   229.16   229.44   231.09   233.40   239.60
eigval :      244.18   252.39   257.67   259.90   263.23   273.49
eigval :      280.15   285.43   297.10   309.44   310.34   313.73
eigval :      316.56   316.70   317.71   318.30   321.08   322.44
eigval :      328.54   337.03   344.57   346.28   347.67   350.90
eigval :      354.41   359.22   362.04   366.33   370.55   374.34
eigval :      377.03   379.55   381.73   392.06   395.08   399.38
eigval :      401.00   408.07   411.51   416.57   421.09   424.88
eigval :      431.42   439.88   440.17   445.41   446.33   456.70
eigval :      456.93   461.67   464.37   465.98   469.30   470.67
eigval :      483.00   492.74   505.91   517.14   524.14   525.93
eigval :      528.60   550.49   559.93   561.03   575.89   579.46
eigval :      583.43   588.09   591.76   596.83   609.26   610.71
eigval :      616.19   616.74   636.77   637.05   644.31   659.57
eigval :      660.26   664.26   684.68   688.93   696.59   697.76
eigval :      704.42   707.74   717.45   717.98   729.17   729.72
eigval :      769.33   789.28   794.47   797.27   802.35   813.80
eigval :      815.91   819.66   826.76   832.41   841.67   851.77
eigval :      867.08   868.63   869.02   869.47   869.51   872.73
eigval :      872.80   873.27   873.58   879.21   881.47   882.32
eigval :      901.62   912.47   913.61   914.48   915.23   920.32
eigval :      926.44   926.60   928.04   928.17   935.10   945.38
eigval :      958.05   958.98   959.40   959.41   959.79   959.85
eigval :      961.38   961.61   961.69   962.14   962.47   962.61
eigval :      962.66   962.85   963.28   964.84   964.85   964.97
eigval :      966.18  1008.79  1013.64  1030.47  1031.67  1033.10
eigval :     1033.96  1034.20  1034.71  1034.84  1035.16  1035.25
eigval :     1035.65  1035.66  1036.22  1038.22  1040.70  1088.59
eigval :     1089.56  1117.07  1131.91  1133.69  1139.98  1140.23
eigval :     1143.84  1145.33  1146.26  1153.87  1160.54  1176.68
eigval :     1183.25  1188.61  1199.09  1199.55  1207.22  1218.59
eigval :     1223.32  1223.78  1225.34  1226.76  1226.79  1227.81
eigval :     1227.91  1229.13  1229.23  1230.95  1232.56  1233.98
eigval :     1234.01  1238.43  1243.09  1245.11  1246.74  1258.34
eigval :     1258.98  1268.05  1274.88  1275.02  1278.44  1281.86
eigval :     1283.52  1286.27  1287.59  1297.40  1301.94  1307.60
eigval :     1308.50  1313.64  1314.15  1315.76  1316.60  1338.46
eigval :     1348.93  1351.81  1360.66  1360.92  1374.70  1375.81
eigval :     1383.89  1396.99  1397.29  1402.06  1403.55  1403.81
eigval :     1403.97  1404.81  1404.84  1404.88  1405.10  1407.01
eigval :     1407.07  1407.85  1408.27  1412.37  1416.74  1417.83
eigval :     1427.38  1427.52  1427.79  1427.88  1428.84  1428.86
eigval :     1443.46  1448.86  1473.29  1479.67  1480.28  1482.07
eigval :     1485.54  1488.44  1489.67  1489.70  1491.44  1491.84
eigval :     1492.58  1492.59  1493.42  1493.44  1494.05  1494.95
eigval :     1495.02  1497.25  1497.26  1499.77  1500.60  1501.09
eigval :     1501.12  1502.82  1502.89  1504.19  1505.28  1505.96
eigval :     1506.09  1507.38  1507.48  1511.70  1512.35  1513.92
eigval :     1513.95  1514.01  1514.86  1515.02  1518.96  1519.18
eigval :     1519.27  1521.87  1522.50  1522.77  1536.02  1548.38
eigval :     1548.83  1556.11  1560.03  1568.00  1585.25  1589.24
eigval :     1594.51  1595.38  3017.15  3017.48  3018.45  3018.55
eigval :     3018.97  3019.04  3019.54  3019.56  3023.41  3023.43
eigval :     3025.74  3026.01  3026.02  3026.20  3026.24  3026.25
eigval :     3026.37  3026.55  3026.91  3027.29  3027.37  3027.40
eigval :     3029.67  3029.83  3030.07  3030.12  3031.20  3031.26
eigval :     3032.32  3032.44  3034.94  3035.13  3035.16  3035.21
eigval :     3035.86  3035.91  3036.52  3037.17  3037.43  3039.35
eigval :     3039.52  3039.57  3045.50  3045.58  3045.75  3045.77
eigval :     3046.36  3046.37  3049.25  3049.45  3050.80  3050.81
eigval :     3051.90  3052.03  3077.45  3077.65  3078.42  3078.52
eigval :     3080.04  3080.09  3082.50  3082.56  3090.73  3091.34
eigval :     3092.86  3093.49  3094.66  3094.72  3111.37  3111.45
eigval :     3112.35  3116.15  3117.91  3117.95  3138.48  3145.56

   temp. (K)  partition function   enthalpy   heat capacity  entropy
                                   cal/mol     cal/K/mol   cal/K/mol   J/K/mol
 298.15  VIB  0.195E+33            42310.399    258.271    261.848
         ROT  0.126E+09              888.752      2.981     40.054
         INT  0.246E+41            43199.151    261.251    301.903
         TR   0.271E+29             1481.254      4.968     46.319
         TOT                       44680.4050   266.2196   348.2215  1456.9589

       T/K    H(0)-H(T)+PV         H(T)/Eh          T*S/Eh         G(T)/Eh
   ------------------------------------------------------------------------
    298.15    0.712028E-01    0.130300E+01    0.165451E+00    0.113755E+01
   ------------------------------------------------------------------------

         :::::::::::::::::::::::::::::::::::::::::::::::::::::
         ::                  THERMODYNAMIC                  ::
         :::::::::::::::::::::::::::::::::::::::::::::::::::::
         :: total free energy        -189.077491625521 Eh   ::
         ::.................................................::
         :: total energy             -190.215039988744 Eh   ::
         :: zero point energy           1.231796897100 Eh   ::
         :: G(RRHO) w/o ZPVE           -0.094248533877 Eh   ::
         :: G(RRHO) contrib.            1.137548363223 Eh   ::
         :::::::::::::::::::::::::::::::::::::::::::::::::::::

           -------------------------------------------------
          | TOTAL ENERGY             -190.215039988744 Eh   |
          | TOTAL ENTHALPY           -188.912040333951 Eh   |
          | TOTAL FREE ENERGY        -189.077491625521 Eh   |
          | GRADIENT NORM               0.000058959134 Eh/α |
           -------------------------------------------------

 * finished run on 2025/09/08 at 18:43:02.489
