   * xtb version 6.7.1 (edcfbbe) compiled by 'albert@albert-system' on 2024-07-22

   ID    Z sym.   atoms
    1    6 C      1-8, 10-19, 21-30, 32-44, 46-70
    2    7 N      9, 31, 45
    3    5 B      20
    4    1 H      71-146

          program call               : xtb data2507/gas/TBN-TPA/TBN-TPA_gas_S0_finalOpt.xtbopt.xyz --gfn 2 --spinpol --tblite --uhf 2 --ohess vtight --parallel 40 --molden --ceasefiles --namespace data2507/gas/TBN-TPA/TBN-TPA_gas_T1_preOpt
 * total energy  :  -190.2137737 Eh     change       -0.2032598E-07 Eh
 * total energy  :  -190.2146698 Eh     change       -0.8960482E-03 Eh
 * total energy  :  -190.2148783 Eh     change       -0.2085444E-03 Eh
 * total energy  :  -190.2148985 Eh     change       -0.2014655E-04 Eh
 * total energy  :  -190.2149167 Eh     change       -0.1826761E-04 Eh
 * total energy  :  -190.2149248 Eh     change       -0.8007469E-05 Eh
 * total energy  :  -190.2149426 Eh     change       -0.1788653E-04 Eh
 * total energy  :  -190.2149587 Eh     change       -0.1607072E-04 Eh
 * total energy  :  -190.2149672 Eh     change       -0.8459547E-05 Eh
 * total energy  :  -190.2149830 Eh     change       -0.1585514E-04 Eh
 * total energy  :  -190.2150385 Eh     change       -0.1473071E-06 Eh
 * total energy  :  -190.2150387 Eh     change       -0.1863160E-06 Eh
 * total energy  :  -190.2150389 Eh     change       -0.1826836E-06 Eh
 * total energy  :  -190.2150393 Eh     change       -0.3885042E-06 Eh
 * total energy  :  -190.2150391 Eh     change        0.1621094E-06 Eh
 * total energy  :  -190.2150394 Eh     change       -0.2083559E-06 Eh
 * total energy  :  -190.2150395 Eh     change       -0.1016023E-06 Eh
 * total energy  :  -190.2150396 Eh     change       -0.1529949E-06 Eh
 * total energy  :  -190.2150397 Eh     change       -0.4989863E-07 Eh
   *** GEOMETRY OPTIMIZATION CONVERGED AFTER 72 ITERATIONS ***

 final structure:
================
146
 xtb: 6.7.1 (edcfbbe)
C           -3.10916592142201       -6.35355951017996        0.98527759584699
C           -1.88694950445170       -6.82528899409810        0.18316971290237
C           -1.29452008923552       -8.08925049349742        0.82079009593723
C           -2.35014618807568       -7.17907662785396       -1.23239077436174
C           -0.85421524751859       -5.71109343568990        0.19915447275388
C           -0.31262074722503       -5.29359304681908        1.41424671760013
C            0.57011197352722       -4.23513528822887        1.49024217774894
C            0.93664217715606       -3.55527992413861        0.33492597897911
N            1.74228595649466       -2.38552882946802        0.37973969709555
C            3.10992746829016       -2.48700058567043        0.54235946135277
C            3.66717288172960       -3.74001899701322        0.80564769768329
C            5.01976288372067       -3.87718308387714        1.05275159947563
C            5.86129504148508       -2.76077438912961        1.06731724180423
C            7.33149257638074       -2.94588066525374        1.40220324630137
C            8.12429471079319       -1.63727417630526        1.35123606640593
C            7.95967168613124       -3.91995984504715        0.39474634402630
C            7.44677953460716       -3.52193269758617        2.82109787486648
C            5.30331792663516       -1.53001427729438        0.75900516909509
C            3.95055269203509       -1.34159268372876        0.43524235001930
B            3.31774102594684       -0.00945489328820       -0.00734568302172
C            3.95637435367313        1.31932463697318       -0.45147389572580
C            5.30960414419063        1.50110215387196       -0.77727824606357
C            5.87270630768054        2.72876546881363       -1.08855483462978
C            7.34347052246180        2.90667355966510       -1.42494519781231
C            7.46033347581552        3.47853356500727       -2.84539450651249
C            7.97648258246682        3.88064662079128       -0.42040203525823
C            8.13067226418037        1.59480758198632       -1.37101133009949
C            5.03613530903822        3.84890550440729       -1.07586528282523
C            3.68329343275694        3.71833671270903       -0.82637737741659
C            3.12105485657473        2.46852663209761       -0.55871401697103
N            1.75336037275818        2.37414136781343       -0.39232383087460
C            0.95398373913453        3.54844388308435       -0.34868322637270
C            0.58126086093183        4.22175265799342       -1.50575034941646
C           -0.29625055890768        5.28460143621799       -1.43014416708377
C           -0.82617421468140        5.71288050664285       -0.21368877128857
C           -1.85450175685421        6.83114622739212       -0.19726375022252
C           -2.30326174910995        7.19819195089319        1.21956401454156
C           -1.26350141442470        8.08769528004362       -0.85064413164430
C           -3.08576059790462        6.35732392688749       -0.98416266179991
C           -0.40868266236229        5.05481637998339        0.93764852396680
C            0.46574680628692        3.98578407071876        0.87496640079173
C            1.07129513132648        1.17878607081823       -0.21990743133996
C           -0.32071972945612        1.16932867947790       -0.29381148433905
C           -1.03120043868671        0.00222913125658        0.00289476867490
N           -2.42713511632950        0.00677860625018        0.00825321505993
C           -3.24542863785686       -0.98499758777897       -0.49986902489494
C           -2.93327336409501       -2.16218262886498       -1.16425007247415
C           -3.96980262364083       -2.97280913432459       -1.57807809880008
C           -5.31971657376645       -2.65510131467365       -1.36702639503372
C           -6.38885331645721       -3.61979789493600       -1.86009929912580
C           -7.80653716477018       -3.14181169874528       -1.53413733628290
C           -6.27314705924890       -3.76225421729343       -3.38449259971724
C           -6.18613908156275       -4.98853729822633       -1.19494091757136
C           -5.62260152820149       -1.46218996507895       -0.73441747332820
C           -4.59874452459900       -0.62517362978873       -0.30702421852175
C           -4.59190615803276        0.65293520428772        0.34135194227384
C           -5.60673924605740        1.49654623940777        0.77723117885760
C           -5.29091022659482        2.68748132857769        1.40722987928471
C           -6.34965238822867        3.65900491867990        1.90926220450615
C           -7.77312194280107        3.18952062243331        1.59642859268950
C           -6.21941036953561        3.80171261453983        3.43246257077941
C           -6.14454111592789        5.02604539657461        1.24136201642658
C           -3.93725500859918        2.99654334335067        1.60686167326604
C           -2.90947930144159        2.17914356044358        1.18460279746231
C           -3.23472633515831        1.00392039298883        0.52301878287827
C           -0.32557930279388       -1.16899530352887        0.29441423791201
C            1.06593685923857       -1.18611383401612        0.21210862337333
C            1.80519587774428       -0.00558442286106       -0.00532783085619
C            0.43628537690033       -3.98184442006929       -0.88776003655935
C           -0.44328575152070       -5.04654919092164       -0.95087901681955
H           -3.89669908585110       -7.10298405033351        0.94595566685307
H           -2.85449797052536       -6.18099414705132        2.02742667703419
H           -3.49402531242634       -5.42361624998340        0.57122864921785
H           -1.00904223710206       -7.91881448917179        1.85492725383631
H           -0.41184796832885       -8.40980085640653        0.27107490644286
H           -2.02526628133015       -8.89482063601555        0.79992122879600
H           -2.81777211152602       -6.32443920039672       -1.71520190604496
H           -3.08565582380818       -7.97946465439406       -1.18362857981395
H           -1.51858205665608       -7.52301299586343       -1.84341979037576
H           -0.59672291432134       -5.78816969630635        2.33044485125904
H            0.96106302176228       -3.91251706763064        2.44411531856785
H            3.03985131430925       -4.61885544123484        0.82509644088967
H            5.40716327227016       -4.86439076751314        1.25160047377518
H            7.73121706801205       -0.91206041544035        2.06001053955778
H            8.10218389029424       -1.20988159135268        0.35158735241890
H            9.16353538051405       -1.83188574794436        1.61032978579091
H            9.01913831626123       -4.04810519390971        0.60807044603739
H            7.85501840475198       -3.53221473176192       -0.61658553105492
H            7.48458665302436       -4.89606079761049        0.43590785873717
H            6.99675490861973       -2.83998424420986        3.53982452448012
H            6.94248280719842       -4.48113961927560        2.90019000344038
H            8.49296648201651       -3.66280503593525        3.08582668241856
H            5.92132105975677       -0.65029042261201        0.77407036876515
H            5.92361598578835        0.61859100591540       -0.79155689934221
H            7.00679624744748        2.79672963946887       -3.56204544479547
H            8.50694979346694        3.61408743391262       -3.11119128023951
H            6.96022538746434        4.43975472159496       -2.92662239567224
H            7.50557483010268        4.85867133151111       -0.46380065959015
H            7.87075899176744        3.49596961410965        0.59198866722950
H            9.03636268838152        4.00368498703391       -0.63467259131551
H            7.73433664702481        0.86958669025026       -2.07796143235735
H            9.17068178953876        1.78433246301413       -1.63078424549138
H            8.10692157609519        1.16993392474079       -0.37032484334980
H            5.42758183710467        4.83385785751584       -1.27791765628905
H            3.05967136886301        4.59978899479177       -0.84732960935029
H            0.96323382267646        3.89073201988614       -2.46037765042693
H           -0.58567422096675        5.77392641980073       -2.34748897022039
H           -1.46467715025487        7.54337231704707        1.82021052078796
H           -3.03579050669315        8.00132051349775        1.17108832178331
H           -2.77011355263981        6.34946867934526        1.71341823992286
H           -0.98852744212988        7.90797363418421       -1.88604871986394
H           -0.37447495861341        8.40933633027429       -0.31192069924507
H           -1.99105378926903        8.89613674816827       -0.82933435393283
H           -3.47051598041932        5.43258343595386       -0.55852007465231
H           -3.86995139245857        7.11021487309947       -0.94432628591820
H           -2.84114017721851        6.17461058032436       -2.02699500508315
H           -0.77016945445947        5.35689463491161        1.90654220862779
H            0.76534091173176        3.47041251076650        1.77628328543286
H           -0.86840212058599        2.05143901046166       -0.58298287610885
H           -1.91196788568429       -2.44208546908718       -1.37229199177067
H           -3.71568510330407       -3.88613739875297       -2.09482964814870
H           -7.94520038109272       -3.03577227126705       -0.46063836774767
H           -8.52826549751924       -3.87141639130215       -1.89669596277424
H           -8.01964135546832       -2.19121636095894       -2.01737589436749
H           -6.39920675626277       -2.79280443340266       -3.86211303211641
H           -5.30361372616591       -4.15885851979939       -3.67318608314431
H           -7.04199585589153       -4.43523568666746       -3.75901106488118
H           -6.96639115861772       -5.67846205466272       -1.51037685735903
H           -5.22598068853842       -5.42105702699953       -1.46060465892072
H           -6.22922976157298       -4.89031815933272       -0.11204853631692
H           -6.64112823670576       -1.15508541671860       -0.56419144495207
H           -6.62861200645830        1.19601293165154        0.61554462374087
H           -7.98754474441240        2.24039134594095        2.08196097547253
H           -7.92225253160686        3.08397603846147        0.52428600079189
H           -8.48706250893855        3.92361665742772        1.96528618116261
H           -5.24490296797959        4.19246594312287        3.71223512485767
H           -6.98068382275767        4.47970088718074        3.81337229367171
H           -6.34722404199412        2.83337110837307        3.91185903908828
H           -6.91720070657418        5.72119187200117        1.56394203268961
H           -6.19876684538714        4.92752800308983        0.15899834026353
H           -5.17904725482191        5.45243361244205        1.49743787877649
H           -3.67290447842275        3.90831535271662        2.12123489953089
H           -1.88470237818472        2.45244724513875        1.38420469199592
H           -0.87618756505783       -2.04820272761010        0.58691730446289
H            0.73090281098124       -3.46147632113382       -1.78785750147099
H           -0.81387701686550       -5.34021634878243       -1.91892662360943

 projected vibrational frequencies (cm⁻¹)
eigval :       -0.00    -0.00     0.00     0.00     0.00     0.00
eigval :        7.90    12.63    13.96    16.65    24.45    26.26
eigval :       26.67    29.58    30.04    32.67    33.63    38.89
eigval :       39.09    43.36    44.42    58.99    60.51    65.47
eigval :       68.53    69.31    75.76    77.32    88.98    91.18
eigval :       99.20   101.34   102.12   125.21   128.46   146.35
eigval :      150.63   159.37   161.65   161.95   170.98   177.97
eigval :      179.42   179.85   181.57   185.39   193.47   196.94
eigval :      203.02   210.63   211.28   221.52   221.57   223.45
eigval :      225.05   229.21   229.40   231.15   233.50   239.51
eigval :      244.17   252.44   257.62   259.89   263.16   273.56
eigval :      280.16   285.40   297.08   309.43   310.41   313.79
eigval :      316.54   316.67   317.74   318.47   321.09   322.47
eigval :      328.55   337.03   344.64   346.29   347.76   350.96
eigval :      354.43   359.21   362.02   366.37   370.60   374.54
eigval :      377.03   379.50   381.73   392.06   395.05   399.35
eigval :      401.03   408.18   411.54   416.54   421.16   424.97
eigval :      431.39   439.92   440.21   445.50   446.32   456.70
eigval :      457.00   461.68   464.34   465.97   469.30   470.65
eigval :      483.05   492.85   505.87   517.15   524.25   525.93
eigval :      528.45   550.51   559.83   561.02   575.94   579.45
eigval :      583.39   588.08   591.90   596.85   609.32   610.72
eigval :      616.24   616.66   636.77   637.06   644.44   659.66
eigval :      660.31   664.23   684.66   688.89   696.58   697.79
eigval :      704.38   707.93   717.50   718.05   729.21   729.76
eigval :      769.34   789.26   794.48   797.29   802.27   813.79
eigval :      815.97   819.74   826.70   832.44   841.51   851.69
eigval :      867.08   868.66   868.69   869.49   869.50   872.80
eigval :      872.87   873.32   873.64   879.26   881.43   882.29
eigval :      901.81   912.54   913.65   914.46   915.24   920.39
eigval :      926.47   926.65   928.04   928.17   935.12   945.39
eigval :      958.06   959.03   959.47   959.49   959.84   959.90
eigval :      961.45   961.65   961.72   962.21   962.52   962.65
eigval :      962.72   962.90   963.32   964.93   964.95   965.07
eigval :      966.20  1008.84  1013.77  1030.52  1031.78  1033.16
eigval :     1034.05  1034.26  1034.75  1034.88  1035.22  1035.32
eigval :     1035.73  1035.76  1036.28  1038.29  1040.75  1088.68
eigval :     1089.29  1117.16  1131.95  1133.72  1140.04  1140.28
eigval :     1144.00  1145.41  1146.39  1154.13  1160.52  1176.80
eigval :     1183.41  1188.60  1199.16  1199.67  1207.31  1218.19
eigval :     1223.33  1223.81  1225.38  1226.81  1226.83  1227.85
eigval :     1227.95  1229.13  1229.23  1230.98  1232.60  1234.06
eigval :     1234.11  1238.55  1243.08  1245.13  1246.56  1258.44
eigval :     1259.02  1268.20  1274.93  1275.06  1278.35  1281.97
eigval :     1283.60  1286.35  1287.69  1297.33  1301.90  1307.75
eigval :     1308.66  1313.61  1314.06  1315.96  1316.95  1338.47
eigval :     1348.98  1351.94  1360.28  1360.89  1374.65  1375.83
eigval :     1384.09  1397.05  1397.34  1402.18  1403.71  1403.95
eigval :     1404.11  1404.94  1404.95  1404.97  1405.26  1407.14
eigval :     1407.21  1407.92  1408.33  1412.43  1416.70  1417.71
eigval :     1427.50  1427.68  1427.92  1428.01  1428.97  1429.00
eigval :     1443.32  1448.98  1473.40  1479.61  1480.36  1482.18
eigval :     1485.54  1488.44  1489.81  1489.85  1491.62  1492.01
eigval :     1492.74  1492.75  1493.57  1493.61  1494.10  1495.12
eigval :     1495.19  1497.41  1497.42  1499.92  1500.86  1501.25
eigval :     1501.35  1502.99  1503.06  1504.38  1505.45  1506.12
eigval :     1506.25  1507.58  1507.65  1512.02  1512.58  1514.08
eigval :     1514.11  1514.20  1515.05  1515.21  1519.13  1519.34
eigval :     1519.44  1522.06  1522.69  1523.05  1536.11  1548.59
eigval :     1549.47  1556.39  1560.00  1567.68  1585.51  1589.41
eigval :     1594.56  1595.55  3017.21  3017.54  3018.46  3018.57
eigval :     3019.03  3019.06  3019.59  3019.61  3023.47  3023.52
eigval :     3025.77  3026.05  3026.09  3026.27  3026.29  3026.31
eigval :     3026.41  3026.62  3026.95  3027.33  3027.42  3027.46
eigval :     3029.73  3029.89  3030.15  3030.20  3031.24  3031.25
eigval :     3032.38  3032.51  3035.01  3035.20  3035.21  3035.26
eigval :     3035.92  3035.97  3036.70  3037.27  3037.53  3039.52
eigval :     3039.63  3039.70  3045.69  3045.71  3045.77  3045.80
eigval :     3046.40  3046.43  3049.37  3049.57  3050.91  3050.95
eigval :     3051.90  3051.98  3077.35  3077.49  3078.44  3078.54
eigval :     3080.11  3080.22  3082.54  3082.65  3090.62  3091.26
eigval :     3092.77  3093.37  3094.72  3094.82  3111.36  3111.74
eigval :     3112.34  3116.16  3117.96  3118.06  3138.98  3146.30

   temp. (K)  partition function   enthalpy   heat capacity  entropy
                                   cal/mol     cal/K/mol   cal/K/mol   J/K/mol
 298.15  VIB  0.199E+33            42310.129    258.246    261.861
         ROT  0.126E+09              888.752      2.981     40.053
         INT  0.252E+41            43198.881    261.227    301.915
         TR   0.271E+29             1481.254      4.968     46.319
         TOT                       44680.1352   266.1949   348.2339  1457.0105

       T/K    H(0)-H(T)+PV         H(T)/Eh          T*S/Eh         G(T)/Eh
   ------------------------------------------------------------------------
    298.15    0.712023E-01    0.130305E+01    0.165457E+00    0.113759E+01
   ------------------------------------------------------------------------

         :::::::::::::::::::::::::::::::::::::::::::::::::::::
         ::                  THERMODYNAMIC                  ::
         :::::::::::::::::::::::::::::::::::::::::::::::::::::
         :: total free energy        -189.077447454626 Eh   ::
         ::.................................................::
         :: total energy             -190.215039665231 Eh   ::
         :: zero point energy           1.231847027007 Eh   ::
         :: G(RRHO) w/o ZPVE           -0.094254816402 Eh   ::
         :: G(RRHO) contrib.            1.137592210605 Eh   ::
         :::::::::::::::::::::::::::::::::::::::::::::::::::::

           -------------------------------------------------
          | TOTAL ENERGY             -190.215039665231 Eh   |
          | TOTAL ENTHALPY           -188.911990310500 Eh   |
          | TOTAL FREE ENERGY        -189.077447454626 Eh   |
          | GRADIENT NORM               0.000069083904 Eh/α |
           -------------------------------------------------

 * finished run on 2025/09/08 at 18:06:42.153
