   * xtb version 6.7.1 (edcfbbe) compiled by 'albert@albert-system' on 2024-07-22

   ID    Z sym.   atoms
    1    6 C      1-8, 10-19, 21-30, 32-44, 46-70
    2    7 N      9, 31, 45
    3    5 B      20
    4    1 H      71-146

          program call               : xtb data2507/gas/TBN-TPA/TBN-TPA.xyz --gfn 2 --ohess vtight --parallel 40 --molden --ceasefiles --namespace data2507/gas/TBN-TPA/TBN-TPA_gas_S0_preOpt
          :  Hamiltonian                  GFN2-xTB          :
 * total energy  :  -190.1381803 Eh     change       -0.4933412E-08 Eh
 * total energy  :  -190.2147926 Eh     change       -0.7661225E-01 Eh
 * total energy  :  -190.2443731 Eh     change       -0.2958055E-01 Eh
 * total energy  :  -190.2574497 Eh     change       -0.1307658E-01 Eh
 * total energy  :  -190.2653794 Eh     change       -0.7929651E-02 Eh
 * total energy  :  -190.2710129 Eh     change       -0.5633535E-02 Eh
 * total energy  :  -190.2755623 Eh     change       -0.4549412E-02 Eh
 * total energy  :  -190.2794174 Eh     change       -0.3855146E-02 Eh
 * total energy  :  -190.2825827 Eh     change       -0.3165267E-02 Eh
 * total energy  :  -190.2849523 Eh     change       -0.2369613E-02 Eh
 * total energy  :  -190.3035025 Eh     change       -0.4844568E-06 Eh
 * total energy  :  -190.3035030 Eh     change       -0.4508007E-06 Eh
 * total energy  :  -190.3035034 Eh     change       -0.4560356E-06 Eh
 * total energy  :  -190.3035038 Eh     change       -0.4354996E-06 Eh
 * total energy  :  -190.3035043 Eh     change       -0.4428245E-06 Eh
 * total energy  :  -190.3035047 Eh     change       -0.4216202E-06 Eh
 * total energy  :  -190.3035051 Eh     change       -0.4212983E-06 Eh
 * total energy  :  -190.3035056 Eh     change       -0.4252287E-06 Eh
 * total energy  :  -190.3035056 Eh     change       -0.2698613E-08 Eh
   *** GEOMETRY OPTIMIZATION CONVERGED AFTER 152 ITERATIONS ***

 final structure:
================
146
 xtb: 6.7.1 (edcfbbe)
C           -1.97692077588712       -7.54885427833620        1.62938751481380
C           -1.58626004713838       -7.02387549334906        0.24544426172314
C           -0.88988266244925       -8.15772837536394       -0.51996155322685
C           -2.86926121076733       -6.60740416287253       -0.48800820442157
C           -0.65519254527005       -5.82442039306770        0.31402808707628
C           -0.19362886670432       -5.29206278166405        1.51212752189617
C            0.62547279757440       -4.17665407240510        1.53550991012163
C            1.00760303816914       -3.56708798627546        0.35057240683511
N            1.79182776814706       -2.37740127722707        0.35065785706463
C            3.16380395801853       -2.46894404151341        0.49452346642622
C            3.74146378135914       -3.71679929296407        0.75024513405707
C            5.09389068326743       -3.84411985790434        0.97307058495555
C            5.93035131736737       -2.72903170672121        0.97727076385050
C            7.42247975918116       -2.80755063978404        1.26309228124953
C            7.75311859218223       -1.92259688428212        2.47316427268539
C            8.19455174127628       -2.31068654967538        0.03230908006179
C            7.88819185200469       -4.23263722716190        1.57378591632562
C            5.35023224993883       -1.50671647168218        0.68604710843661
C            3.99480525008164       -1.33107111228247        0.39325322784484
B            3.34560253502842        0.00164061149408       -0.03832839715310
C            3.98297194069393        1.33422507935877       -0.48751707148336
C            5.32960521804202        1.50936326024623       -0.81866066294478
C            5.90217616414979        2.73179213695656       -1.12397238690095
C            7.38525693127025        2.80940091998435       -1.45373838684836
C            7.67656921108943        1.93259490579595       -2.67975742767481
C            7.84466562372535        4.23577605067474       -1.76783858330336
C            8.19349473230569        2.30187858567172       -0.25084583219021
C            5.06711070388177        3.84752423955221       -1.09353652717738
C            3.72139793315897        3.72072709666545       -0.83290809470271
C            3.15014588718815        2.47274000475615       -0.56378822559899
N            1.78253300044872        2.38152361614623       -0.38276730560523
C            0.99865495722541        3.57116422557426       -0.35975204590477
C            0.58840466541941        4.18525559277016       -1.53290602214790
C           -0.22990840192821        5.30049878002647       -1.48574602284758
C           -0.66289481484640        5.82818698675392       -0.27497985816945
C           -1.59249548157832        7.02695313351632       -0.17964619572146
C           -2.85968547264871        6.60526149341154        0.57792425177056
C           -0.88080751845430        8.15659279160862        0.57785871644729
C           -2.01215924126751        7.56021935442766       -1.55187713898874
C           -0.22484343510454        5.20922612068818        0.89382623824015
C            0.59300531272412        4.09777318582801        0.85889300802737
C            1.10424886127544        1.19510687233661       -0.21144990445264
C           -0.28975169309604        1.18237242109293       -0.24129755371479
C           -0.97154732092260        0.00157839862939        0.01590237818368
N           -2.37236910928844        0.00020090178243        0.02993505131418
C           -3.18762715255850       -0.95277434099658       -0.54969588029368
C           -2.87384643992529       -2.07499348968394       -1.30335363738801
C           -3.91093021544642       -2.84572172006644       -1.78703585010746
C           -5.26017489334127       -2.53986804547342       -1.56257631985862
C           -6.33074421279528       -3.44980987752422       -2.14809938775568
C           -6.19710418609324       -3.46196119397665       -3.67752349117513
C           -6.14581167399007       -4.87186638460342       -1.60074169623402
C           -7.74880529680867       -2.98930107241894       -1.79920410334109
C           -5.56370195078169       -1.40473907322514       -0.83054983238985
C           -4.53939395639449       -0.61246185417411       -0.32890386632273
C           -4.53402885047469        0.60744396157297        0.42783795733162
C           -5.55111763673396        1.39741452714735        0.94741740893286
C           -5.23733468723198        2.53388008320548        1.67301438966030
C           -6.29964277077690        3.44189947399015        2.27632620553157
C           -6.12932412317888        4.86306647786081        1.72194190183738
C           -7.72251560898287        2.97608489776324        1.95510920921024
C           -6.13770800562355        3.45849952841258        3.80296153942982
C           -3.88503378866723        2.84336007722332        1.87280834596419
C           -2.85484220492283        2.07491622808015        1.37099983946578
C           -3.17931647473267        0.95131372385464        0.62395625918292
C           -0.28337997300677       -1.17866241898250        0.25837422068846
C            1.10947458651781       -1.19117673579603        0.19527905344431
C            1.82977938396159        0.00194020387834       -0.01748511271193
C            0.57336008248604       -4.09848666991987       -0.85606227731512
C           -0.24488589995976       -5.21014668815709       -0.86724949816860
H           -2.64839622439238       -8.39773966280364        1.51776099216614
H           -1.10338482126365       -7.88467839612362        2.18346298455969
H           -2.49460558467270       -6.78490085840385        2.20479542770095
H            0.02547785271378       -8.44975993073354       -0.00927399467688
H           -0.63306127625097       -7.85478862712096       -1.53131344661259
H           -1.54358088820065       -9.02524874831649       -0.57952288061461
H           -3.58190742260370       -7.42938263459189       -0.49511015719459
H           -2.66167364393596       -6.32989072179638       -1.51773663439859
H           -3.32730026511049       -5.75509613523270        0.00974846020063
H           -0.47478298309061       -5.73379494707229        2.45384748990874
H            0.96473553563586       -3.76792936786488        2.47617438311637
H            3.12134615322195       -4.60074911608756        0.78212197529337
H            5.48449603163906       -4.83095204004717        1.16254144071440
H            7.19995194067869       -2.26025029408502        3.34726268451980
H            7.49358175310280       -0.88384860644535        2.28809010655588
H            8.81704647013570       -1.97320805701988        2.69661298053051
H            9.26668684302130       -2.38045816512174        0.20551113020051
H            7.95447932511110       -1.27521127955844       -0.19252007663790
H            7.94458163396967       -2.91431355291982       -0.83803032997681
H            7.37730424467674       -4.62838139456475        2.44870149875540
H            7.71283314765765       -4.89483357657238        0.72888353369949
H            8.95673749300603       -4.22914402873305        1.78105745050902
H            5.96556232710717       -0.62222164380387        0.70163208483550
H            5.94345464836316        0.62438268728984       -0.85374721653157
H            8.73347197544065        1.98149551586015       -2.93470354301767
H            7.09854199927620        2.27852631894903       -3.53432284186766
H            7.41898314888270        0.89336921508973       -2.49452439114030
H            7.31014286117908        4.63840883125615       -2.62530566524150
H            7.69434461564100        4.89240130545893       -0.91380143942254
H            8.90693094405234        4.23190269281138       -2.00520527624273
H            7.95952530218365        1.26474667976485       -0.02730836197161
H            9.25998114479856        2.37225524463501       -0.45578174245329
H            7.97052693901728        2.89859514626328        0.63150808172821
H            5.45302505608308        4.83447445955946       -1.29181418748435
H            3.10135280891324        4.60521052222875       -0.84537629237113
H            0.90511120226525        3.78017045943706       -2.48296460963663
H           -0.53341807903811        5.74578923487585       -2.41881224616667
H           -2.63012265520027        6.31980468706098        1.60081672550512
H           -3.57168032889003        7.42735427721386        0.60645201656619
H           -3.32854856589980        5.75686414552942        0.08355291498135
H           -1.53313707584322        9.02373897246111        0.65524231234030
H            0.02412952384038        8.45146302336817        0.05050286598146
H           -0.60380027133657        7.84828861842484        1.58222482580595
H           -2.54275504864518        6.80008646262748       -2.12053432063098
H           -2.68033082194142        8.40896746443808       -1.42103245861630
H           -1.15028791995694        7.89849860426278       -2.12248892715920
H           -0.52871838393413        5.59199156473103        1.85612413690043
H            0.91528920077270        3.62273048973111        1.77428498351880
H           -0.84910417998079        2.07181018668533       -0.48010380470912
H           -1.85124316772290       -2.34127651438409       -1.52236593661634
H           -3.65691007773737       -3.71841457838438       -2.36941885389032
H           -6.31255476316515       -2.45453739800543       -4.07203363872010
H           -6.96466004491682       -4.09581623982024       -4.11721181242636
H           -5.22601515471485       -3.83829660603723       -3.98696423905079
H           -5.18490151612457       -5.28637552099762       -1.89028195584983
H           -6.20166709082940       -4.86625506937587       -0.51408373661978
H           -6.92720172743479       -5.52577138450974       -1.98289650822772
H           -8.47121594420847       -3.67774431017966       -2.23369687931106
H           -7.90132519872095       -2.97701763098564       -0.72242118094233
H           -7.94814769430335       -1.99804510078394       -2.19954867216037
H           -6.58208462436041       -1.10935296063512       -0.64009910564050
H           -6.57200038326175        1.09931748901341        0.77549541840600
H           -6.20560503900072        4.85440603189949        0.63653837417624
H           -5.16434199028441        5.28108985859280        1.99229974002123
H           -6.90534995468283        5.51567008164485        2.11703766292353
H           -7.91091770728855        1.98489413969843        2.36088397394325
H           -8.43888208241939        3.66292510602054        2.40197580849578
H           -7.89538260545499        2.96136622752847        0.88143718568135
H           -6.90008417578684        4.08972780826159        4.25526428254912
H           -5.16294795720154        3.84037134320950        4.09347812687867
H           -6.24092633474158        2.45152309178363        4.20197235025155
H           -3.62285441884238        3.71726008806017        2.44973864283298
H           -1.82909458149139        2.34411079325243        1.57102714439198
H           -0.83678696802044       -2.06814972794560        0.51045449583035
H            0.87393093611604       -3.62709459303926       -1.78068479712296
H           -0.57123233489509       -5.59684322804903       -1.82056654751637

          :  Hamiltonian                  GFN2-xTB          :
         :: gradient norm              0.000039563452 Eh/a0 ::
         :: HOMO-LUMO gap              2.356205808769 eV    ::
         :: SCC energy              -193.587149225840 Eh    ::
         :: -> dispersion             -0.196404335378 Eh    ::
         :: repulsion energy           3.283643665630 Eh    ::

    * Orbital Energies and Occupations

         #    Occupation            Energy/Eh            Energy/eV
      -------------------------------------------------------------
         1        2.0000           -0.6611309             -17.9903
       ...           ...                  ...                  ...
       167        2.0000           -0.3966631             -10.7938
       168        2.0000           -0.3950349             -10.7494
       169        2.0000           -0.3926552             -10.6847
       170        2.0000           -0.3871466             -10.5348
       171        2.0000           -0.3864026             -10.5145
       172        2.0000           -0.3833425             -10.4313
       173        2.0000           -0.3822607             -10.4018
       174        2.0000           -0.3696727             -10.0593
       175        2.0000           -0.3689900             -10.0407
       176        2.0000           -0.3631919              -9.8830
       177        2.0000           -0.3523949              -9.5892
       178        2.0000           -0.3449904              -9.3877
       179        2.0000           -0.3342187              -9.0946 (HOMO)
       180                         -0.2476297              -6.7383 (LUMO)
       181                         -0.2309045              -6.2832
       182                         -0.2278672              -6.2006
       183                         -0.2269667              -6.1761
       184                         -0.2260655              -6.1516
       185                         -0.2255565              -6.1377
       186                         -0.2126932              -5.7877
       187                         -0.2097938              -5.7088
       188                         -0.2076551              -5.6506
       189                         -0.2012807              -5.4771
       190                         -0.1927301              -5.2445
       ...                                ...                  ...
       356                          0.7534566              20.5026
      -------------------------------------------------------------
                  HL-Gap            0.0865890 Eh            2.3562 eV

     #   Z          covCN         q      C6AA      α(0)
     1   6 C        3.761    -0.108    22.620     6.780
     2   6 C        3.903     0.026    20.085     6.370
     3   6 C        3.761    -0.106    22.569     6.772
     4   6 C        3.762    -0.104    22.536     6.767
     5   6 C        2.974     0.009    27.806     8.650
     6   6 C        2.925    -0.039    28.966     8.826
     7   6 C        2.920    -0.040    29.001     8.831
     8   6 C        2.935     0.065    26.551     8.451
     9   7 N        2.756    -0.053    22.257     7.007
    10   6 C        2.926     0.055    26.764     8.484
    11   6 C        2.918    -0.059    29.477     8.903
    12   6 C        2.926    -0.039    28.966     8.826
    13   6 C        2.969    -0.006    28.177     8.707
    14   6 C        3.903     0.025    20.100     6.373
    15   6 C        3.761    -0.104    22.542     6.768
    16   6 C        3.762    -0.102    22.489     6.760
    17   6 C        3.761    -0.105    22.557     6.770
    18   6 C        2.933    -0.041    29.015     8.834
    19   6 C        2.886    -0.086    30.155     9.003
    20   5 B        2.725     0.189    18.547     7.216
    21   6 C        2.886    -0.086    30.155     9.003
    22   6 C        2.933    -0.041    29.014     8.834
    23   6 C        2.969    -0.006    28.177     8.707
    24   6 C        3.903     0.025    20.100     6.373
    25   6 C        3.761    -0.104    22.541     6.768
    26   6 C        3.761    -0.105    22.557     6.770
    27   6 C        3.762    -0.102    22.490     6.760
    28   6 C        2.926    -0.039    28.966     8.826
    29   6 C        2.918    -0.059    29.477     8.903
    30   6 C        2.926     0.055    26.763     8.484
    31   7 N        2.756    -0.053    22.257     7.007
    32   6 C        2.935     0.065    26.551     8.451
    33   6 C        2.920    -0.040    29.001     8.831
    34   6 C        2.925    -0.039    28.966     8.826
    35   6 C        2.974     0.009    27.806     8.650
    36   6 C        3.903     0.026    20.085     6.370
    37   6 C        3.762    -0.104    22.535     6.767
    38   6 C        3.761    -0.106    22.569     6.772
    39   6 C        3.761    -0.108    22.620     6.780
    40   6 C        2.928    -0.033    28.825     8.805
    41   6 C        2.921    -0.040    28.991     8.830
    42   6 C        2.932     0.061    26.639     8.464
    43   6 C        2.922    -0.089    30.234     9.017
    44   6 C        2.912     0.062    26.602     8.457
    45   7 N        2.803    -0.044    22.084     6.980
    46   6 C        3.078     0.043    26.946     8.511
    47   6 C        2.909    -0.054    29.330     8.880
    48   6 C        2.931    -0.041    29.016     8.834
    49   6 C        2.972    -0.005    28.132     8.700
    50   6 C        3.903     0.026    20.089     6.371
    51   6 C        3.762    -0.105    22.544     6.768
    52   6 C        3.762    -0.106    22.563     6.771
    53   6 C        3.761    -0.106    22.575     6.773
    54   6 C        2.918    -0.045    29.118     8.849
    55   6 C        3.068    -0.022    28.474     8.750
    56   6 C        3.068    -0.022    28.474     8.750
    57   6 C        2.918    -0.045    29.118     8.849
    58   6 C        2.972    -0.005    28.132     8.700
    59   6 C        3.903     0.026    20.090     6.371
    60   6 C        3.762    -0.106    22.563     6.771
    61   6 C        3.761    -0.106    22.575     6.773
    62   6 C        3.762    -0.105    22.544     6.768
    63   6 C        2.931    -0.041    29.016     8.834
    64   6 C        2.909    -0.054    29.330     8.880
    65   6 C        3.078     0.043    26.946     8.511
    66   6 C        2.922    -0.089    30.234     9.017
    67   6 C        2.932     0.061    26.639     8.464
    68   6 C        2.898    -0.112    30.842     9.106
    69   6 C        2.921    -0.040    28.991     8.830
    70   6 C        2.928    -0.033    28.825     8.805
    71   1 H        0.925     0.038     2.480     2.463
    72   1 H        0.925     0.036     2.502     2.473
    73   1 H        0.925     0.037     2.486     2.466
    74   1 H        0.925     0.034     2.528     2.486
    75   1 H        0.925     0.037     2.493     2.469
    76   1 H        0.925     0.039     2.464     2.455
    77   1 H        0.925     0.038     2.470     2.458
    78   1 H        0.925     0.035     2.517     2.481
    79   1 H        0.925     0.038     2.473     2.459
    80   1 H        0.926     0.042     2.417     2.431
    81   1 H        0.926     0.039     2.466     2.456
    82   1 H        0.926     0.018     2.771     2.603
    83   1 H        0.926     0.028     2.614     2.529
    84   1 H        0.925     0.031     2.566     2.505
    85   1 H        0.925     0.036     2.499     2.472
    86   1 H        0.925     0.033     2.537     2.491
    87   1 H        0.925     0.033     2.540     2.492
    88   1 H        0.925     0.033     2.542     2.493
    89   1 H        0.925     0.031     2.573     2.508
    90   1 H        0.925     0.033     2.538     2.492
    91   1 H        0.925     0.033     2.539     2.492
    92   1 H        0.925     0.032     2.551     2.498
    93   1 H        0.926     0.032     2.556     2.500
    94   1 H        0.926     0.032     2.557     2.501
    95   1 H        0.925     0.034     2.537     2.491
    96   1 H        0.925     0.031     2.566     2.505
    97   1 H        0.925     0.036     2.500     2.472
    98   1 H        0.925     0.033     2.538     2.492
    99   1 H        0.925     0.033     2.539     2.492
   100   1 H        0.925     0.032     2.551     2.498
   101   1 H        0.925     0.033     2.542     2.493
   102   1 H        0.925     0.033     2.540     2.492
   103   1 H        0.925     0.031     2.573     2.508
   104   1 H        0.926     0.028     2.614     2.529
   105   1 H        0.926     0.018     2.770     2.603
   106   1 H        0.926     0.039     2.466     2.455
   107   1 H        0.926     0.042     2.417     2.431
   108   1 H        0.925     0.035     2.518     2.481
   109   1 H        0.925     0.038     2.471     2.458
   110   1 H        0.925     0.038     2.473     2.459
   111   1 H        0.925     0.039     2.464     2.455
   112   1 H        0.925     0.034     2.528     2.486
   113   1 H        0.925     0.037     2.493     2.469
   114   1 H        0.925     0.037     2.486     2.466
   115   1 H        0.925     0.038     2.480     2.463
   116   1 H        0.925     0.036     2.502     2.473
   117   1 H        0.926     0.036     2.508     2.476
   118   1 H        0.926     0.036     2.501     2.473
   119   1 H        0.926     0.027     2.627     2.534
   120   1 H        0.926     0.026     2.643     2.542
   121   1 H        0.926     0.025     2.657     2.549
   122   1 H        0.925     0.033     2.550     2.497
   123   1 H        0.925     0.034     2.527     2.486
   124   1 H        0.925     0.035     2.522     2.484
   125   1 H        0.925     0.037     2.486     2.466
   126   1 H        0.925     0.032     2.564     2.504
   127   1 H        0.925     0.034     2.533     2.489
   128   1 H        0.925     0.033     2.540     2.493
   129   1 H        0.925     0.035     2.519     2.482
   130   1 H        0.925     0.035     2.519     2.482
   131   1 H        0.926     0.034     2.525     2.485
   132   1 H        0.926     0.034     2.524     2.485
   133   1 H        0.925     0.032     2.564     2.504
   134   1 H        0.925     0.037     2.485     2.465
   135   1 H        0.925     0.034     2.533     2.489
   136   1 H        0.925     0.035     2.519     2.482
   137   1 H        0.925     0.033     2.541     2.493
   138   1 H        0.925     0.035     2.519     2.482
   139   1 H        0.925     0.034     2.527     2.486
   140   1 H        0.925     0.035     2.522     2.484
   141   1 H        0.925     0.033     2.550     2.497
   142   1 H        0.926     0.025     2.656     2.549
   143   1 H        0.926     0.026     2.644     2.543
   144   1 H        0.926     0.027     2.626     2.534
   145   1 H        0.926     0.036     2.501     2.473
   146   1 H        0.926     0.036     2.507     2.476

molecular dipole:
                 x           y           z       tot (Debye)
 q only:       -0.418      -0.001       0.008
   full:       -0.428      -0.001       0.008       1.088

 projected vibrational frequencies (cm⁻¹)
eigval :       -0.00    -0.00     0.00     0.00     0.00     0.00
eigval :        8.69    12.69    13.71    16.47    23.78    26.13
eigval :       26.95    27.59    30.51    30.88    33.42    35.12
eigval :       36.00    42.41    45.09    55.99    57.45    61.94
eigval :       67.68    72.68    73.60    74.67    88.31    92.26
eigval :       96.81    98.74   103.29   124.74   127.83   141.87
eigval :      152.07   158.24   161.13   162.72   169.87   175.05
eigval :      175.60   175.91   179.38   183.80   194.24   194.44
eigval :      203.33   209.97   213.48   217.61   220.92   221.05
eigval :      222.55   225.39   226.67   231.42   237.88   239.98
eigval :      246.86   250.86   260.18   264.65   271.47   276.93
eigval :      284.24   293.85   298.00   309.26   310.66   315.37
eigval :      315.80   316.86   317.04   318.28   320.64   321.84
eigval :      322.78   336.86   347.52   349.26   352.26   353.27
eigval :      354.40   360.48   363.04   368.61   373.95   375.88
eigval :      380.66   380.93   383.51   394.97   401.14   401.29
eigval :      407.15   413.23   415.34   420.36   426.68   430.75
eigval :      441.50   442.53   445.70   448.21   451.50   459.87
eigval :      460.00   464.89   466.32   468.99   470.35   474.97
eigval :      487.79   494.41   514.67   518.85   527.40   529.28
eigval :      550.62   553.88   567.95   570.09   580.29   581.43
eigval :      589.68   590.09   594.99   600.12   612.96   617.51
eigval :      617.96   624.36   639.29   644.57   651.91   664.21
eigval :      664.52   685.17   688.70   697.92   701.90   708.79
eigval :      708.83   712.20   720.03   721.15   730.45   734.61
eigval :      777.79   799.92   813.11   814.63   816.83   818.42
eigval :      818.72   822.74   833.39   837.97   852.18   870.27
eigval :      871.47   872.12   872.37   874.48   874.60   875.94
eigval :      875.96   881.99   882.69   900.11   907.00   911.59
eigval :      915.70   916.00   916.47   916.55   918.44   925.29
eigval :      929.20   929.25   934.05   934.89   937.80   949.06
eigval :      959.53   959.67   960.10   960.17   961.14   961.17
eigval :      961.18   961.62   962.46   962.68   962.69   962.79
eigval :      962.87   963.19   963.76   963.82   967.48   967.53
eigval :      968.53  1013.38  1016.90  1031.45  1034.50  1034.58
eigval :     1034.82  1035.72  1035.77  1035.81  1036.00  1036.32
eigval :     1036.41  1037.39  1037.42  1041.96  1047.88  1099.16
eigval :     1110.25  1123.28  1132.46  1141.09  1141.14  1144.09
eigval :     1144.18  1146.72  1152.52  1163.26  1171.17  1178.85
eigval :     1191.83  1200.36  1202.89  1203.80  1220.27  1227.41
eigval :     1227.68  1228.19  1228.31  1228.56  1228.59  1229.37
eigval :     1232.30  1233.39  1233.53  1234.73  1234.88  1235.35
eigval :     1239.18  1245.10  1245.28  1257.08  1258.85  1266.93
eigval :     1274.92  1275.42  1279.35  1282.55  1283.68  1285.83
eigval :     1294.83  1298.34  1302.73  1304.32  1310.65  1312.00
eigval :     1312.16  1320.09  1320.14  1333.11  1344.76  1348.91
eigval :     1353.69  1355.44  1360.48  1389.25  1398.08  1398.15
eigval :     1399.65  1402.39  1404.05  1404.46  1405.01  1405.06
eigval :     1405.19  1405.95  1407.80  1407.83  1409.83  1410.29
eigval :     1410.33  1414.57  1427.35  1428.83  1428.92  1428.94
eigval :     1429.01  1431.02  1431.05  1432.17  1434.96  1457.77
eigval :     1461.72  1483.50  1483.56  1487.23  1488.04  1489.81
eigval :     1491.64  1491.67  1491.96  1492.28  1492.35  1492.66
eigval :     1494.46  1494.49  1494.50  1496.17  1496.52  1496.56
eigval :     1500.80  1501.14  1501.17  1502.10  1504.43  1504.54
eigval :     1504.73  1506.60  1506.70  1507.08  1507.12  1507.19
eigval :     1514.97  1514.98  1515.02  1515.18  1515.22  1515.35
eigval :     1519.43  1519.50  1520.76  1520.79  1521.37  1522.18
eigval :     1540.00  1545.32  1547.01  1568.19  1568.64  1570.93
eigval :     1571.08  1580.43  1595.50  1598.64  1603.61  1603.68
eigval :     1604.27  1618.68  3018.20  3018.26  3018.98  3019.14
eigval :     3019.35  3019.38  3020.21  3020.25  3023.67  3023.69
eigval :     3024.63  3024.74  3025.60  3025.67  3026.13  3026.70
eigval :     3026.73  3027.27  3027.76  3028.03  3028.06  3028.30
eigval :     3029.14  3029.20  3030.66  3030.69  3032.01  3032.07
eigval :     3032.34  3032.43  3033.63  3033.78  3035.21  3035.39
eigval :     3036.21  3036.53  3036.88  3036.92  3037.57  3037.78
eigval :     3040.09  3040.15  3044.73  3045.11  3045.25  3045.38
eigval :     3047.41  3047.49  3048.53  3048.92  3049.35  3049.37
eigval :     3057.02  3057.17  3078.64  3078.71  3079.13  3079.23
eigval :     3081.92  3082.10  3084.69  3084.72  3092.61  3092.67
eigval :     3094.37  3095.19  3104.84  3107.15  3107.31  3112.89
eigval :     3114.90  3115.30  3116.02  3116.48  3116.99  3117.00

   temp. (K)  partition function   enthalpy   heat capacity  entropy
                                   cal/mol     cal/K/mol   cal/K/mol   J/K/mol
 298.15  VIB  0.269E+33            42144.447    256.296    261.173
         ROT  0.128E+09              888.752      2.981     40.077
         INT  0.345E+41            43033.199    259.276    301.250
         TR   0.271E+29             1481.254      4.968     46.319
         TOT                       44514.4528   264.2446   347.5689  1454.2281

       T/K    H(0)-H(T)+PV         H(T)/Eh          T*S/Eh         G(T)/Eh
   ------------------------------------------------------------------------
    298.15    0.709383E-01    0.130692E+01    0.165141E+00    0.114178E+01
   ------------------------------------------------------------------------

         :::::::::::::::::::::::::::::::::::::::::::::::::::::
         ::                  THERMODYNAMIC                  ::
         :::::::::::::::::::::::::::::::::::::::::::::::::::::
         :: total free energy        -189.161727358467 Eh   ::
         ::.................................................::
         :: total energy             -190.303505560218 Eh   ::
         :: zero point energy           1.235981087662 Eh   ::
         :: G(RRHO) w/o ZPVE           -0.094202885911 Eh   ::
         :: G(RRHO) contrib.            1.141778201751 Eh   ::
         :::::::::::::::::::::::::::::::::::::::::::::::::::::

           -------------------------------------------------
          | TOTAL ENERGY             -190.303505560218 Eh   |
          | TOTAL ENTHALPY           -188.996586176612 Eh   |
          | TOTAL FREE ENERGY        -189.161727358467 Eh   |
          | GRADIENT NORM               0.000039564490 Eh/α |
          | HOMO-LUMO GAP               2.356205365665 eV   |
           -------------------------------------------------

 * finished run on 2025/09/08 at 17:30:21.825
