   * xtb version 6.7.1 (edcfbbe) compiled by 'albert@albert-system' on 2024-07-22

   ID    Z sym.   atoms
    1    6 C      1-8, 10-19, 21-30, 32-44, 46-70
    2    7 N      9, 31, 45
    3    5 B      20
    4    1 H      71-146

          program call               : xtb data2507/gas/TBN-TPA/TBN-TPA_gas_S0_crest.xyz --gfn 2 --ohess vtight --parallel 40 --molden --ceasefiles --namespace data2507/gas/TBN-TPA/TBN-TPA_gas_S0_finalOpt
          :  Hamiltonian                  GFN2-xTB          :
 * total energy  :  -190.3041223 Eh     change       -0.7884694E-08 Eh
 * total energy  :  -190.3041242 Eh     change       -0.1921250E-05 Eh
 * total energy  :  -190.3041272 Eh     change       -0.2993757E-05 Eh
 * total energy  :  -190.3041286 Eh     change       -0.1440434E-05 Eh
 * total energy  :  -190.3041280 Eh     change        0.6373012E-06 Eh
 * total energy  :  -190.3041304 Eh     change       -0.2353800E-05 Eh
 * total energy  :  -190.3041318 Eh     change       -0.1417707E-05 Eh
 * total energy  :  -190.3041330 Eh     change       -0.1276321E-05 Eh
 * total energy  :  -190.3041345 Eh     change       -0.1436546E-05 Eh
 * total energy  :  -190.3041358 Eh     change       -0.1327664E-05 Eh
 * total energy  :  -190.3041398 Eh     change       -0.6535357E-06 Eh
 * total energy  :  -190.3041401 Eh     change       -0.3278649E-06 Eh
 * total energy  :  -190.3041404 Eh     change       -0.3173818E-06 Eh
 * total energy  :  -190.3041408 Eh     change       -0.3090124E-06 Eh
 * total energy  :  -190.3041410 Eh     change       -0.2441657E-06 Eh
 * total energy  :  -190.3041413 Eh     change       -0.2599288E-06 Eh
 * total energy  :  -190.3041415 Eh     change       -0.2126644E-06 Eh
 * total energy  :  -190.3041417 Eh     change       -0.2562187E-06 Eh
 * total energy  :  -190.3041417 Eh     change       -0.4542585E-08 Eh
   *** GEOMETRY OPTIMIZATION CONVERGED AFTER 22 ITERATIONS ***

 final structure:
================
146
 xtb: 6.7.1 (edcfbbe)
C           -3.14466434548933       -6.32011820549792        0.90134928314333
C           -1.89946334236904       -6.81493509497281        0.15022050842827
C           -1.33659900408279       -8.06909380511691        0.83220775794128
C           -2.31900280812565       -7.19297922904280       -1.27269991760463
C           -0.85823444640054       -5.70834460960111        0.17895901105570
C           -0.37857075356588       -5.25064981119911        1.40484066883427
C            0.50402390189969       -4.19184684291673        1.48787882014547
C            0.93715451614884       -3.56006583860794        0.32999219332760
N            1.73783633300716       -2.38258511241047        0.37903739619283
C            3.10567687931917       -2.47693737923530        0.54631337780869
C            3.66696681350528       -3.72872775190731        0.82596549456456
C            5.00968979259764       -3.85724523754154        1.08230993318254
C            5.85706294613940       -2.74589363774777        1.09120196211688
C            7.32563513839753       -2.93052597055601        1.44110572823893
C            8.11748623203347       -1.62180702433018        1.37827013660114
C            7.96097397946811       -3.91644608748045        0.45035962368722
C            7.43137433740744       -3.48763308917344        2.86770406883988
C            5.29757981839687       -1.52478242514112        0.77043750343733
C            3.94477455258181       -1.34567076274772        0.45024065814407
B            3.30982971202934       -0.01089104050319       -0.00275434257672
C            3.95318285748213        1.32067673238033       -0.45333395833442
C            5.30871527162563        1.49394401857816       -0.76519584039388
C            5.87478658042444        2.71209747255638       -1.08569145571981
C            7.34697205745081        2.89085611981634       -1.42328287363891
C            7.46751154436769        3.44387090393365       -2.85027582248764
C            7.97645644836461        3.87728335508021       -0.42928507943304
C            8.13394264553702        1.57974887684793       -1.34983037166637
C            5.03108281831565        3.82627190742878       -1.08833467006998
C            3.68629199320134        3.70340755900283       -0.84037283554311
C            3.11924166170793        2.45500603826837       -0.55726521689486
N            1.75054508170603        2.36764501950853       -0.39434570069517
C            0.95534825848261        3.54945096945768       -0.35686138547415
C            0.51517106850907        4.16331616820740       -1.52171525663585
C           -0.36456158474315        5.22522926881738       -1.44954617601338
C           -0.83365944347101        5.70421864384405       -0.22770143468303
C           -1.87331810822048        6.81249368527691       -0.20934859648920
C           -2.27629800945124        7.21949900459212        1.21034039805337
C           -1.31758027656383        8.05229360358034       -0.92270369629884
C           -3.12724118571475        6.30374383461035       -0.93628513581195
C           -0.34699647552402        5.10709022948608        0.92866363839187
C            0.53546481542510        4.04312924498694        0.86857308679570
C            1.06988905489680        1.18262651551479       -0.22509494482253
C           -0.32326640683686        1.17061017241311       -0.28358115847596
C           -1.01307514114748        0.00124005735626        0.00073452357852
N           -2.41341959816420        0.00743923026324        0.00725189391239
C           -3.23211273071162       -0.97458560633634       -0.51642949885693
C           -2.92209884235180       -2.14009293971560       -1.20319142695211
C           -3.96133231208971       -2.94019684443522       -1.63069342637434
C           -5.30941193767399       -2.62345203908952       -1.41553293826434
C           -6.38120509399692       -3.57600567795944       -1.92638250882241
C           -7.79726655195554       -3.10347520046985       -1.58578106373208
C           -6.26923332705338       -3.68476686585733       -3.45376871989729
C           -6.17842037557903       -4.95928186677375       -1.29213799040829
C           -5.60945510926558       -1.44022320850601       -0.76212536862621
C           -4.58301048215324       -0.61648591240848       -0.31838275802736
C           -4.57366773961840        0.65091120444733        0.35663788308541
C           -5.58788844348705        1.48359176485840        0.81176813283521
C           -5.27032485337049        2.66436626188798        1.46133873908882
C           -6.32793428460097        3.62612521217132        1.98444478621373
C           -7.75208669510470        3.16162675742203        1.66739258368950
C           -6.19249196945848        3.74056941777450        3.50953859856477
C           -6.12552038448340        5.00541765954503        1.34149744499528
C           -3.91716922305518        2.96976932199663        1.66043815862231
C           -2.88983766536907        2.16022170791269        1.22206243185750
C           -3.21753133171666        0.99696474484303        0.53966289364910
C           -0.32928315216091       -1.17304129517488        0.27932672203714
C            1.06355851748524       -1.19309946542209        0.21446757759339
C            1.79247479036437       -0.00715755426695       -0.00520151893492
C            0.50630201107893       -4.03243952434430       -0.90012735092896
C           -0.37938603569538       -5.09296576405837       -0.97108904622949
H           -3.93912410945394       -7.06083177226413        0.84092378019771
H           -2.92772295864562       -6.13895080953027        1.95043918320356
H           -3.50262681567443       -5.39040512438749        0.46338358137959
H           -1.07607924296658       -7.87569714297225        1.86897992223110
H           -0.44289606076083       -8.41045662073559        0.31368440151891
H           -2.07422520279922       -8.86840492911675        0.81113191796678
H           -2.75479468030731       -6.34149983427544       -1.78987764568035
H           -3.06896793964869       -7.98035678608619       -1.23227372705111
H           -1.47302320771653       -7.56412806201589       -1.84683173994324
H           -0.71291662027695       -5.71123470158609        2.32190511664579
H            0.84456932303427       -3.83418999623142        2.44862137698615
H            3.03745490085323       -4.60635064627942        0.85158439163328
H            5.39771537421392       -4.84174631417892        1.29814808536025
H            7.71985889113324       -0.88823376138694        2.07596124663090
H            8.10088902067017       -1.20701637571717        0.37313654049071
H            9.15541914421356       -1.81178789577225        1.64569094173896
H            9.01934348856008       -4.04140370683794        0.67088938304348
H            7.86185684420307       -3.54247801105602       -0.56675896701734
H            7.48666330022971       -4.89257559524789        0.50158144929379
H            6.97461853175367       -2.79753125871437        3.57435629325703
H            6.92779138815683       -4.44661077475425        2.95532425839978
H            8.47538165662627       -3.62404851073295        3.14320132770394
H            5.91236851006680       -0.64215890979813        0.78183046623297
H            5.92048547240658        0.60917296245361       -0.76979938961188
H            7.01305468801871        2.75441741642491       -3.55902883687457
H            8.51448373971959        3.57414167967579       -3.11735969273929
H            6.96978045762971        4.40526864339960       -2.94447178225910
H            7.50466819634322        4.85432293803870       -0.48619453063114
H            7.86815711900080        3.50546925184774        0.58768704551579
H            9.03687450776005        3.99951229468487       -0.64133774067931
H            7.74058184367767        0.84582273709576       -2.04956744008306
H            9.17499256030356        1.76577976200746       -1.60777009888629
H            8.10647367282698        1.16737255899277       -0.34393825475436
H            5.42385005861248        4.80837947155177       -1.30646320946272
H            3.05945412399951        4.58267696834878       -0.87498506703769
H            0.84756532479723        3.78883231711473       -2.47888884183360
H           -0.70533390739218        5.67099129526209       -2.37154971081672
H           -1.42308653701460        7.59959418900086        1.76768097850862
H           -3.02482335898335        8.00782669995345        1.16263081405345
H           -2.70846584153115        6.37954031470543        1.74892304162912
H           -1.06965923260008        7.83837150828110       -1.95851396773620
H           -0.41751643520099        8.40295407363359       -0.42169688668406
H           -2.05430538533208        8.85258703103443       -0.90866055680090
H           -3.48247964088783        5.38478894593219       -0.47404096506301
H           -3.91954578443967        7.04739122162188       -0.88412540235963
H           -2.92142444184414        6.09872173652272       -1.98324196241524
H           -0.66067735946626        5.45117125584937        1.90032745129987
H            0.88622262282125        3.57231307049846        1.77578980017679
H           -0.87579645568395        2.05248179767572       -0.56102629373625
H           -1.90153000191813       -2.41923093312545       -1.41458444551935
H           -3.70913653153111       -3.84584151748869       -2.16191391099510
H           -7.93183792804893       -3.01878025566523       -0.50985559440773
H           -8.52086539364007       -3.82517861506700       -1.96012574022376
H           -8.01163183343376       -2.14339468400023       -2.04929302560898
H           -6.39668295777424       -2.70514448168099       -3.90977669228129
H           -5.30020461919237       -4.07460120482780       -3.75317929199724
H           -7.03883714878788       -4.34956084782817       -3.84103508715175
H           -6.96120110920499       -5.64055342773075       -1.61976017863055
H           -5.22018107476185       -5.38785041201475       -1.57086793950430
H           -6.21742435222890       -4.88481389908274       -0.20722304733627
H           -6.62715563900885       -1.13251007213395       -0.58834295970459
H           -6.61010270087519        1.18455097255930        0.64965833826954
H           -7.96476493189735        2.20380760737016        2.13634993671343
H           -7.90440126936289        3.07555023727799        0.59395209686286
H           -8.46519330675129        3.88855300058796        2.05162821905944
H           -5.21683048785151        4.12567870908244        3.79301712242707
H           -6.95211847210510        4.41181137942608        3.90531030905107
H           -6.31924533735985        2.76371263492220        3.97161714594341
H           -6.89642014440095        5.69432537834650        1.68113264868209
H           -6.18525081936845        4.92756209979828        0.25776591094457
H           -5.15867078862170        5.42677948795505        1.60084749951503
H           -3.65094586156419        3.87381819275533        2.18753893614145
H           -1.86466090070140        2.43069462336708        1.42201502572001
H           -0.88524802794678       -2.05208180132925        0.55911102905459
H            0.85138505940584       -3.54761487735250       -1.80213678966507
H           -0.70136727689624       -5.42013175700369       -1.94588664567090

          :  Hamiltonian                  GFN2-xTB          :
         :: gradient norm              0.000042848207 Eh/a0 ::
         :: HOMO-LUMO gap              2.362503408033 eV    ::
         :: SCC energy              -193.587513124896 Eh    ::
         :: -> dispersion             -0.198681580081 Eh    ::
         :: repulsion energy           3.283371395260 Eh    ::

    * Orbital Energies and Occupations

         #    Occupation            Energy/Eh            Energy/eV
      -------------------------------------------------------------
         1        2.0000           -0.6619391             -18.0123
       ...           ...                  ...                  ...
       167        2.0000           -0.3969506             -10.8016
       168        2.0000           -0.3949743             -10.7478
       169        2.0000           -0.3925778             -10.6826
       170        2.0000           -0.3880530             -10.5595
       171        2.0000           -0.3857134             -10.4958
       172        2.0000           -0.3825460             -10.4096
       173        2.0000           -0.3821790             -10.3996
       174        2.0000           -0.3693062             -10.0493
       175        2.0000           -0.3686315             -10.0310
       176        2.0000           -0.3643661              -9.9149
       177        2.0000           -0.3528189              -9.6007
       178        2.0000           -0.3456507              -9.4056
       179        2.0000           -0.3337555              -9.0820 (HOMO)
       180                         -0.2469351              -6.7194 (LUMO)
       181                         -0.2319783              -6.3124
       182                         -0.2281192              -6.2074
       183                         -0.2267270              -6.1696
       184                         -0.2258932              -6.1469
       185                         -0.2257744              -6.1436
       186                         -0.2125880              -5.7848
       187                         -0.2100548              -5.7159
       188                         -0.2087823              -5.6813
       189                         -0.2008923              -5.4666
       190                         -0.1922101              -5.2303
       ...                                ...                  ...
       356                          0.7520722              20.4649
      -------------------------------------------------------------
                  HL-Gap            0.0868204 Eh            2.3625 eV

     #   Z          covCN         q      C6AA      α(0)
     1   6 C        3.762    -0.106    22.579     6.773
     2   6 C        3.903     0.026    20.079     6.369
     3   6 C        3.761    -0.106    22.575     6.773
     4   6 C        3.761    -0.105    22.559     6.771
     5   6 C        2.974     0.009    27.803     8.649
     6   6 C        2.928    -0.035    28.860     8.810
     7   6 C        2.919    -0.040    29.001     8.831
     8   6 C        2.936     0.065    26.555     8.451
     9   7 N        2.756    -0.052    22.254     7.006
    10   6 C        2.925     0.055    26.762     8.484
    11   6 C        2.918    -0.059    29.459     8.900
    12   6 C        2.927    -0.035    28.862     8.810
    13   6 C        2.969    -0.006    28.175     8.707
    14   6 C        3.903     0.025    20.100     6.373
    15   6 C        3.761    -0.106    22.563     6.771
    16   6 C        3.762    -0.104    22.531     6.766
    17   6 C        3.762    -0.104    22.529     6.766
    18   6 C        2.930    -0.046    29.130     8.851
    19   6 C        2.886    -0.087    30.167     9.005
    20   5 B        2.724     0.188    18.563     7.219
    21   6 C        2.886    -0.087    30.166     9.005
    22   6 C        2.930    -0.046    29.130     8.851
    23   6 C        2.969    -0.006    28.175     8.707
    24   6 C        3.903     0.025    20.100     6.373
    25   6 C        3.762    -0.104    22.529     6.766
    26   6 C        3.762    -0.104    22.531     6.766
    27   6 C        3.761    -0.106    22.562     6.771
    28   6 C        2.927    -0.035    28.862     8.810
    29   6 C        2.918    -0.059    29.458     8.900
    30   6 C        2.925     0.055    26.762     8.484
    31   7 N        2.756    -0.052    22.254     7.006
    32   6 C        2.937     0.065    26.554     8.451
    33   6 C        2.919    -0.040    29.000     8.831
    34   6 C        2.928    -0.034    28.859     8.810
    35   6 C        2.974     0.009    27.802     8.649
    36   6 C        3.903     0.026    20.079     6.369
    37   6 C        3.761    -0.105    22.560     6.771
    38   6 C        3.761    -0.106    22.575     6.773
    39   6 C        3.762    -0.106    22.578     6.773
    40   6 C        2.925    -0.037    28.922     8.819
    41   6 C        2.922    -0.040    28.998     8.831
    42   6 C        2.935     0.060    26.646     8.466
    43   6 C        2.923    -0.090    30.256     9.020
    44   6 C        2.912     0.062    26.612     8.459
    45   7 N        2.803    -0.043    22.068     6.977
    46   6 C        3.078     0.044    26.941     8.510
    47   6 C        2.909    -0.054    29.338     8.882
    48   6 C        2.931    -0.041    29.009     8.833
    49   6 C        2.972    -0.005    28.135     8.701
    50   6 C        3.903     0.026    20.089     6.371
    51   6 C        3.761    -0.106    22.578     6.773
    52   6 C        3.762    -0.104    22.536     6.767
    53   6 C        3.761    -0.104    22.537     6.767
    54   6 C        2.918    -0.045    29.114     8.848
    55   6 C        3.068    -0.021    28.468     8.749
    56   6 C        3.068    -0.021    28.467     8.749
    57   6 C        2.918    -0.045    29.114     8.848
    58   6 C        2.972    -0.005    28.136     8.701
    59   6 C        3.903     0.026    20.089     6.371
    60   6 C        3.761    -0.106    22.578     6.773
    61   6 C        3.762    -0.104    22.536     6.767
    62   6 C        3.761    -0.104    22.537     6.767
    63   6 C        2.931    -0.041    29.010     8.833
    64   6 C        2.909    -0.054    29.338     8.882
    65   6 C        3.078     0.044    26.941     8.510
    66   6 C        2.923    -0.090    30.253     9.020
    67   6 C        2.936     0.060    26.646     8.466
    68   6 C        2.897    -0.112    30.837     9.105
    69   6 C        2.922    -0.040    28.999     8.831
    70   6 C        2.925    -0.037    28.923     8.820
    71   1 H        0.925     0.039     2.463     2.454
    72   1 H        0.925     0.036     2.504     2.475
    73   1 H        0.925     0.039     2.459     2.452
    74   1 H        0.925     0.037     2.493     2.469
    75   1 H        0.925     0.034     2.528     2.486
    76   1 H        0.925     0.039     2.467     2.456
    77   1 H        0.925     0.035     2.521     2.483
    78   1 H        0.925     0.037     2.486     2.466
    79   1 H        0.925     0.035     2.511     2.478
    80   1 H        0.926     0.036     2.508     2.476
    81   1 H        0.926     0.039     2.465     2.455
    82   1 H        0.926     0.018     2.767     2.601
    83   1 H        0.926     0.021     2.711     2.575
    84   1 H        0.925     0.034     2.531     2.488
    85   1 H        0.925     0.036     2.506     2.476
    86   1 H        0.925     0.032     2.553     2.499
    87   1 H        0.925     0.033     2.541     2.493
    88   1 H        0.925     0.032     2.558     2.501
    89   1 H        0.925     0.034     2.532     2.488
    90   1 H        0.925     0.032     2.562     2.503
    91   1 H        0.925     0.034     2.532     2.488
    92   1 H        0.925     0.033     2.543     2.494
    93   1 H        0.926     0.040     2.453     2.449
    94   1 H        0.926     0.040     2.453     2.449
    95   1 H        0.925     0.032     2.562     2.503
    96   1 H        0.925     0.033     2.543     2.494
    97   1 H        0.925     0.034     2.532     2.488
    98   1 H        0.925     0.034     2.532     2.488
    99   1 H        0.925     0.032     2.558     2.501
   100   1 H        0.925     0.033     2.541     2.493
   101   1 H        0.925     0.034     2.531     2.488
   102   1 H        0.925     0.032     2.553     2.499
   103   1 H        0.925     0.036     2.506     2.476
   104   1 H        0.926     0.021     2.711     2.575
   105   1 H        0.926     0.018     2.768     2.602
   106   1 H        0.926     0.039     2.466     2.455
   107   1 H        0.926     0.036     2.507     2.476
   108   1 H        0.925     0.035     2.511     2.478
   109   1 H        0.925     0.037     2.486     2.465
   110   1 H        0.925     0.035     2.521     2.483
   111   1 H        0.925     0.037     2.493     2.469
   112   1 H        0.925     0.034     2.527     2.486
   113   1 H        0.925     0.039     2.467     2.456
   114   1 H        0.925     0.039     2.458     2.452
   115   1 H        0.925     0.039     2.463     2.454
   116   1 H        0.925     0.036     2.504     2.475
   117   1 H        0.926     0.042     2.420     2.433
   118   1 H        0.926     0.036     2.504     2.475
   119   1 H        0.926     0.028     2.618     2.530
   120   1 H        0.926     0.027     2.633     2.537
   121   1 H        0.926     0.022     2.696     2.567
   122   1 H        0.925     0.035     2.516     2.481
   123   1 H        0.925     0.033     2.539     2.492
   124   1 H        0.925     0.035     2.519     2.482
   125   1 H        0.925     0.033     2.550     2.497
   126   1 H        0.925     0.034     2.528     2.486
   127   1 H        0.925     0.034     2.525     2.485
   128   1 H        0.925     0.034     2.536     2.490
   129   1 H        0.925     0.036     2.501     2.473
   130   1 H        0.925     0.032     2.553     2.499
   131   1 H        0.926     0.035     2.521     2.483
   132   1 H        0.926     0.035     2.521     2.483
   133   1 H        0.925     0.035     2.519     2.482
   134   1 H        0.925     0.035     2.517     2.481
   135   1 H        0.925     0.033     2.539     2.492
   136   1 H        0.925     0.034     2.527     2.486
   137   1 H        0.925     0.034     2.525     2.485
   138   1 H        0.925     0.033     2.550     2.497
   139   1 H        0.925     0.034     2.535     2.490
   140   1 H        0.925     0.032     2.553     2.498
   141   1 H        0.925     0.036     2.502     2.474
   142   1 H        0.926     0.022     2.696     2.567
   143   1 H        0.926     0.027     2.632     2.537
   144   1 H        0.926     0.028     2.619     2.531
   145   1 H        0.926     0.036     2.505     2.475
   146   1 H        0.926     0.042     2.420     2.433

molecular dipole:
                 x           y           z       tot (Debye)
 q only:       -0.481       0.004      -0.007
   full:       -0.502       0.003      -0.008       1.277

 projected vibrational frequencies (cm⁻¹)
eigval :       -0.00    -0.00     0.00     0.00     0.00     0.00
eigval :       10.04    12.92    14.24    16.63    24.80    25.90
eigval :       27.03    30.19    30.28    31.11    33.75    38.37
eigval :       38.62    42.51    44.62    59.24    61.07    65.63
eigval :       68.66    72.88    75.45    77.14    89.88    91.11
eigval :       97.60   101.88   102.65   126.14   128.72   150.69
eigval :      152.82   160.32   162.35   164.45   171.88   178.95
eigval :      180.27   181.59   182.11   187.31   194.45   198.27
eigval :      204.09   212.15   213.05   222.23   222.45   224.15
eigval :      225.85   229.10   229.52   231.35   233.49   238.61
eigval :      247.43   251.75   257.99   263.05   269.09   274.28
eigval :      282.08   288.64   302.54   309.54   311.10   314.26
eigval :      317.24   317.37   318.12   319.38   321.25   324.42
eigval :      329.22   337.07   345.71   347.94   348.19   357.58
eigval :      359.70   360.44   363.25   368.58   375.37   376.28
eigval :      380.67   381.28   383.43   395.31   400.84   402.35
eigval :      407.20   413.63   415.18   418.27   426.33   430.34
eigval :      440.43   442.57   445.42   446.91   450.26   457.98
eigval :      458.78   462.49   466.67   469.74   472.91   474.72
eigval :      487.75   495.57   514.49   518.95   528.33   529.20
eigval :      551.43   552.41   569.37   571.28   580.41   581.51
eigval :      590.38   591.02   596.87   600.16   612.67   617.50
eigval :      618.91   625.66   639.40   644.04   651.28   663.80
eigval :      665.64   685.20   688.91   697.96   701.22   709.05
eigval :      709.37   713.47   720.05   720.64   731.37   734.22
eigval :      777.32   799.26   813.29   815.04   818.83   820.61
eigval :      822.76   823.54   833.14   840.43   853.55   870.01
eigval :      870.92   871.90   872.07   873.32   874.54   874.89
eigval :      875.82   876.49   881.72   894.60   907.08   915.40
eigval :      915.93   917.77   918.00   918.62   919.86   925.46
eigval :      929.49   929.66   934.40   935.27   937.35   949.21
eigval :      958.93   959.85   959.89   960.10   960.14   960.60
eigval :      961.55   962.02   962.10   962.30   962.84   963.03
eigval :      963.07   963.18   963.75   964.96   964.99   965.27
eigval :      971.23  1013.39  1016.52  1031.42  1034.54  1034.64
eigval :     1035.22  1035.34  1035.49  1035.55  1035.66  1035.73
eigval :     1036.05  1036.17  1037.54  1041.83  1047.98  1097.44
eigval :     1110.56  1123.88  1133.25  1140.60  1140.64  1144.19
eigval :     1144.49  1144.69  1154.54  1160.05  1168.89  1178.74
eigval :     1191.77  1196.59  1200.86  1203.28  1219.44  1227.30
eigval :     1227.37  1227.40  1228.17  1228.33  1228.87  1229.60
eigval :     1231.94  1232.72  1233.18  1233.88  1234.34  1234.48
eigval :     1239.25  1244.79  1246.08  1252.28  1258.53  1265.98
eigval :     1275.28  1275.36  1278.21  1282.33  1284.66  1285.73
eigval :     1294.07  1296.57  1297.40  1303.81  1311.30  1312.20
eigval :     1312.80  1318.03  1319.34  1334.68  1349.05  1353.19
eigval :     1355.07  1360.98  1361.21  1389.32  1397.20  1397.27
eigval :     1399.08  1402.48  1404.45  1405.03  1405.49  1405.52
eigval :     1405.77  1406.01  1407.62  1407.68  1408.79  1408.81
eigval :     1409.55  1414.51  1427.78  1428.95  1429.06  1429.07
eigval :     1429.28  1430.06  1430.09  1434.77  1435.55  1457.27
eigval :     1461.72  1482.98  1483.97  1486.50  1488.11  1489.88
eigval :     1490.08  1490.16  1492.82  1492.99  1492.99  1493.23
eigval :     1493.84  1493.87  1496.03  1496.06  1497.87  1497.88
eigval :     1500.37  1502.30  1502.32  1503.24  1503.34  1504.37
eigval :     1505.94  1506.40  1506.60  1506.64  1508.41  1508.49
eigval :     1513.63  1514.50  1514.57  1515.24  1515.24  1515.38
eigval :     1519.35  1519.66  1519.73  1522.33  1522.86  1523.01
eigval :     1537.24  1542.63  1547.40  1568.31  1568.56  1570.57
eigval :     1571.03  1580.07  1599.19  1601.76  1603.19  1603.52
eigval :     1603.84  1618.14  3017.53  3017.85  3019.12  3019.21
eigval :     3019.24  3019.27  3020.21  3020.30  3023.17  3023.25
eigval :     3025.31  3025.67  3025.90  3025.91  3026.27  3026.57
eigval :     3026.59  3026.92  3027.27  3027.29  3027.78  3028.32
eigval :     3029.27  3029.53  3030.52  3030.56  3031.44  3031.47
eigval :     3032.44  3032.53  3034.48  3034.52  3035.20  3035.37
eigval :     3035.99  3036.02  3036.11  3037.72  3037.94  3039.10
eigval :     3039.53  3039.62  3044.57  3044.63  3046.08  3046.28
eigval :     3047.02  3047.07  3048.20  3048.55  3050.93  3051.00
eigval :     3052.00  3052.14  3071.75  3071.91  3079.00  3079.19
eigval :     3080.15  3080.23  3081.82  3081.94  3085.04  3085.55
eigval :     3093.78  3093.83  3095.71  3096.47  3113.04  3116.60
eigval :     3116.64  3116.73  3120.28  3121.26  3134.70  3142.12

   temp. (K)  partition function   enthalpy   heat capacity  entropy
                                   cal/mol     cal/K/mol   cal/K/mol   J/K/mol
 298.15  VIB  0.107E+33            42038.699    256.551    259.965
         ROT  0.252E+09              888.752      2.981     41.425
         INT  0.269E+41            42927.451    259.532    301.390
         TR   0.271E+29             1481.254      4.968     46.319
         TOT                       44408.7048   264.5001   347.7086  1454.8128

       T/K    H(0)-H(T)+PV         H(T)/Eh          T*S/Eh         G(T)/Eh
   ------------------------------------------------------------------------
    298.15    0.707698E-01    0.130696E+01    0.165208E+00    0.114175E+01
   ------------------------------------------------------------------------

         :::::::::::::::::::::::::::::::::::::::::::::::::::::
         ::                  THERMODYNAMIC                  ::
         :::::::::::::::::::::::::::::::::::::::::::::::::::::
         :: total free energy        -189.162391301722 Eh   ::
         ::.................................................::
         :: total energy             -190.304141729634 Eh   ::
         :: zero point energy           1.236188232981 Eh   ::
         :: G(RRHO) w/o ZPVE           -0.094437805068 Eh   ::
         :: G(RRHO) contrib.            1.141750427913 Eh   ::
         :::::::::::::::::::::::::::::::::::::::::::::::::::::

           -------------------------------------------------
          | TOTAL ENERGY             -190.304141729634 Eh   |
          | TOTAL ENTHALPY           -188.997183720863 Eh   |
          | TOTAL FREE ENERGY        -189.162391301722 Eh   |
          | GRADIENT NORM               0.000042842853 Eh/α |
          | HOMO-LUMO GAP               2.362502717788 eV   |
           -------------------------------------------------

 * finished run on 2025/09/08 at 18:06:01.757
