   * xtb version 6.7.1 (edcfbbe) compiled by 'albert@albert-system' on 2024-07-22

   ID    Z sym.   atoms
    1    6 C      1-11, 13-19, 21-27, 29-31, 33-46
    2    7 N      12, 20, 28, 32
    3    1 H      47-78

          program call               : xtb data2507/gas/DMIC-TRZ/DMIC-TRZ_gas_S0_crest.xyz --gfn 2 --ohess vtight --parallel 40 --molden --ceasefiles --namespace data2507/gas/DMIC-TRZ/DMIC-TRZ_gas_S0_finalOpt
          :  Hamiltonian                  GFN2-xTB          :
 * total energy  :  -117.9726745 Eh     change       -0.6270966E-09 Eh
 * total energy  :  -117.9726757 Eh     change       -0.1248918E-05 Eh
 * total energy  :  -117.9726765 Eh     change       -0.8403276E-06 Eh
 * total energy  :  -117.9726773 Eh     change       -0.7452495E-06 Eh
 * total energy  :  -117.9726771 Eh     change        0.1717612E-06 Eh
 * total energy  :  -117.9726776 Eh     change       -0.5029277E-06 Eh
 * total energy  :  -117.9726779 Eh     change       -0.2977046E-06 Eh
 * total energy  :  -117.9726782 Eh     change       -0.3236670E-06 Eh
 * total energy  :  -117.9726784 Eh     change       -0.1850276E-06 Eh
 * total energy  :  -117.9726785 Eh     change       -0.3387086E-07 Eh
   *** GEOMETRY OPTIMIZATION CONVERGED AFTER 10 ITERATIONS ***

 final structure:
================
78
 xtb: 6.7.1 (edcfbbe)
C            0.83741601742659        2.51788515568903        1.99554693301720
C            1.70155857344237        3.34098104052731        1.02878352021569
C            2.99147204687612        3.75471104639971        1.75865305702151
C            0.99273245397328        4.64491825456880        0.60145393267600
C           -0.01195358026554        4.55594419142807       -0.56381744910647
C           -1.33703792477968        3.95317140411119       -0.13612032776941
C           -2.32184548636884        4.76422644027200        0.41735868628829
C           -3.53347733839650        4.23157491034002        0.82745396270200
C           -3.77917355125599        2.87759258433599        0.70263879733456
C           -2.79728850020748        2.05313949049974        0.16150541295957
C           -2.99401919519764        0.60666022879017        0.06474507476912
N           -1.90695194015572       -0.14141612903753       -0.09652042239871
C           -2.10533306463770       -1.45530904665166       -0.14604231816913
C           -0.93172557563781       -2.31924156055930       -0.26425824568682
C           -1.08815282941368       -3.69141416859012       -0.45176098705556
C            0.02237448188432       -4.50717718672838       -0.54686893162395
C            1.29404393091046       -3.96332249341483       -0.44967206802631
C            1.45509476795028       -2.59958910069654       -0.26126374858560
C            0.34938466745107       -1.77672011089457       -0.17284947345969
N           -3.30623394077830       -2.02486064798725       -0.08373596312327
C           -4.33817174510763       -1.19990320690420        0.06369658257824
C           -5.67936438337160       -1.78098712263886        0.12778192666710
C           -6.79791819761097       -0.95274418774019        0.19687183162893
C           -8.06311489669337       -1.50378848768651        0.25516040303324
C           -8.22311113036208       -2.88085658320626        0.24579633628819
C           -7.11333084100881       -3.70880279499738        0.17740521513541
C           -5.84523562851715       -3.16440465426519        0.11811350281601
N           -4.22729625223817        0.12331759599390        0.16166166192440
C           -1.59054174457669        2.59773585269942       -0.26672082403581
C            0.57427802095460        3.80288081349023       -1.71274281248408
C            1.50125581284337        2.85060392999946       -1.48171038922117
N            2.06687955036940        1.98716497911830       -2.39506447121057
C            2.87543973282625        1.08327326142453       -1.74964633656605
C            3.59488774228420        0.05296779981586       -2.26412542675555
C            4.34778620614041       -0.73106521587749       -1.35383057534586
C            4.32013165082144       -0.41115166066387        0.07109100838919
C            3.60550356585817        0.62426736266134        0.57094308991679
C            2.85448140574177        1.42611407492265       -0.33773856986397
C            2.04017074901335        2.52432746487980       -0.18179679765377
C            5.15838526220262       -1.40055003440346        0.73208580851628
C            5.49050502579339       -1.59391014104991        2.05488625581250
C            6.33054427536357       -2.65406221011111        2.38266867404363
C            6.82333234702371       -3.49931920288062        1.40118786493834
C            6.49505355161374       -3.31541654199852        0.06462214418299
C            5.66034238645683       -2.26360806470385       -0.27568947066361
C            5.14704124732608       -1.82980994931297       -1.54724641449128
H            0.62066738013726        3.10170614183435        2.88808613851753
H            1.36240446861934        1.61366340772118        2.29346776916862
H           -0.10215375130455        2.22843190948302        1.53574712657506
H            3.47978901746491        2.89937653382992        2.21367683646711
H            2.75655620665085        4.46980595177844        2.54456771437027
H            3.69193079643930        4.21739490124014        1.06647015972994
H            0.48828315773601        5.07060157401187        1.47126260483831
H            1.76737375158205        5.35010005950518        0.28860055348123
H           -0.22106813727574        5.58523175700265       -0.88218519102198
H           -2.14005567977852        5.82455164616562        0.52602203541231
H           -4.28734457528946        4.87995204078611        1.24957718623529
H           -4.71196633493527        2.44311197969225        1.02554374430193
H           -2.08579573407685       -4.09592681599241       -0.52182029778873
H           -0.10082194929357       -5.57032886105763       -0.69413330635434
H            2.16325923407051       -4.60094145994557       -0.51830412597739
H            2.44582474953304       -2.18101183155052       -0.18243537016905
H            0.46004185775627       -0.71350693887764       -0.02518765299916
H           -6.65273695891206        0.11621311683602        0.20026179861992
H           -8.92970052157948       -0.86093531185750        0.30766485617090
H           -9.21386462551446       -3.30915640062832        0.29161342299887
H           -7.24059812025197       -4.78150515616915        0.17046524001155
H           -4.96962092245290       -3.79216839685531        0.06642711313231
H           -0.85857878455101        1.93700114527386       -0.70463840125534
H            0.17082321241018        3.97351584554270       -2.69879199381210
H            1.83798304351240        1.95895181878059       -3.37242372381225
H            3.59750819328132       -0.17658378515132       -3.31897013286104
H            3.58844910770208        0.83058748756507        1.62994260867277
H            5.11052519637105       -0.94031214455097        2.82717148916442
H            6.60158118195865       -2.82008461788107        3.41522408822366
H            7.47398103120246       -4.31547558561224        1.68177890515794
H            6.88384514568597       -3.98006892449250       -0.69359886452976
H            5.36150808603602       -2.30478436359234       -2.48756577922587

          :  Hamiltonian                  GFN2-xTB          :
         :: gradient norm              0.000184040589 Eh/a0 ::
         :: HOMO-LUMO gap              0.958004921713 eV    ::
         :: SCC energy              -120.097921886049 Eh    ::
         :: -> dispersion             -0.109351403314 Eh    ::
         :: repulsion energy           2.125243423245 Eh    ::

    * Orbital Energies and Occupations

         #    Occupation            Energy/Eh            Energy/eV
      -------------------------------------------------------------
         1        2.0000           -0.6798324             -18.4992
       ...           ...                  ...                  ...
        98        2.0000           -0.4068918             -11.0721
        99        2.0000           -0.4064302             -11.0595
       100        2.0000           -0.4054427             -11.0327
       101        2.0000           -0.4044346             -11.0052
       102        2.0000           -0.4041011             -10.9961
       103        2.0000           -0.4015993             -10.9281
       104        2.0000           -0.4010872             -10.9141
       105        2.0000           -0.3990211             -10.8579
       106        2.0000           -0.3802131             -10.3461
       107        2.0000           -0.3676598             -10.0045
       108        2.0000           -0.3671322              -9.9902
       109        2.0000           -0.3665819              -9.9752
       110        2.0000           -0.3319886              -9.0339 (HOMO)
       111                         -0.2967825              -8.0759 (LUMO)
       112                         -0.2822516              -7.6805
       113                         -0.2811974              -7.6518
       114                         -0.2401246              -6.5341
       115                         -0.2292492              -6.2382
       116                         -0.2273519              -6.1866
       117                         -0.2262937              -6.1578
       118                         -0.2222910              -6.0488
       119                         -0.2083866              -5.6705
       120                         -0.1956266              -5.3233
       121                         -0.1920018              -5.2246
       ...                                ...                  ...
       216                          0.7686458              20.9159
      -------------------------------------------------------------
                  HL-Gap            0.0352061 Eh            0.9580 eV

     #   Z          covCN         q      C6AA      α(0)
     1   6 C        3.760    -0.106    22.583     6.775
     2   6 C        3.900     0.030    20.021     6.360
     3   6 C        3.763    -0.107    22.585     6.774
     4   6 C        3.813    -0.066    21.745     6.637
     5   6 C        3.863    -0.016    20.819     6.489
     6   6 C        2.971     0.016    27.652     8.625
     7   6 C        2.925    -0.034    28.838     8.806
     8   6 C        2.918    -0.029    28.729     8.789
     9   6 C        2.922    -0.027    28.684     8.783
    10   6 C        2.985    -0.002    28.071     8.691
    11   6 C        2.987     0.202    23.707     7.987
    12   7 N        1.846    -0.298    28.570     7.922
    13   6 C        2.981     0.203    23.702     7.986
    14   6 C        2.984    -0.001    28.053     8.688
    15   6 C        2.924    -0.024    28.611     8.772
    16   6 C        2.918    -0.028    28.696     8.784
    17   6 C        2.920    -0.022    28.556     8.763
    18   6 C        2.918    -0.028    28.700     8.785
    19   6 C        2.924    -0.023    28.569     8.765
    20   7 N        1.844    -0.295    28.492     7.911
    21   6 C        2.984     0.202    23.712     7.988
    22   6 C        2.984    -0.000    28.023     8.683
    23   6 C        2.924    -0.024    28.600     8.770
    24   6 C        2.918    -0.028    28.692     8.784
    25   6 C        2.920    -0.024    28.598     8.770
    26   6 C        2.918    -0.028    28.689     8.783
    27   6 C        2.924    -0.024    28.593     8.769
    28   7 N        1.843    -0.296    28.533     7.916
    29   6 C        2.930    -0.031    28.779     8.798
    30   6 C        2.901    -0.068    29.701     8.936
    31   6 C        3.037     0.059    26.634     8.465
    32   7 N        2.751    -0.142    24.078     7.288
    33   6 C        3.049     0.055    26.715     8.477
    34   6 C        2.900    -0.072    29.795     8.950
    35   6 C        3.069    -0.000    27.961     8.671
    36   6 C        3.063    -0.001    27.979     8.674
    37   6 C        2.901    -0.030    28.758     8.793
    38   6 C        3.071    -0.006    28.088     8.690
    39   6 C        3.053    -0.006    28.119     8.697
    40   6 C        3.054    -0.010    28.205     8.710
    41   6 C        2.912    -0.032    28.799     8.800
    42   6 C        2.921    -0.038    28.935     8.821
    43   6 C        2.920    -0.033    28.818     8.803
    44   6 C        2.912    -0.038    28.939     8.821
    45   6 C        3.081     0.003    27.870     8.655
    46   6 C        2.985    -0.056    29.391     8.893
    47   1 H        0.925     0.036     2.509     2.477
    48   1 H        0.925     0.041     2.439     2.442
    49   1 H        0.925     0.045     2.378     2.411
    50   1 H        0.925     0.045     2.388     2.417
    51   1 H        0.925     0.038     2.481     2.463
    52   1 H        0.925     0.034     2.524     2.485
    53   1 H        0.924     0.038     2.473     2.459
    54   1 H        0.924     0.040     2.452     2.449
    55   1 H        0.924     0.041     2.437     2.441
    56   1 H        0.925     0.034     2.531     2.488
    57   1 H        0.926     0.037     2.494     2.470
    58   1 H        0.926     0.052     2.293     2.368
    59   1 H        0.926     0.054     2.276     2.359
    60   1 H        0.926     0.036     2.501     2.473
    61   1 H        0.926     0.038     2.479     2.462
    62   1 H        0.926     0.043     2.404     2.425
    63   1 H        0.926     0.052     2.290     2.367
    64   1 H        0.926     0.056     2.251     2.346
    65   1 H        0.926     0.036     2.500     2.473
    66   1 H        0.926     0.036     2.502     2.473
    67   1 H        0.926     0.036     2.496     2.471
    68   1 H        0.926     0.055     2.254     2.348
    69   1 H        0.926     0.055     2.252     2.347
    70   1 H        0.926     0.025     2.662     2.551
    71   1 H        0.860     0.154     1.371     1.834
    72   1 H        0.926     0.020     2.726     2.582
    73   1 H        0.926     0.032     2.555     2.500
    74   1 H        0.926     0.022     2.708     2.573
    75   1 H        0.926     0.023     2.694     2.567
    76   1 H        0.926     0.023     2.685     2.562
    77   1 H        0.926     0.024     2.679     2.560
    78   1 H        0.926     0.020     2.730     2.584

molecular dipole:
                 x           y           z       tot (Debye)
 q only:       -0.595       1.016      -0.103
   full:       -0.690       1.031      -0.303       3.246

 projected vibrational frequencies (cm⁻¹)
eigval :       -0.00    -0.00    -0.00     0.00     0.00     0.00
eigval :        8.00    15.83    18.05    23.79    28.20    40.77
eigval :       44.86    46.13    51.89    63.97    66.22    90.47
eigval :       92.29   100.85   106.88   125.89   139.91   154.73
eigval :      172.97   181.24   184.41   196.10   200.59   215.82
eigval :      219.44   226.49   239.64   241.85   251.14   271.22
eigval :      275.08   304.59   307.09   310.29   340.30   356.61
eigval :      364.82   365.46   365.95   372.21   388.85   393.85
eigval :      397.07   407.28   412.96   425.11   440.75   447.04
eigval :      459.41   463.97   470.80   504.40   526.54   530.19
eigval :      536.15   550.16   563.34   574.23   587.25   588.07
eigval :      590.73   612.38   615.65   626.44   626.97   644.37
eigval :      654.45   658.09   666.38   667.76   675.36   677.74
eigval :      685.69   698.38   706.06   735.82   750.29   752.00
eigval :      767.55   768.38   775.77   783.57   784.38   794.38
eigval :      798.34   807.89   818.87   847.63   850.40   856.87
eigval :      860.67   868.98   876.85   878.46   900.04   901.61
eigval :      910.98   911.33   913.11   919.17   921.21   922.69
eigval :      930.49   930.89   931.53   933.82   935.15   956.67
eigval :      958.11   964.67   971.25   984.94   990.42   992.94
eigval :     1010.17  1024.75  1049.01  1072.11  1075.38  1076.76
eigval :     1082.07  1095.37  1108.13  1111.59  1114.28  1118.89
eigval :     1125.37  1129.43  1146.03  1152.87  1163.39  1167.31
eigval :     1177.05  1178.88  1180.51  1181.23  1186.82  1188.34
eigval :     1198.84  1203.79  1206.72  1208.45  1214.10  1220.89
eigval :     1225.20  1241.86  1242.65  1260.36  1268.52  1270.47
eigval :     1275.06  1278.42  1289.09  1303.57  1324.57  1328.11
eigval :     1329.09  1336.07  1339.54  1346.97  1360.13  1370.47
eigval :     1372.04  1373.95  1376.34  1396.60  1402.40  1420.34
eigval :     1420.77  1432.26  1434.13  1438.55  1460.05  1467.52
eigval :     1467.95  1472.96  1478.28  1492.32  1493.00  1501.59
eigval :     1505.65  1513.78  1519.47  1530.28  1558.75  1580.70
eigval :     1581.76  1584.26  1585.67  1593.90  1594.92  1595.70
eigval :     1596.23  1604.23  1632.88  1656.99  2900.42  2960.80
eigval :     2980.07  3022.54  3027.88  3030.95  3042.24  3065.55
eigval :     3066.12  3067.71  3068.46  3070.87  3073.77  3075.60
eigval :     3076.42  3080.03  3082.46  3082.91  3086.09  3086.80
eigval :     3087.54  3088.47  3089.57  3100.03  3105.23  3105.89
eigval :     3106.54  3108.03  3108.22  3117.05  3131.16  3506.32

   temp. (K)  partition function   enthalpy   heat capacity  entropy
                                   cal/mol     cal/K/mol   cal/K/mol   J/K/mol
 298.15  VIB  0.852E+17            21910.778    138.699    135.735
         ROT  0.677E+08              888.752      2.981     38.811
         INT  0.577E+25            22799.531    141.680    174.546
         TR   0.140E+29             1481.254      4.968     45.002
         TOT                       24280.7845   146.6482   219.5478   918.5880

       T/K    H(0)-H(T)+PV         H(T)/Eh          T*S/Eh         G(T)/Eh
   ------------------------------------------------------------------------
    298.15    0.386939E-01    0.649495E+00    0.104314E+00    0.545181E+00
   ------------------------------------------------------------------------

         :::::::::::::::::::::::::::::::::::::::::::::::::::::
         ::                  THERMODYNAMIC                  ::
         :::::::::::::::::::::::::::::::::::::::::::::::::::::
         :: total free energy        -117.427497855178 Eh   ::
         ::.................................................::
         :: total energy             -117.972678462769 Eh   ::
         :: zero point energy           0.610800960462 Eh   ::
         :: G(RRHO) w/o ZPVE           -0.065620352871 Eh   ::
         :: G(RRHO) contrib.            0.545180607591 Eh   ::
         :::::::::::::::::::::::::::::::::::::::::::::::::::::

           -------------------------------------------------
          | TOTAL ENERGY             -117.972678462769 Eh   |
          | TOTAL ENTHALPY           -117.323183609177 Eh   |
          | TOTAL FREE ENERGY        -117.427497855178 Eh   |
          | GRADIENT NORM               0.000183911961 Eh/α |
          | HOMO-LUMO GAP               0.958005811598 eV   |
           -------------------------------------------------

 * finished run on 2025/07/18 at 23:29:42.534
