   * xtb version 6.7.1 (edcfbbe) compiled by 'albert@albert-system' on 2024-07-22

   ID    Z sym.   atoms
    1    6 C      1-11, 13-19, 21-27, 29-31, 33-46
    2    7 N      12, 20, 28, 32
    3    1 H      47-78

          program call               : xtb data2507/gas/DMIC-TRZ/DMIC-TRZ_gas_T1_crest.xyz --gfn 2 --spinpol --tblite --uhf 2 --ohess vtight --parallel 40 --molden --ceasefiles --namespace data2507/gas/DMIC-TRZ/DMIC-TRZ_gas_T1_finalOpt
 * total energy  :  -117.9458742 Eh     change        0.5523954E-07 Eh
 * total energy  :  -117.9459334 Eh     change       -0.5920825E-04 Eh
 * total energy  :  -117.9459524 Eh     change       -0.1899629E-04 Eh
 * total energy  :  -117.9459536 Eh     change       -0.1202443E-05 Eh
 * total energy  :  -117.9459544 Eh     change       -0.7601833E-06 Eh
 * total energy  :  -117.9459551 Eh     change       -0.6801754E-06 Eh
 * total energy  :  -117.9459559 Eh     change       -0.8782210E-06 Eh
 * total energy  :  -117.9459566 Eh     change       -0.6968963E-06 Eh
 * total energy  :  -117.9459571 Eh     change       -0.4238885E-06 Eh
 * total energy  :  -117.9459575 Eh     change       -0.4051936E-06 Eh
 * total energy  :  -117.9459591 Eh     change       -0.3428415E-06 Eh
 * total energy  :  -117.9459595 Eh     change       -0.3855054E-06 Eh
 * total energy  :  -117.9459599 Eh     change       -0.3893089E-06 Eh
 * total energy  :  -117.9459602 Eh     change       -0.3199596E-06 Eh
 * total energy  :  -117.9459605 Eh     change       -0.2752250E-06 Eh
 * total energy  :  -117.9459607 Eh     change       -0.2055853E-06 Eh
 * total energy  :  -117.9459609 Eh     change       -0.1888196E-06 Eh
 * total energy  :  -117.9459610 Eh     change       -0.1667319E-06 Eh
 * total energy  :  -117.9459611 Eh     change       -0.1771737E-07 Eh
   *** GEOMETRY OPTIMIZATION CONVERGED AFTER 22 ITERATIONS ***

 final structure:
================
78
 xtb: 6.7.1 (edcfbbe)
C            0.80855347596439        2.55938232134915        2.02742796655830
C            1.66364663118336        3.37524248448594        1.04653141004141
C            2.95419185504617        3.80126688059861        1.76752446313625
C            0.94550062461585        4.67103763174193        0.60749719917360
C           -0.05317126695223        4.57091976321339       -0.56437198361569
C           -1.37431928897118        3.95489738123838       -0.14165327451963
C           -2.37672311452822        4.75834435751788        0.39081361538797
C           -3.58732517532777        4.21428092794932        0.78939052071827
C           -3.81496558044702        2.85669671839223        0.67239755750220
C           -2.81522579349662        2.03963920235667        0.15220741251138
C           -2.99640183951942        0.59134912619460        0.06028202831800
N           -1.90161331943149       -0.14795906112703       -0.09007924904646
C           -2.08825635767760       -1.46311234271418       -0.13969129380555
C           -0.90549511829272       -2.31663535457611       -0.24517989530947
C           -1.04588046951696       -3.68283795865581       -0.48155228232422
C            0.07298784806792       -4.48881767684737       -0.56234815748820
C            1.33635861690049       -3.94151244759214       -0.39886866301487
C            1.48091134949695       -2.58385413539324       -0.16014959932996
C            0.36732752700835       -1.76973419669507       -0.08939131045375
N           -3.28406711856002       -2.04415438936836       -0.08711635990462
C           -4.32420239785595       -1.22788459931048        0.05329107917171
C           -5.66029387271160       -1.82141356825809        0.11300520727593
C           -6.78751048486381       -1.00359828988904        0.15994569963449
C           -8.04767805848240       -1.56646063566014        0.21569825070540
C           -8.19382098601408       -2.94500790984041        0.22608101329927
C           -7.07523496620469       -3.76263475879145        0.18002795036590
C           -5.81218079528441       -3.20642207380367        0.12317278962471
N           -4.22611788053316        0.09609335585344        0.14870398097981
C           -1.60861212798849        2.59495619290020       -0.26263554397613
C            0.54455011591225        3.82424134862039       -1.70912490296117
C            1.47583766115484        2.85174854668691       -1.43880112159507
N            2.02400344715518        1.97211839486357       -2.35086736570275
C            2.84136994059848        1.09603289115504       -1.70265092757016
C            3.57128050569142        0.04122311322618       -2.23603568556782
C            4.32405500356011       -0.70747299940189       -1.34348213664894
C            4.32893499263743       -0.39841385566121        0.05827731949292
C            3.60446203857947        0.65021673725217        0.57530784895862
C            2.84615826866068        1.43083296113606       -0.31257541286261
C            1.99872291019211        2.55309302186524       -0.16091933033247
C            5.17711988483127       -1.37777151294076        0.69903494255995
C            5.53692594729421       -1.57193314248284        2.01789994484555
C            6.38162783688256       -2.62646041283059        2.33403448808073
C            6.86684540732008       -3.48548218417269        1.34612428881151
C            6.52170477906120       -3.31394112915245        0.02355762898968
C            5.67018561513897       -2.25661733512143       -0.32080948296351
C            5.15324863242217       -1.84725021041717       -1.56057593003013
H            0.60334341285875        3.14480855489148        2.92187018142344
H            1.33650296036806        1.65503763951034        2.32001337109475
H           -0.13664864072376        2.27019919512090        1.57907958785798
H            3.45146845275849        2.94734185539674        2.21563603419142
H            2.72100359623442        4.51317768413190        2.55699044445943
H            3.64573654877129        4.26934039138657        1.07006780487026
H            0.43138542575498        5.09782755172338        1.47113866855075
H            1.71570032741316        5.38109952046626        0.29517073916766
H           -0.27336529968813        5.59806123937913       -0.88302635739645
H           -2.20979991236199        5.82181674940154        0.49234314070548
H           -4.35464096172360        4.85700689185733        1.19580438676062
H           -4.74707220374404        2.41353530781368        0.98541471780399
H           -2.03753241068836       -4.09064761833347       -0.60103303552761
H           -0.03740744788279       -5.54719564870458       -0.74913323498313
H            2.21174115163505       -4.57218169573925       -0.45455386157426
H            2.46438366258989       -2.16200701293638       -0.02644216310398
H            0.46575132807941       -0.71128225590986        0.09606373225025
H           -6.65304131438325        0.06671425819377        0.14848494461019
H           -8.92099904213263       -0.93156462702887        0.25093737205133
H           -9.18058000406812       -3.38266227415258        0.27021316191702
H           -7.19180498517628       -4.83656018437066        0.18916676440256
H           -4.92970414092438       -3.82581915300561        0.08951481261628
H           -0.86102860553623        1.93944627534649       -0.68101300412820
H            0.15614402951474        3.98106900368130       -2.70243805676436
H            1.80549234172524        1.95098852706971       -3.33207826727095
H            3.54596242187487       -0.18611665249200       -3.29173345673460
H            3.61191610776884        0.85389705080300        1.63430506512999
H            5.16917324250220       -0.91639383393688        2.79416324449025
H            6.67110229642076       -2.78882628276523        3.36222593778108
H            7.52288704331541       -4.29580008484347        1.63006970030123
H            6.89747449156442       -3.97960948182730       -0.74021906217530
H            5.34050606146637       -2.30998821982177       -2.51231891349862

 projected vibrational frequencies (cm⁻¹)
eigval :       -0.00    -0.00    -0.00     0.00     0.00     0.00
eigval :        8.79    16.13    17.01    24.17    28.70    40.23
eigval :       44.90    47.86    54.40    64.72    67.30    90.78
eigval :       92.82    99.26   108.31   127.41   139.24   153.15
eigval :      176.73   181.56   184.84   194.17   199.75   217.98
eigval :      223.20   226.85   236.08   241.66   250.55   271.29
eigval :      274.92   304.12   307.99   320.70   332.65   356.71
eigval :      364.88   366.06   367.69   372.17   388.15   395.11
eigval :      402.50   415.06   417.62   424.47   438.72   443.67
eigval :      461.13   466.06   473.86   506.03   514.30   528.40
eigval :      531.00   548.08   560.09   572.33   586.85   587.27
eigval :      588.14   612.29   615.65   619.15   627.35   637.95
eigval :      647.20   653.10   658.35   666.11   671.89   675.71
eigval :      683.18   685.72   691.53   705.70   717.63   738.35
eigval :      751.58   764.24   765.90   775.87   784.62   795.37
eigval :      801.55   806.71   817.32   837.25   847.87   858.69
eigval :      861.90   862.02   877.31   879.05   899.07   900.38
eigval :      910.29   910.79   913.01   914.35   919.44   922.63
eigval :      930.05   930.40   931.47   933.22   936.54   956.34
eigval :      961.55   968.47   977.66   984.12   990.43   992.80
eigval :     1008.34  1022.84  1049.29  1064.33  1075.44  1076.59
eigval :     1084.14  1095.36  1108.40  1110.77  1111.86  1119.74
eigval :     1124.75  1126.51  1145.17  1146.65  1161.40  1167.56
eigval :     1171.61  1178.69  1179.03  1180.94  1185.99  1187.99
eigval :     1199.75  1204.14  1205.62  1206.62  1210.17  1215.38
eigval :     1224.90  1237.98  1241.71  1257.88  1268.64  1270.57
eigval :     1273.24  1283.27  1294.85  1304.47  1311.80  1327.97
eigval :     1328.94  1331.06  1336.12  1344.79  1357.61  1364.24
eigval :     1370.25  1371.89  1374.51  1387.39  1400.02  1411.81
eigval :     1419.89  1432.88  1434.54  1438.32  1463.70  1467.38
eigval :     1468.41  1468.73  1474.16  1479.33  1492.56  1492.71
eigval :     1496.55  1501.61  1507.61  1513.98  1515.15  1518.20
eigval :     1539.19  1554.13  1573.51  1580.90  1583.82  1585.41
eigval :     1587.65  1592.58  1594.49  1595.39  2896.31  2960.76
eigval :     2978.68  3018.72  3024.90  3029.77  3040.76  3065.13
eigval :     3067.86  3068.01  3069.63  3071.21  3073.69  3074.71
eigval :     3075.18  3078.75  3080.08  3082.28  3085.79  3088.13
eigval :     3089.71  3093.22  3095.72  3101.21  3104.72  3106.60
eigval :     3107.89  3108.09  3108.95  3116.27  3132.75  3485.65

   temp. (K)  partition function   enthalpy   heat capacity  entropy
                                   cal/mol     cal/K/mol   cal/K/mol   J/K/mol
 298.15  VIB  0.721E+17            21949.104    139.317    135.779
         ROT  0.677E+08              888.752      2.981     38.813
         INT  0.488E+25            22837.857    142.298    174.591
         TR   0.140E+29             1481.254      4.968     45.002
         TOT                       24319.1105   147.2658   219.5934   918.7787

       T/K    H(0)-H(T)+PV         H(T)/Eh          T*S/Eh         G(T)/Eh
   ------------------------------------------------------------------------
    298.15    0.387550E-01    0.647888E+00    0.104336E+00    0.543552E+00
   ------------------------------------------------------------------------

         :::::::::::::::::::::::::::::::::::::::::::::::::::::
         ::                  THERMODYNAMIC                  ::
         :::::::::::::::::::::::::::::::::::::::::::::::::::::
         :: total free energy        -117.402408786547 Eh   ::
         ::.................................................::
         :: total energy             -117.945961063810 Eh   ::
         :: zero point energy           0.609133208622 Eh   ::
         :: G(RRHO) w/o ZPVE           -0.065580931358 Eh   ::
         :: G(RRHO) contrib.            0.543552277263 Eh   ::
         :::::::::::::::::::::::::::::::::::::::::::::::::::::

           -------------------------------------------------
          | TOTAL ENERGY             -117.945961063810 Eh   |
          | TOTAL ENTHALPY           -117.298072885757 Eh   |
          | TOTAL FREE ENERGY        -117.402408786547 Eh   |
          | GRADIENT NORM               0.000054946471 Eh/α |
           -------------------------------------------------

 * finished run on 2025/07/18 at 23:33:21.727
