   * xtb version 6.7.1 (edcfbbe) compiled by 'albert@albert-system' on 2024-07-22

   ID    Z sym.   atoms
    1    6 C      1-11, 13-19, 21-27, 29-31, 33-46
    2    7 N      12, 20, 28, 32
    3    1 H      47-78

          program call               : xtb data2507/gas/DMIC-TRZ/DMIC-TRZ.xyz --gfn 2 --ohess vtight --parallel 40 --molden --ceasefiles --namespace data2507/gas/DMIC-TRZ/DMIC-TRZ_gas_S0_preOpt
          :  Hamiltonian                  GFN2-xTB          :
 * total energy  :  -117.9524572 Eh     change       -0.1599560E-08 Eh
 * total energy  :  -117.9645231 Eh     change       -0.1206590E-01 Eh
 * total energy  :  -117.9679845 Eh     change       -0.3461466E-02 Eh
 * total energy  :  -117.9687114 Eh     change       -0.7269136E-03 Eh
 * total energy  :  -117.9689539 Eh     change       -0.2424944E-03 Eh
 * total energy  :  -117.9690125 Eh     change       -0.5852996E-04 Eh
 * total energy  :  -117.9690462 Eh     change       -0.3377563E-04 Eh
 * total energy  :  -117.9690664 Eh     change       -0.2012162E-04 Eh
 * total energy  :  -117.9690799 Eh     change       -0.1352377E-04 Eh
 * total energy  :  -117.9690948 Eh     change       -0.1487283E-04 Eh
 * total energy  :  -117.9692815 Eh     change       -0.4219755E-06 Eh
 * total energy  :  -117.9692819 Eh     change       -0.3940630E-06 Eh
 * total energy  :  -117.9692822 Eh     change       -0.3102976E-06 Eh
 * total energy  :  -117.9692825 Eh     change       -0.2575910E-06 Eh
 * total energy  :  -117.9692827 Eh     change       -0.2243891E-06 Eh
 * total energy  :  -117.9692829 Eh     change       -0.1943585E-06 Eh
 * total energy  :  -117.9692830 Eh     change       -0.1247825E-06 Eh
 * total energy  :  -117.9692832 Eh     change       -0.1154857E-06 Eh
 * total energy  :  -117.9692832 Eh     change       -0.8810318E-07 Eh
   *** GEOMETRY OPTIMIZATION CONVERGED AFTER 67 ITERATIONS ***

 final structure:
================
78
 xtb: 6.7.1 (edcfbbe)
C            3.24937299417972        0.32855469104794        2.22733457177166
C            2.65203338172981        0.44325533590099        0.82004992730221
C            2.52769818707525        1.92655421334161        0.43972674272415
C            1.26829285668535       -0.23397052765131        0.84323797437728
C            0.58496103397995       -0.34191378159604       -0.52919551683928
C           -0.68052754143866       -1.15117618906803       -0.38841774085032
C           -0.61692535049873       -2.53795583486484       -0.29398760820017
C           -1.76922328109508       -3.28972215003094       -0.14041376264867
C           -3.00136728628240       -2.66837868681879       -0.07486904014385
C           -3.08024223864312       -1.28073699652120       -0.16411490688577
C           -4.37857777610082       -0.60981402582736       -0.09690739846446
N           -4.40318928329057        0.71562202835473       -0.20543569376112
C           -5.60418628839562        1.28334712464852       -0.14293129916169
C           -5.68268650280226        2.73989853750753       -0.26127891082739
C           -6.91757897868052        3.38234482726887       -0.19989142371196
C           -6.98838708047410        4.75716973436845       -0.31302321928360
C           -5.83178175479616        5.50112778623295       -0.48771741233585
C           -4.60068149519372        4.86684330066559       -0.54922299969839
C           -4.52313136939684        3.49237318052753       -0.43686623171656
N           -6.73815095269518        0.60823331147562        0.02010654391566
C           -6.62115115143248       -0.71257062221668        0.12319106812904
C           -7.84139528349703       -1.49868539692366        0.30728548372506
C           -9.08230538213003       -0.86651102776881        0.35360679399554
C          -10.23205127214567       -1.61191213707232        0.52772811892364
C          -10.15453193508300       -2.98997648872819        0.65712217585506
C           -8.92236874170503       -3.62366131275499        0.61198576509564
C           -7.76887779913209       -2.88415707875560        0.43779085263076
N           -5.46213817452966       -1.36234784371749        0.06884590419905
C           -1.91670432556266       -0.53159650069248       -0.32067551818697
C            1.51557772848534       -0.95275001803759       -1.52969671147438
C            2.84859336117925       -0.89503483586986       -1.33445061123764
N            3.84144102039085       -1.40227847021497       -2.14488103321937
C            5.07630766114312       -1.09216367712506       -1.62835621606456
C            6.30926920537242       -1.38828128875998       -2.11401486340774
C            7.42746746578398       -0.92842221647688       -1.37285625078429
C            7.21642828213048       -0.16590321224142       -0.14659903420172
C            5.98275760232438        0.12174178737631        0.32955984791805
C            4.85057829468127       -0.34465143269605       -0.40173619431117
C            3.49222177133901       -0.24091553502491       -0.21730230012734
C            8.53763972257144        0.16433040544469        0.36664264225501
C            8.94791238136091        0.86153881727360        1.48150155539423
C           10.31300555056851        1.01247274792358        1.70826405766950
C           11.24195547346894        0.47338006050255        0.83274087217554
C           10.84081176813213       -0.23217631342370       -0.29412215378617
C            9.48531542126293       -0.38955505747375       -0.53148135250875
C            8.77599517915098       -1.05507649926525       -1.59125897775094
H            2.50542219218845        0.61597683518294        2.96773309689760
H            4.10621012411556        0.98401847782064        2.34636746179769
H            3.56151590521557       -0.69322693740421        2.43032200373244
H            3.50673462575198        2.39981727379374        0.45993344287995
H            1.87630207982555        2.44115597688914        1.14285315999609
H            2.12172976503188        2.03743249303462       -0.56250350506057
H            1.39166550605193       -1.24465831731119        1.24074800686714
H            0.61117380990961        0.31258941369986        1.52286345214548
H            0.30486192484847        0.66512914007840       -0.86760482729646
H            0.34550517511817       -3.02753883331216       -0.34557038740990
H           -1.70313642723863       -4.36575398856939       -0.07151229824837
H           -3.90984885922261       -3.23680597782543        0.04350871489821
H           -7.80665932843918        2.78717013604403       -0.06349574574878
H           -7.94658281074307        5.25359497026780       -0.26538567740042
H           -5.88987851208764        6.57624635833329       -0.57607906583186
H           -3.70076960446692        5.44876424930907       -0.68548048005723
H           -3.57436316073056        2.98141273015073       -0.48288603727746
H           -9.12314323702765        0.20642113640542        0.25103727540630
H          -11.19333019111723       -1.12038530233430        0.56316956841964
H          -11.05526779508759       -3.57065776651897        0.79337448176292
H           -8.86444388939621       -4.69758469479854        0.71334621838883
H           -6.80139880058492       -3.35949993529369        0.40062990643092
H           -2.00091071700358        0.54228666710411       -0.38966906286970
H            1.08942977373452       -1.41611188642710       -2.40637210653093
H            3.68359445848625       -1.89615499284893       -3.00477118329653
H            6.44761970823799       -1.94573314758583       -3.02834085615186
H            5.85377146122639        0.69260525218164        1.23491674163526
H            8.23083087276133        1.28516954353169        2.17029989837347
H           10.65225903519655        1.55671120202411        2.57778317992216
H           12.29634635418734        0.60447143398174        1.03098612330684
H           11.57290283580169       -0.64919166563881       -0.97081988039475
H            9.24438462746144       -1.56416357620752       -2.41440113568222

          :  Hamiltonian                  GFN2-xTB          :
         :: gradient norm              0.000027167652 Eh/a0 ::
         :: HOMO-LUMO gap              0.969537534172 eV    ::
         :: SCC energy              -120.095759905581 Eh    ::
         :: -> dispersion             -0.100772897769 Eh    ::
         :: repulsion energy           2.126476665799 Eh    ::

    * Orbital Energies and Occupations

         #    Occupation            Energy/Eh            Energy/eV
      -------------------------------------------------------------
         1        2.0000           -0.6817402             -18.5511
       ...           ...                  ...                  ...
        98        2.0000           -0.4109078             -11.1814
        99        2.0000           -0.4088341             -11.1249
       100        2.0000           -0.4070596             -11.0767
       101        2.0000           -0.4059795             -11.0473
       102        2.0000           -0.4058581             -11.0440
       103        2.0000           -0.4032728             -10.9736
       104        2.0000           -0.4013118             -10.9203
       105        2.0000           -0.4004767             -10.8975
       106        2.0000           -0.3793908             -10.3237
       107        2.0000           -0.3692319             -10.0473
       108        2.0000           -0.3688949             -10.0381
       109        2.0000           -0.3668822              -9.9834
       110        2.0000           -0.3313383              -9.0162 (HOMO)
       111                         -0.2957084              -8.0466 (LUMO)
       112                         -0.2847622              -7.7488
       113                         -0.2846068              -7.7445
       114                         -0.2432058              -6.6180
       115                         -0.2285919              -6.2203
       116                         -0.2285352              -6.2188
       117                         -0.2279411              -6.2026
       118                         -0.2268278              -6.1723
       119                         -0.2073299              -5.6417
       120                         -0.1956411              -5.3237
       121                         -0.1953541              -5.3159
       ...                                ...                  ...
       216                          0.7714851              20.9932
      -------------------------------------------------------------
                  HL-Gap            0.0356299 Eh            0.9695 eV

     #   Z          covCN         q      C6AA      α(0)
     1   6 C        3.761    -0.107    22.598     6.777
     2   6 C        3.902     0.029    20.034     6.362
     3   6 C        3.762    -0.104    22.541     6.768
     4   6 C        3.820    -0.062    21.682     6.627
     5   6 C        3.864    -0.017    20.835     6.491
     6   6 C        2.975     0.013    27.722     8.637
     7   6 C        2.925    -0.030    28.761     8.795
     8   6 C        2.917    -0.029    28.736     8.791
     9   6 C        2.924    -0.027    28.685     8.783
    10   6 C        2.983    -0.001    28.057     8.689
    11   6 C        2.982     0.202    23.708     7.987
    12   7 N        1.844    -0.296    28.517     7.914
    13   6 C        2.982     0.202    23.714     7.988
    14   6 C        2.984    -0.000    28.024     8.684
    15   6 C        2.924    -0.023    28.589     8.768
    16   6 C        2.918    -0.027    28.686     8.783
    17   6 C        2.920    -0.024    28.594     8.769
    18   6 C        2.918    -0.028    28.694     8.784
    19   6 C        2.924    -0.024    28.596     8.769
    20   7 N        1.844    -0.295    28.505     7.913
    21   6 C        2.982     0.202    23.710     7.987
    22   6 C        2.984    -0.000    28.025     8.684
    23   6 C        2.924    -0.023    28.590     8.769
    24   6 C        2.918    -0.027    28.688     8.783
    25   6 C        2.920    -0.024    28.592     8.769
    26   6 C        2.918    -0.027    28.688     8.783
    27   6 C        2.924    -0.023    28.591     8.769
    28   7 N        1.844    -0.295    28.499     7.912
    29   6 C        2.929    -0.034    28.844     8.808
    30   6 C        2.901    -0.070    29.739     8.942
    31   6 C        3.034     0.056    26.718     8.478
    32   7 N        2.751    -0.143    24.087     7.289
    33   6 C        3.049     0.054    26.748     8.482
    34   6 C        2.900    -0.073    29.808     8.952
    35   6 C        3.069    -0.000    27.965     8.671
    36   6 C        3.064     0.000    27.961     8.671
    37   6 C        2.901    -0.033    28.814     8.801
    38   6 C        3.068    -0.006    28.104     8.693
    39   6 C        3.056    -0.011    28.225     8.713
    40   6 C        3.055    -0.009    28.183     8.706
    41   6 C        2.912    -0.032    28.802     8.800
    42   6 C        2.921    -0.038    28.938     8.822
    43   6 C        2.920    -0.033    28.820     8.804
    44   6 C        2.912    -0.037    28.930     8.820
    45   6 C        3.081     0.004    27.853     8.652
    46   6 C        2.986    -0.055    29.363     8.889
    47   1 H        0.925     0.038     2.480     2.462
    48   1 H        0.925     0.043     2.407     2.426
    49   1 H        0.925     0.038     2.479     2.462
    50   1 H        0.925     0.041     2.438     2.442
    51   1 H        0.925     0.042     2.428     2.437
    52   1 H        0.925     0.037     2.484     2.465
    53   1 H        0.924     0.039     2.462     2.454
    54   1 H        0.924     0.036     2.498     2.472
    55   1 H        0.923     0.048     2.344     2.394
    56   1 H        0.926     0.037     2.486     2.465
    57   1 H        0.926     0.036     2.498     2.472
    58   1 H        0.926     0.055     2.262     2.352
    59   1 H        0.926     0.055     2.257     2.349
    60   1 H        0.926     0.037     2.493     2.469
    61   1 H        0.926     0.036     2.498     2.471
    62   1 H        0.926     0.036     2.501     2.473
    63   1 H        0.926     0.054     2.271     2.356
    64   1 H        0.926     0.055     2.260     2.351
    65   1 H        0.926     0.037     2.495     2.470
    66   1 H        0.926     0.036     2.497     2.471
    67   1 H        0.926     0.037     2.495     2.470
    68   1 H        0.926     0.055     2.258     2.350
    69   1 H        0.926     0.053     2.281     2.362
    70   1 H        0.926     0.026     2.651     2.546
    71   1 H        0.860     0.154     1.374     1.836
    72   1 H        0.926     0.021     2.725     2.581
    73   1 H        0.926     0.035     2.511     2.478
    74   1 H        0.926     0.022     2.705     2.572
    75   1 H        0.926     0.023     2.693     2.566
    76   1 H        0.926     0.023     2.683     2.561
    77   1 H        0.926     0.024     2.673     2.557
    78   1 H        0.926     0.021     2.717     2.578

molecular dipole:
                 x           y           z       tot (Debye)
 q only:       -1.178       0.080      -0.032
   full:       -1.278      -0.019      -0.220       3.296

 projected vibrational frequencies (cm⁻¹)
eigval :       -0.00    -0.00    -0.00     0.00     0.00     0.00
eigval :        4.77     8.65     8.98    16.51    22.63    28.59
eigval :       42.83    48.34    52.79    57.85    67.73    88.13
eigval :       90.17    93.53   100.89   113.18   127.30   148.11
eigval :      180.15   181.15   181.96   183.38   199.66   207.79
eigval :      223.05   223.95   239.02   247.77   253.04   257.85
eigval :      277.50   283.43   300.57   307.07   327.64   347.97
eigval :      356.65   364.05   364.85   384.10   387.71   394.30
eigval :      400.44   401.71   409.70   420.27   440.41   446.28
eigval :      454.55   463.46   471.59   503.02   526.61   528.10
eigval :      539.52   554.97   578.91   582.87   587.23   587.69
eigval :      594.78   613.56   617.29   622.65   626.40   628.23
eigval :      650.86   660.73   666.27   669.24   674.05   677.25
eigval :      683.34   697.31   704.09   706.60   751.40   753.92
eigval :      755.25   768.15   775.60   785.63   793.44   797.97
eigval :      807.49   816.95   820.12   842.79   847.39   857.27
eigval :      869.13   874.79   875.56   877.36   889.69   900.09
eigval :      908.76   909.57   911.27   917.47   918.94   929.24
eigval :      930.49   932.27   933.58   933.75   933.85   959.79
eigval :      961.60   968.53   978.14   985.44   990.77   993.56
eigval :     1013.21  1024.27  1049.22  1072.06  1074.98  1076.12
eigval :     1086.88  1093.61  1107.44  1111.35  1113.36  1114.35
eigval :     1123.86  1127.08  1139.92  1150.98  1163.33  1166.51
eigval :     1177.90  1180.04  1181.22  1182.81  1188.05  1189.14
eigval :     1199.94  1204.16  1206.21  1206.98  1209.45  1218.46
eigval :     1222.70  1233.70  1245.00  1257.25  1266.40  1268.89
eigval :     1270.81  1274.69  1283.59  1294.36  1322.96  1328.14
eigval :     1329.28  1335.45  1339.61  1344.45  1347.28  1368.24
eigval :     1371.94  1374.22  1376.62  1393.98  1401.51  1418.15
eigval :     1421.18  1433.17  1434.31  1440.25  1459.74  1468.09
eigval :     1468.44  1478.30  1479.46  1491.77  1492.76  1506.73
eigval :     1509.11  1515.89  1517.81  1531.32  1563.43  1582.21
eigval :     1583.11  1585.05  1586.72  1595.03  1595.49  1596.35
eigval :     1596.60  1605.31  1633.43  1657.56  2876.36  2966.30
eigval :     2979.09  3025.00  3029.36  3034.13  3038.37  3045.63
eigval :     3057.58  3065.04  3068.05  3070.89  3074.05  3074.18
eigval :     3076.14  3079.70  3080.26  3080.51  3083.38  3084.99
eigval :     3085.70  3089.62  3090.11  3096.86  3102.62  3107.52
eigval :     3107.89  3108.23  3109.66  3112.51  3129.29  3506.83

   temp. (K)  partition function   enthalpy   heat capacity  entropy
                                   cal/mol     cal/K/mol   cal/K/mol   J/K/mol
 298.15  VIB  0.200E+19            22100.509    138.490    139.285
         ROT  0.108E+09              888.752      2.981     39.748
         INT  0.217E+27            22989.262    141.471    179.033
         TR   0.140E+29             1481.254      4.968     45.002
         TOT                       24470.5156   146.4393   224.0356   937.3649

       T/K    H(0)-H(T)+PV         H(T)/Eh          T*S/Eh         G(T)/Eh
   ------------------------------------------------------------------------
    298.15    0.389962E-01    0.649156E+00    0.106447E+00    0.542709E+00
   ------------------------------------------------------------------------

         :::::::::::::::::::::::::::::::::::::::::::::::::::::
         ::                  THERMODYNAMIC                  ::
         :::::::::::::::::::::::::::::::::::::::::::::::::::::
         :: total free energy        -117.426573937200 Eh   ::
         ::.................................................::
         :: total energy             -117.969283239767 Eh   ::
         :: zero point energy           0.610159587383 Eh   ::
         :: G(RRHO) w/o ZPVE           -0.067450284816 Eh   ::
         :: G(RRHO) contrib.            0.542709302567 Eh   ::
         :::::::::::::::::::::::::::::::::::::::::::::::::::::

           -------------------------------------------------
          | TOTAL ENERGY             -117.969283239767 Eh   |
          | TOTAL ENTHALPY           -117.320127403508 Eh   |
          | TOTAL FREE ENERGY        -117.426573937200 Eh   |
          | GRADIENT NORM               0.000026751823 Eh/α |
          | HOMO-LUMO GAP               0.969538919226 eV   |
           -------------------------------------------------

 * finished run on 2025/07/18 at 23:25:56.369
