   * xtb version 6.7.1 (edcfbbe) compiled by 'albert@albert-system' on 2024-07-22

   ID    Z sym.   atoms
    1    6 C      1-11, 13-19, 21-27, 29-31, 33-46
    2    7 N      12, 20, 28, 32
    3    1 H      47-78

          program call               : xtb data2507/gas/DMIC-TRZ/DMIC-TRZ_gas_S0_finalOpt.xtbopt.xyz --gfn 2 --spinpol --tblite --uhf 2 --ohess vtight --parallel 40 --molden --ceasefiles --namespace data2507/gas/DMIC-TRZ/DMIC-TRZ_gas_T1_preOpt
 * total energy  :  -117.9389138 Eh     change        0.2347656E-07 Eh
 * total energy  :  -117.9442160 Eh     change       -0.5302288E-02 Eh
 * total energy  :  -117.9458041 Eh     change       -0.1588041E-02 Eh
 * total energy  :  -117.9458727 Eh     change       -0.6860958E-04 Eh
 * total energy  :  -117.9459085 Eh     change       -0.3584905E-04 Eh
 * total energy  :  -117.9459237 Eh     change       -0.1513724E-04 Eh
 * total energy  :  -117.9459351 Eh     change       -0.1144301E-04 Eh
 * total energy  :  -117.9459397 Eh     change       -0.4609286E-05 Eh
 * total energy  :  -117.9459438 Eh     change       -0.4015908E-05 Eh
 * total energy  :  -117.9459453 Eh     change       -0.1509950E-05 Eh
 * total energy  :  -117.9459539 Eh     change       -0.1718989E-05 Eh
 * total energy  :  -117.9459553 Eh     change       -0.1384736E-05 Eh
 * total energy  :  -117.9459562 Eh     change       -0.9266857E-06 Eh
 * total energy  :  -117.9459568 Eh     change       -0.6203886E-06 Eh
 * total energy  :  -117.9459573 Eh     change       -0.5172007E-06 Eh
 * total energy  :  -117.9459577 Eh     change       -0.3897161E-06 Eh
 * total energy  :  -117.9459581 Eh     change       -0.3540967E-06 Eh
 * total energy  :  -117.9459584 Eh     change       -0.2827210E-06 Eh
 * total energy  :  -117.9459584 Eh     change       -0.8877562E-07 Eh
   *** GEOMETRY OPTIMIZATION CONVERGED AFTER 22 ITERATIONS ***

 final structure:
================
78
 xtb: 6.7.1 (edcfbbe)
C            0.82378808337596        2.54928489750333        2.03279484782734
C            1.68688961379176        3.35988267181580        1.05455828083741
C            2.97845293867478        3.77681597506195        1.77902052617277
C            0.97844836226462        4.66071767513704        0.61463481716819
C           -0.01741433823609        4.56836096862574       -0.56028958050796
C           -1.34453121015286        3.96210585704033       -0.14213227629410
C           -2.34246831200092        4.77296637304650        0.38749609016121
C           -3.55855515754425        4.23803405847112        0.78171588757738
C           -3.79627636913493        2.88235943002971        0.66297666102867
C           -2.80129743590996        2.05785873621233        0.14529363222268
C           -2.99424494847992        0.61125909053418        0.05100330790790
N           -1.90645839491434       -0.13666103110261       -0.10744333190011
C           -2.10414501458352       -1.45011725304005       -0.15899894260800
C           -0.92908033546953       -2.31304272143471       -0.27386158652389
C           -1.08236544531505       -3.67843363214869       -0.50691291820733
C            0.02929058044997       -4.49340434410664       -0.59637607513341
C            1.29838465534294       -3.95585096657837       -0.44535063032018
C            1.45586501001140       -2.59898461547761       -0.21024988708157
C            0.34939397852774       -1.77604823990625       -0.13034267275707
N           -3.30426434452932       -2.02160142090449       -0.10009423924441
C           -4.33685856450222       -1.19723999742641        0.04855374684204
C           -5.67727463182126       -1.78004821360100        0.11675654421222
C           -6.79693245993614       -0.95327014495316        0.18358373738150
C           -8.06115319307316       -1.50595529161842        0.24842036222408
C           -8.21894113629331       -2.88325538620138        0.24786363661982
C           -7.10795247902914       -3.70980810744337        0.18166293286738
C           -5.84090055818940       -3.16376056476313        0.11591009855628
N           -4.22740364792317        0.12569734235035        0.14558940859421
C           -1.58896294414533        2.60409926286468       -0.26497744262154
C            0.57801492420964        3.81781324404863       -1.70368638667370
C            1.50176522070258        2.83871476916454       -1.43139862880977
N            2.04614123039160        1.95574948788546       -2.34250420889527
C            2.85672459403128        1.07450188887962       -1.69280704952478
C            3.58183137856061        0.01582303360871       -2.22508429656267
C            4.32870670444150       -0.73726272147747       -1.33125839705471
C            4.33228634285139       -0.42903400701580        0.07072255172174
C            3.61203283383931        0.62303285830964        0.58666861429750
C            2.86024529042828        1.40847792590410       -0.30252287724587
C            2.01950857253153        2.53604489085329       -0.15240307621834
C            5.17518697878249       -1.41225217627319        0.71245680885089
C            5.53347790011665       -1.60763516810080        2.03155701449262
C            6.37415384818564       -2.66517987714218        2.34836746282636
C            6.85677797438474       -3.52622939853366        1.36093057254519
C            6.51314201619493       -3.35355398107254        0.03816192580770
C            5.66602382148248       -2.29290869259449       -0.30692119131743
C            5.15290188680191       -1.88093808199527       -1.54737487368829
H            0.62555302403013        3.13321985487678        2.92978774508230
H            1.34209799057520        1.63804497351585        2.32118599966973
H           -0.12479038425340        2.27227707081576        1.58385836606479
H            3.46902222205238        2.91924852514855        2.22754497975675
H            2.74809106606200        4.48958752341570        2.56854922689585
H            3.67469887054161        4.24093877546706        1.08360040518213
H            0.46451271679148        5.08987615528098        1.47720993079032
H            1.75413320957877        5.36615072849470        0.30541021987140
H           -0.22901919801984        5.59725923218425       -0.87912279741945
H           -2.16770978076969        5.83506268574957        0.49022502510324
H           -4.32229491526764        4.88642346102931        1.18586062440964
H           -4.73287197279608        2.44622897942715        0.97237744244542
H           -2.07824392121043       -4.07855794502351       -0.61672701039307
H           -0.09116969775203       -5.55119552419498       -0.78024500314305
H            2.16813821245571       -4.59361646225824       -0.50792246035797
H            2.44381846401101       -2.18461897277588       -0.08643772966893
H            0.45787591013125       -0.71821815654780        0.05298144313364
H           -6.65350602446405        0.11592211254057        0.18044646907980
H           -8.92855729879489       -0.86405701045384        0.29945561639741
H           -9.20883705908881       -3.31296826890872        0.29918323154002
H           -7.23358382001390       -4.78274870869471        0.18208331911780
H           -4.96420499923936       -3.79026668350080        0.06667343287082
H           -0.84503848371874        1.94312178712293       -0.68122954386519
H            0.19340384261104        3.97779018752594       -2.69796418045676
H            1.83081509449367        1.93688465733085       -3.32445007740513
H            3.55758664649430       -0.21092718892070       -3.28093053523194
H            3.61829239786045        0.82609070053282        1.64578826608690
H            5.16784813599109       -0.95065789167463        2.80760916951091
H            6.66256226939514       -2.82823622429725        3.37674947076699
H            7.50972232463972       -4.33888160442866        1.64534697094926
H            6.88700785948258       -4.02064134234993       -0.72532346692571
H            5.33963636961604       -2.34425299668908       -2.49892756529243

 projected vibrational frequencies (cm⁻¹)
eigval :       -0.00     0.00     0.00     0.00     0.00     0.00
eigval :        8.35    15.80    17.30    24.95    27.97    40.07
eigval :       44.90    47.62    54.18    64.64    67.15    90.89
eigval :       92.78    99.29   108.09   127.31   139.17   153.03
eigval :      177.00   181.59   184.86   194.30   199.79   218.02
eigval :      223.07   226.72   236.12   241.48   250.54   271.24
eigval :      275.02   304.09   308.06   320.61   332.49   356.55
eigval :      365.09   366.00   367.56   371.88   388.50   395.68
eigval :      402.41   414.55   417.57   424.33   438.44   443.47
eigval :      461.22   466.01   473.85   505.99   514.22   528.34
eigval :      531.13   548.23   559.83   572.11   586.90   587.28
eigval :      588.13   612.31   615.66   619.08   627.30   638.10
eigval :      647.13   653.13   658.44   666.09   671.75   675.83
eigval :      683.23   685.67   691.51   705.73   717.37   738.41
eigval :      751.65   764.24   765.75   776.05   784.82   795.41
eigval :      801.68   806.76   816.95   837.25   847.87   858.74
eigval :      861.74   862.02   877.61   879.08   898.84   900.24
eigval :      910.23   911.22   913.29   914.25   919.21   922.60
eigval :      929.98   930.80   931.81   933.80   936.23   956.08
eigval :      961.66   968.53   977.98   983.91   990.43   992.80
eigval :     1008.17  1023.18  1049.31  1064.55  1075.43  1076.59
eigval :     1083.69  1095.32  1108.33  1110.49  1111.86  1119.60
eigval :     1124.43  1126.80  1144.73  1146.85  1161.17  1167.48
eigval :     1171.20  1178.44  1179.05  1180.93  1185.93  1188.01
eigval :     1199.35  1204.13  1205.51  1206.65  1209.48  1215.42
eigval :     1224.92  1237.87  1241.67  1257.29  1268.61  1270.54
eigval :     1273.34  1282.66  1294.34  1304.19  1311.51  1327.98
eigval :     1328.96  1330.98  1336.27  1344.21  1357.05  1364.37
eigval :     1370.15  1371.87  1374.46  1386.90  1399.33  1410.90
eigval :     1419.12  1432.90  1434.53  1438.35  1463.17  1466.98
eigval :     1468.22  1468.65  1473.30  1479.23  1491.80  1492.71
eigval :     1496.42  1501.48  1506.86  1514.02  1515.13  1518.17
eigval :     1539.09  1554.08  1573.45  1580.86  1583.82  1585.41
eigval :     1587.64  1592.54  1594.49  1595.39  2895.97  2960.69
eigval :     2978.41  3018.75  3024.96  3028.95  3040.38  3065.09
eigval :     3067.84  3067.91  3069.39  3071.14  3073.69  3074.73
eigval :     3075.19  3078.42  3080.08  3082.20  3085.81  3087.94
eigval :     3089.71  3093.10  3095.73  3101.23  3104.84  3106.71
eigval :     3108.01  3108.27  3109.15  3116.27  3132.74  3485.80

   temp. (K)  partition function   enthalpy   heat capacity  entropy
                                   cal/mol     cal/K/mol   cal/K/mol   J/K/mol
 298.15  VIB  0.769E+17            21951.996    139.307    135.839
         ROT  0.678E+08              888.752      2.981     38.816
         INT  0.522E+25            22840.748    142.288    174.655
         TR   0.140E+29             1481.254      4.968     45.002
         TOT                       24322.0021   147.2565   219.6566   919.0434

       T/K    H(0)-H(T)+PV         H(T)/Eh          T*S/Eh         G(T)/Eh
   ------------------------------------------------------------------------
    298.15    0.387596E-01    0.647854E+00    0.104366E+00    0.543488E+00
   ------------------------------------------------------------------------

         :::::::::::::::::::::::::::::::::::::::::::::::::::::
         ::                  THERMODYNAMIC                  ::
         :::::::::::::::::::::::::::::::::::::::::::::::::::::
         :: total free energy        -117.402470797024 Eh   ::
         ::.................................................::
         :: total energy             -117.945958496269 Eh   ::
         :: zero point energy           0.609094076682 Eh   ::
         :: G(RRHO) w/o ZPVE           -0.065606377437 Eh   ::
         :: G(RRHO) contrib.            0.543487699245 Eh   ::
         :::::::::::::::::::::::::::::::::::::::::::::::::::::

           -------------------------------------------------
          | TOTAL ENERGY             -117.945958496269 Eh   |
          | TOTAL ENTHALPY           -117.298104842043 Eh   |
          | TOTAL FREE ENERGY        -117.402470797024 Eh   |
          | GRADIENT NORM               0.000073028950 Eh/α |
           -------------------------------------------------

 * finished run on 2025/07/18 at 23:29:48.289
