   * xtb version 6.7.1 (edcfbbe) compiled by 'albert@albert-system' on 2024-07-22

   ID    Z sym.   atoms
    1    6 C      1-5, 7-22, 24-37, 39-44, 46, 47, 49, 50
    2    7 N      6, 23, 38
    3    8 O      45, 48
    4    1 H      51-79

          program call               : xtb data2507/toluene/CDDPI/CDDPI_toluene_S0_crest.xyz --gfn 2 --gbsa toluene --ohess vtight --parallel 40 --molden --ceasefiles --namespace data2507/toluene/CDDPI/CDDPI_toluene_S0_finalOpt
      * Solvation model:               GBSA
        Solvent                        toluene
        Solvent mass                       9.2140E+01 g/mol
          :  Hamiltonian                  GFN2-xTB          :
 * total energy  :  -128.2185567 Eh     change       -0.2979306E-08 Eh
 * total energy  :  -128.2186329 Eh     change       -0.7618688E-04 Eh
 * total energy  :  -128.2187116 Eh     change       -0.7868847E-04 Eh
 * total energy  :  -128.2187660 Eh     change       -0.5442699E-04 Eh
 * total energy  :  -128.2188066 Eh     change       -0.4059145E-04 Eh
 * total energy  :  -128.2188612 Eh     change       -0.5458494E-04 Eh
 * total energy  :  -128.2189004 Eh     change       -0.3914115E-04 Eh
 * total energy  :  -128.2189139 Eh     change       -0.1350053E-04 Eh
 * total energy  :  -128.2189257 Eh     change       -0.1181938E-04 Eh
 * total energy  :  -128.2189316 Eh     change       -0.5951938E-05 Eh
 * total energy  :  -128.2189661 Eh     change       -0.2047996E-06 Eh
 * total energy  :  -128.2189666 Eh     change       -0.5550869E-06 Eh
 * total energy  :  -128.2189668 Eh     change       -0.1799116E-06 Eh
 * total energy  :  -128.2189671 Eh     change       -0.3006375E-06 Eh
 * total energy  :  -128.2189674 Eh     change       -0.3133507E-06 Eh
 * total energy  :  -128.2189676 Eh     change       -0.1606639E-06 Eh
 * total energy  :  -128.2189677 Eh     change       -0.1423844E-06 Eh
 * total energy  :  -128.2189679 Eh     change       -0.1199651E-06 Eh
 * total energy  :  -128.2189679 Eh     change       -0.1164844E-07 Eh
   *** GEOMETRY OPTIMIZATION CONVERGED AFTER 30 ITERATIONS ***

 final structure:
================
79
 xtb: 6.7.1 (edcfbbe)
C            0.68981762415016        0.63097507164047        3.23287359625822
C            2.08515726821634        0.69116174114224        3.11313928393517
C            2.71186986552567        0.10025658042789        2.05150103279523
C            1.97002523481666       -0.55194263021586        1.04362759766031
C            2.59322336959727       -1.22731307206717       -0.04157151635259
N            3.98952092606068       -1.18041091191194       -0.19374458192348
C            4.83448308084709       -2.27124114335421       -0.19709483497476
C            4.54099462151393       -3.61090954274029        0.01336596758377
C            5.58925146672810       -4.51069630046759       -0.01417053140464
C            6.90022280616938       -4.09313796674684       -0.23867323092678
C            7.19912434006230       -2.75908901679747       -0.43285600012487
C            6.16242591988675       -1.83434813335662       -0.41032149720005
C            6.10261056050550       -0.40621504933881       -0.55698304421154
C            7.05690483199046        0.57541941843799       -0.79420584217925
C            6.64311915569369        1.88854437288030       -0.89997249156900
C            5.29538579525437        2.22826860899924       -0.79155435125060
C            4.32644887130831        1.27148130439071       -0.55756017471253
C            4.74144258224349       -0.04626468826149       -0.42302499617690
C            1.83720023512843       -1.95188040750937       -0.93225974340743
C            0.44294080581242       -1.94622854985776       -0.84961492653465
C           -0.20191054863108       -1.22761099873015        0.13016585036833
C           -1.65779133755172       -1.11459441198877        0.07238834736982
N           -2.48850386442186       -2.12201952682806        0.03820712692051
C           -3.73230832455213       -1.57387045512463       -0.07546168394672
C           -4.98252323093930       -2.25211360944133       -0.10923880119325
C           -5.05700608777480       -3.64618995721709       -0.00978533907418
C           -6.27549262774965       -4.27818335602571       -0.00791170184327
C           -7.44046777234429       -3.51838406499976       -0.10116615544237
C           -7.37920894856110       -2.14819840239570       -0.20675120049877
C           -6.15254698367520       -1.46575496057119       -0.22395173308736
C           -6.05298962285539       -0.02416215489493       -0.37843189664593
C           -7.18764580166594        0.77373101356758       -0.58809965184232
C           -7.09798260950160        2.13029642627280       -0.79341468290974
C           -5.85327895593936        2.75245376707183       -0.81774958806559
C           -4.71816412124884        2.00954772497005       -0.60470249816173
C           -4.79056774522603        0.63042576864989       -0.35964762418036
C           -3.64512217778590       -0.18495220518459       -0.13323417443909
N           -2.30151341394411        0.10177301878431       -0.02453440412227
C           -1.64012035457812        1.34191824452254        0.07096511939118
C           -1.98765839682781        2.25646882611050        1.06252406216437
C           -1.25684466869792        3.41631261204021        1.21274167278454
C           -0.16509424884325        3.67704113223082        0.39282313056533
C            0.15818943614425        2.77701423083252       -0.62893434062099
C           -0.58178386936471        1.61322763207303       -0.78270771596828
O            1.19646482995867        2.99668966347620       -1.49206795841984
C            1.68592703167548        4.32498903847507       -1.46343060440719
C            1.83203818775627        4.79930333701731       -0.01926760683804
O            0.56929417468657        4.80920125879622        0.62008706044358
C            0.55361210871489       -0.57604352328086        1.14216650921735
C           -0.05613329928574        0.00677999792699        2.27256165217685
H            0.20875383429393        1.06917713881759        4.09448878951158
H            2.66527743018772        1.18395506113887        3.87917121357095
H            3.78944126419471        0.11235515400348        1.98631795304793
H            3.52806623312030       -3.93745085498640        0.19633763468704
H            5.38897811210286       -5.56050523857702        0.14362353623199
H            7.69209042000045       -4.82766971989082       -0.25492604253572
H            8.21673812476943       -2.43707283195539       -0.59666967951577
H            8.09931052122442        0.31234524716153       -0.89477311101022
H            7.37006011226357        2.66696270236099       -1.08003354919472
H            5.00472859722494        3.26361396020201       -0.89471519459531
H            3.28139352433194        1.53345381367085       -0.48967872513091
H            2.32441506587159       -2.49371530319217       -1.72933466118315
H           -0.14014133088564       -2.47578483708328       -1.58793726269768
H           -4.13167834295911       -4.19613690353791        0.07142351955667
H           -6.33532710409497       -5.35385787439244        0.07033954054155
H           -8.40252755931609       -4.01042395792547       -0.09097965297844
H           -8.30660522659752       -1.60201889749851       -0.27366776101548
H           -8.16564872903649        0.32076006951592       -0.60236162214975
H           -7.99475705469710        2.71118478739376       -0.95191636430026
H           -5.77884827657952        3.81313412906209       -1.00713442290006
H           -3.75272213291293        2.48896337112855       -0.64239050078433
H           -2.81934394675301        2.04964916516652        1.71819699675926
H           -1.50005774290698        4.13063698361157        1.98254273907045
H           -0.30995081828810        0.92927922202092       -1.57075603845265
H            2.64643926997446        4.30592357840539       -1.97849567418679
H            0.99080372122413        4.98676368723705       -1.99668162427647
H            2.20694409873716        5.82214241473601        0.02721827526079
H            2.51272754215748        4.12659228796019        0.51924381490629
H           -1.12625406923557       -0.07711567198525        2.38758522938658

          :  Hamiltonian                  GFN2-xTB          :
         :: gradient norm              0.000126166618 Eh/a0 ::
         :: HOMO-LUMO gap              2.301363101966 eV    ::
         :: SCC energy              -130.459296068995 Eh    ::
         :: -> dispersion             -0.121869622313 Eh    ::
         :: -> Gsolv                  -0.048829828943 Eh    ::
         :: repulsion energy           2.240328196179 Eh    ::

    * Orbital Energies and Occupations

         #    Occupation            Energy/Eh            Energy/eV
      -------------------------------------------------------------
         1        2.0000           -0.7422320             -20.1972
       ...           ...                  ...                  ...
       106        2.0000           -0.4182977             -11.3825
       107        2.0000           -0.4159531             -11.3187
       108        2.0000           -0.4128307             -11.2337
       109        2.0000           -0.4102686             -11.1640
       110        2.0000           -0.4059392             -11.0462
       111        2.0000           -0.4042588             -11.0004
       112        2.0000           -0.3939824             -10.7208
       113        2.0000           -0.3906464             -10.6300
       114        2.0000           -0.3831699             -10.4266
       115        2.0000           -0.3813068             -10.3759
       116        2.0000           -0.3797271             -10.3329
       117        2.0000           -0.3693681             -10.0510
       118        2.0000           -0.3622017              -9.8560 (HOMO)
       119                         -0.2776282              -7.5546 (LUMO)
       120                         -0.2568302              -6.9887
       121                         -0.2510441              -6.8313
       122                         -0.2459257              -6.6920
       123                         -0.2432224              -6.6184
       124                         -0.2406135              -6.5474
       125                         -0.2350898              -6.3971
       126                         -0.2229445              -6.0666
       127                         -0.2224266              -6.0525
       128                         -0.2081265              -5.6634
       129                         -0.1948735              -5.3028
       ...                                ...                  ...
       229                          0.7433844              20.2285
      -------------------------------------------------------------
                  HL-Gap            0.0845736 Eh            2.3014 eV

     #   Z          covCN         q      C6AA      α(0)
     1   6 C        2.916    -0.029    28.713     8.787
     2   6 C        2.916    -0.029    28.722     8.788
     3   6 C        2.918    -0.031    28.785     8.798
     4   6 C        2.986     0.003    27.945     8.671
     5   6 C        2.909     0.059    26.679     8.470
     6   7 N        2.803    -0.046    22.123     6.986
     7   6 C        3.077     0.047    26.865     8.498
     8   6 C        2.909    -0.052    29.279     8.873
     9   6 C        2.924    -0.034    28.850     8.808
    10   6 C        2.920    -0.042    29.053     8.839
    11   6 C        2.912    -0.035    28.862     8.809
    12   6 C        3.067    -0.019    28.403     8.739
    13   6 C        3.067    -0.019    28.405     8.739
    14   6 C        2.912    -0.035    28.863     8.810
    15   6 C        2.919    -0.043    29.069     8.841
    16   6 C        2.924    -0.036    28.886     8.814
    17   6 C        2.909    -0.051    29.263     8.870
    18   6 C        3.077     0.048    26.841     8.494
    19   6 C        2.918    -0.043    29.059     8.840
    20   6 C        2.924    -0.030    28.750     8.793
    21   6 C        2.971    -0.008    28.218     8.713
    22   6 C        3.197     0.139    24.485     8.066
    23   7 N        1.891    -0.314    28.994     7.983
    24   6 C        3.210     0.059    26.076     8.313
    25   6 C        2.985    -0.002    28.076     8.692
    26   6 C        2.921    -0.033    28.832     8.805
    27   6 C        2.917    -0.031    28.785     8.798
    28   6 C        2.917    -0.034    28.846     8.807
    29   6 C        2.921    -0.036    28.902     8.816
    30   6 C        2.979    -0.004    28.126     8.699
    31   6 C        2.979    -0.001    28.044     8.687
    32   6 C        2.922    -0.035    28.868     8.811
    33   6 C        2.916    -0.034    28.840     8.806
    34   6 C        2.917    -0.032    28.800     8.800
    35   6 C        2.919    -0.041    29.025     8.835
    36   6 C        2.978    -0.004    28.127     8.700
    37   6 C        3.072     0.020    27.485     8.596
    38   7 N        2.840    -0.048    22.159     6.991
    39   6 C        2.912     0.057    26.727     8.477
    40   6 C        2.920    -0.048    29.196     8.861
    41   6 C        2.919    -0.056    29.383     8.889
    42   6 C        2.884     0.113    25.506     8.280
    43   6 C        2.884     0.116    25.436     8.268
    44   6 C        2.922    -0.070    29.744     8.944
    45   8 O        1.704    -0.283    18.700     5.838
    46   6 C        3.712     0.071    19.517     6.313
    47   6 C        3.713     0.070    19.530     6.315
    48   8 O        1.704    -0.280    18.649     5.830
    49   6 C        2.987     0.007    27.854     8.657
    50   6 C        2.919    -0.034    28.857     8.809
    51   1 H        0.926     0.042     2.427     2.436
    52   1 H        0.926     0.042     2.419     2.432
    53   1 H        0.926     0.042     2.428     2.437
    54   1 H        0.926     0.028     2.614     2.528
    55   1 H        0.926     0.031     2.574     2.509
    56   1 H        0.926     0.029     2.601     2.522
    57   1 H        0.926     0.032     2.564     2.504
    58   1 H        0.926     0.032     2.564     2.504
    59   1 H        0.926     0.030     2.593     2.518
    60   1 H        0.926     0.028     2.614     2.528
    61   1 H        0.926     0.027     2.633     2.537
    62   1 H        0.926     0.049     2.330     2.387
    63   1 H        0.926     0.047     2.363     2.404
    64   1 H        0.926     0.044     2.397     2.421
    65   1 H        0.926     0.033     2.541     2.493
    66   1 H        0.926     0.033     2.546     2.495
    67   1 H        0.926     0.036     2.506     2.475
    68   1 H        0.926     0.038     2.471     2.458
    69   1 H        0.926     0.034     2.532     2.489
    70   1 H        0.926     0.033     2.550     2.497
    71   1 H        0.926     0.030     2.589     2.516
    72   1 H        0.926     0.058     2.222     2.331
    73   1 H        0.926     0.068     2.109     2.271
    74   1 H        0.926     0.055     2.256     2.349
    75   1 H        0.925     0.071     2.072     2.251
    76   1 H        0.923     0.051     2.312     2.378
    77   1 H        0.924     0.071     2.070     2.250
    78   1 H        0.923     0.051     2.309     2.376
    79   1 H        0.926     0.030     2.585     2.514

molecular dipole:
                 x           y           z       tot (Debye)
 q only:        0.565       1.523       0.166
   full:        0.524       1.911       0.069       5.039

 projected vibrational frequencies (cm⁻¹)
eigval :       -0.00    -0.00    -0.00     0.00     0.00     0.00
eigval :       11.85    21.12    21.57    26.53    32.85    43.42
eigval :       46.95    51.64    57.92    80.49    90.15    99.96
eigval :      104.69   107.78   119.22   129.92   140.24   145.94
eigval :      152.87   164.57   178.53   186.49   195.98   210.41
eigval :      224.09   231.00   256.52   263.94   272.87   296.05
eigval :      305.96   310.79   321.89   356.41   365.44   382.29
eigval :      394.00   396.21   399.62   406.26   417.74   422.03
eigval :      430.49   433.54   434.27   439.38   447.51   458.09
eigval :      466.97   471.35   494.32   504.31   513.01   517.73
eigval :      532.70   534.09   537.76   542.92   543.99   562.67
eigval :      579.46   585.48   589.30   595.16   601.00   632.99
eigval :      636.28   649.77   656.74   660.28   672.26   673.58
eigval :      681.62   685.07   689.90   695.01   708.90   717.71
eigval :      732.77   736.65   754.95   765.53   767.27   768.03
eigval :      773.16   778.68   779.55   780.77   783.38   834.65
eigval :      841.12   849.37   865.20   866.78   869.05   869.47
eigval :      870.73   875.66   882.23   897.27   899.76   901.29
eigval :      906.84   912.49   913.66   915.99   920.64   920.99
eigval :      921.18   922.57   924.50   927.25   930.44   933.75
eigval :      946.55   953.50  1010.82  1015.50  1031.29  1043.33
eigval :     1053.72  1067.31  1069.10  1070.80  1071.46  1084.37
eigval :     1087.93  1095.71  1106.29  1118.40  1129.56  1133.81
eigval :     1149.31  1151.40  1166.03  1171.11  1172.94  1178.15
eigval :     1179.13  1179.81  1182.59  1183.32  1191.81  1196.32
eigval :     1202.78  1211.11  1212.84  1228.90  1235.24  1240.60
eigval :     1244.71  1249.12  1254.64  1268.96  1281.61  1284.95
eigval :     1295.56  1296.29  1301.73  1312.75  1319.21  1323.72
eigval :     1334.43  1338.19  1341.78  1352.41  1355.79  1361.87
eigval :     1374.60  1381.17  1385.88  1406.55  1408.97  1410.76
eigval :     1425.04  1427.19  1428.15  1432.74  1440.93  1447.45
eigval :     1449.74  1451.07  1473.57  1485.74  1487.08  1502.39
eigval :     1513.22  1515.38  1548.03  1558.57  1562.18  1566.98
eigval :     1570.69  1571.75  1579.19  1587.70  1593.54  1594.04
eigval :     1597.09  1603.63  1607.50  1612.60  2902.59  2918.30
eigval :     3005.71  3009.39  3069.02  3071.14  3071.65  3073.41
eigval :     3076.70  3078.02  3078.30  3079.94  3083.45  3083.56
eigval :     3083.78  3085.70  3087.25  3091.29  3092.67  3094.38
eigval :     3095.63  3095.89  3097.93  3098.45  3098.90  3107.76
eigval :     3110.04  3112.53  3114.56

   temp. (K)  partition function   enthalpy   heat capacity  entropy
                                   cal/mol     cal/K/mol   cal/K/mol   J/K/mol
 298.15  VIB  0.889E+16            21882.240    142.960    133.487
         ROT  0.758E+08              888.752      2.981     39.037
         INT  0.673E+24            22770.992    145.941    172.524
         TR   0.158E+29             1481.254      4.968     45.248
         TOT                       24252.2463   150.9095   217.7720   911.1581

       T/K    H(0)-H(T)+PV         H(T)/Eh          T*S/Eh         G(T)/Eh
   ------------------------------------------------------------------------
    298.15    0.386484E-01    0.639909E+00    0.103471E+00    0.536439E+00
   ------------------------------------------------------------------------

         :::::::::::::::::::::::::::::::::::::::::::::::::::::
         ::                  THERMODYNAMIC                  ::
         :::::::::::::::::::::::::::::::::::::::::::::::::::::
         :: total free energy        -127.682529064907 Eh   ::
         ::.................................................::
         :: total energy             -128.218967868061 Eh   ::
         :: zero point energy           0.601260893522 Eh   ::
         :: G(RRHO) w/o ZPVE           -0.064822090368 Eh   ::
         :: G(RRHO) contrib.            0.536438803154 Eh   ::
         :::::::::::::::::::::::::::::::::::::::::::::::::::::

           -------------------------------------------------
          | TOTAL ENERGY             -128.218967868061 Eh   |
          | TOTAL ENTHALPY           -127.579058559968 Eh   |
          | TOTAL FREE ENERGY        -127.682529064907 Eh   |
          | GRADIENT NORM               0.000126033461 Eh/α |
          | HOMO-LUMO GAP               2.301364096628 eV   |
           -------------------------------------------------

 * finished run on 2025/09/12 at 18:54:19.860
