   * xtb version 6.7.1 (edcfbbe) compiled by 'albert@albert-system' on 2024-07-22

   ID    Z sym.   atoms
    1    6 C      1-5, 7-22, 24-37, 39-44, 46, 47, 49, 50
    2    7 N      6, 23, 38
    3    8 O      45, 48
    4    1 H      51-79

          program call               : xtb data2507/toluene/CDDPI/CDDPI.xyz --gfn 2 --gbsa toluene --ohess vtight --parallel 40 --molden --ceasefiles --namespace data2507/toluene/CDDPI/CDDPI_toluene_S0_preOpt
      * Solvation model:               GBSA
        Solvent                        toluene
        Solvent mass                       9.2140E+01 g/mol
          :  Hamiltonian                  GFN2-xTB          :
 * total energy  :  -128.1949788 Eh     change       -0.3102656E-08 Eh
 * total energy  :  -128.2105270 Eh     change       -0.1554816E-01 Eh
 * total energy  :  -128.2144037 Eh     change       -0.3876690E-02 Eh
 * total energy  :  -128.2151631 Eh     change       -0.7594695E-03 Eh
 * total energy  :  -128.2156004 Eh     change       -0.4372717E-03 Eh
 * total energy  :  -128.2157781 Eh     change       -0.1777071E-03 Eh
 * total energy  :  -128.2159248 Eh     change       -0.1467385E-03 Eh
 * total energy  :  -128.2160239 Eh     change       -0.9910630E-04 Eh
 * total energy  :  -128.2161056 Eh     change       -0.8168704E-04 Eh
 * total energy  :  -128.2161858 Eh     change       -0.8020703E-04 Eh
 * total energy  :  -128.2183155 Eh     change       -0.7745579E-06 Eh
 * total energy  :  -128.2183162 Eh     change       -0.7211866E-06 Eh
 * total energy  :  -128.2183168 Eh     change       -0.6634009E-06 Eh
 * total energy  :  -128.2183174 Eh     change       -0.6021268E-06 Eh
 * total energy  :  -128.2183180 Eh     change       -0.5880689E-06 Eh
 * total energy  :  -128.2183186 Eh     change       -0.6174919E-06 Eh
 * total energy  :  -128.2183193 Eh     change       -0.7041246E-06 Eh
 * total energy  :  -128.2183200 Eh     change       -0.6466595E-06 Eh
 * total energy  :  -128.2183200 Eh     change       -0.4288722E-08 Eh
   *** GEOMETRY OPTIMIZATION CONVERGED AFTER 122 ITERATIONS ***

 final structure:
================
79
 xtb: 6.7.1 (edcfbbe)
C            1.16459251409246       -3.29748117711096        2.77085416439261
C            2.55856112384217       -3.18488279745844        2.67330195304706
C            3.11633214468903       -2.33887947419837        1.75615126061309
C            2.30669900514374       -1.57028211554848        0.89226098189141
C            2.86299681951459       -0.68111053207510       -0.06670633626540
N            4.25358992227555       -0.48670844121119       -0.13418526646459
C            5.04177418049803       -0.72656720819796       -1.24077726958165
C            4.69333623657520       -1.27997721475034       -2.46458900571579
C            5.69293208115531       -1.44408027390808       -3.40436991901343
C            7.01040175784561       -1.07569506078022       -3.13639256769167
C            7.36459503566953       -0.53720674296709       -1.91511740324082
C            6.37727532886176       -0.36021253005584       -0.95372753251289
C            6.38006273518774        0.14570476939708        0.39113425955304
C            7.36696372161314        0.66763883708322        1.21844115111939
C            7.01380963564249        1.09207896570576        2.48414239382700
C            5.69423706512462        1.01223746079347        2.92663333637003
C            4.69470917698846        0.49713188246152        2.12377332486861
C            5.04825842413130        0.05180010716507        0.85759586320276
C            2.04568297736660       -0.01779160388038       -0.95011567814001
C            0.66029815976325       -0.17353662279461       -0.89176226184385
C            0.07346833970345       -0.98295134004879        0.05594804012944
C           -1.37957747298855       -1.10015199385834        0.10454293603254
N           -2.04362940231579       -2.22715940413286        0.16500917080006
C           -3.36131282076961       -1.88800422953116        0.14555079269524
C           -4.48450786049690       -2.76175955367874        0.15280859270773
C           -4.32499473723702       -4.15191411170047        0.17338524378814
C           -5.42182976271113       -4.97678051074416        0.14110180084058
C           -6.69706525367545       -4.41738235059335        0.08198682052458
C           -6.86592984253689       -3.05224590329367        0.06915162706294
C           -5.77066890504200       -2.17533480654502        0.11408403327936
C           -5.91706429173096       -0.72959913291820        0.14203708773167
C           -7.17933366695989       -0.12014069907063        0.19542254347907
C           -7.32845906467718        1.24481029996033        0.26779607394816
C           -6.20749028779592        2.06838396962021        0.30707435694554
C           -4.95315097812232        1.51234864243158        0.24946753384161
C           -4.77948117896716        0.12434691240060        0.14738918847796
C           -3.50245618328829       -0.50320801049685        0.08680665730659
N           -2.21786399873143       -0.00798723838048        0.04580676520091
C           -1.78112632533837        1.32997173925283       -0.04918644924232
C           -1.01522776135177        1.88361342726190        0.97077111956948
C           -0.53931798190242        3.17353265460669        0.84667671868308
C           -0.82715389785663        3.92922824319401       -0.28342811214705
C           -1.63067943526474        3.38386979006590       -1.29371914418740
C           -2.08730621283834        2.07869127032389       -1.17831242626448
O           -1.98458181489917        4.09608297507648       -2.40657585643278
C           -1.75434885817966        5.48791314604481       -2.28417022367328
C           -0.37710721627626        5.74268605101185       -1.67583084027963
O           -0.30839658896582        5.19188425230605       -0.37357471063739
C            0.89384684338262       -1.71572935567128        0.96074971128691
C            0.35348547297204       -2.58316089790808        1.93313844934251
H            0.73369196129296       -3.96011646444174        3.50680735523737
H            3.18969905908313       -3.77033284004050        3.32537291361903
H            4.19008207378075       -2.25758370711904        1.67936792292873
H            3.67584314019483       -1.57645411459276       -2.67237560824054
H            5.44923136230897       -1.87049748505407       -4.36669784860668
H            7.76327445093333       -1.21989815577352       -3.89748316618647
H            8.38766353583875       -0.26155492828185       -1.70666039686219
H            8.38765956546131        0.74094052627621        0.87365865911140
H            7.76720965360606        1.49922976878957        3.14249527962587
H            5.44765064111787        1.36235168448389        3.91846266058251
H            3.67323274349624        0.43995559417609        2.46908545231117
H            2.47967250967261        0.63743885750045       -1.69090362612163
H            0.04894761447994        0.35117480998719       -1.61006431603680
H           -3.32017459866129       -4.54514524979735        0.20655106616966
H           -5.30170066741927       -6.05008508644976        0.15526737624923
H           -7.56319241215118       -5.06251124031875        0.04563253027044
H           -7.87120652055466       -2.66534437252375        0.01887400508344
H           -8.06876244176179       -0.72903188002057        0.19098430435956
H           -8.31744792510167        1.67725447996245        0.30794397011781
H           -6.32213868682414        3.13934351812734        0.38755154828110
H           -4.08534345859340        2.15032027188883        0.29786008700742
H           -0.78861661808426        1.30012097019335        1.84926730522521
H            0.06756866026287        3.61961101801388        1.61783277136827
H           -2.69116876693765        1.66627043930511       -1.97202129407990
H           -1.82700283556367        5.89952899756647       -3.29111989999458
H           -2.52528198097009        5.93447506630233       -1.64250100247163
H           -0.18224835505203        6.80994201258522       -1.56752332517733
H            0.39312286907974        5.28608238358889       -2.31144196608666
H           -0.71811347397706       -2.69152193702852        1.98732429313305

          :  Hamiltonian                  GFN2-xTB          :
         :: gradient norm              0.000050902670 Eh/a0 ::
         :: HOMO-LUMO gap              2.304333581084 eV    ::
         :: SCC energy              -130.457221355812 Eh    ::
         :: -> dispersion             -0.116232525583 Eh    ::
         :: -> Gsolv                  -0.051082214720 Eh    ::
         :: repulsion energy           2.238901355091 Eh    ::

    * Orbital Energies and Occupations

         #    Occupation            Energy/Eh            Energy/eV
      -------------------------------------------------------------
         1        2.0000           -0.7428087             -20.2129
       ...           ...                  ...                  ...
       106        2.0000           -0.4169391             -11.3455
       107        2.0000           -0.4152301             -11.2990
       108        2.0000           -0.4109272             -11.1819
       109        2.0000           -0.4090501             -11.1308
       110        2.0000           -0.4050781             -11.0227
       111        2.0000           -0.4033334             -10.9753
       112        2.0000           -0.3949259             -10.7465
       113        2.0000           -0.3892029             -10.5908
       114        2.0000           -0.3838293             -10.4445
       115        2.0000           -0.3811581             -10.3718
       116        2.0000           -0.3787200             -10.3055
       117        2.0000           -0.3690875             -10.0434
       118        2.0000           -0.3612082              -9.8290 (HOMO)
       119                         -0.2765255              -7.5246 (LUMO)
       120                         -0.2546678              -6.9299
       121                         -0.2511403              -6.8339
       122                         -0.2449242              -6.6647
       123                         -0.2441081              -6.6425
       124                         -0.2380517              -6.4777
       125                         -0.2362061              -6.4275
       126                         -0.2239274              -6.0934
       127                         -0.2219682              -6.0401
       128                         -0.2056465              -5.5959
       129                         -0.1950246              -5.3069
       ...                                ...                  ...
       229                          0.7441766              20.2501
      -------------------------------------------------------------
                  HL-Gap            0.0846827 Eh            2.3043 eV

     #   Z          covCN         q      C6AA      α(0)
     1   6 C        2.916    -0.027    28.668     8.780
     2   6 C        2.916    -0.027    28.685     8.783
     3   6 C        2.918    -0.031    28.785     8.798
     4   6 C        2.986     0.003    27.942     8.671
     5   6 C        2.909     0.058    26.700     8.473
     6   7 N        2.803    -0.046    22.126     6.986
     7   6 C        3.078     0.047    26.865     8.498
     8   6 C        2.909    -0.052    29.281     8.873
     9   6 C        2.924    -0.035    28.862     8.810
    10   6 C        2.920    -0.043    29.061     8.840
    11   6 C        2.912    -0.035    28.866     8.810
    12   6 C        3.067    -0.019    28.404     8.739
    13   6 C        3.067    -0.019    28.411     8.740
    14   6 C        2.912    -0.035    28.866     8.810
    15   6 C        2.919    -0.043    29.059     8.840
    16   6 C        2.924    -0.035    28.860     8.810
    17   6 C        2.909    -0.050    29.251     8.868
    18   6 C        3.077     0.048    26.841     8.494
    19   6 C        2.918    -0.045    29.109     8.847
    20   6 C        2.922    -0.037    28.929     8.820
    21   6 C        2.969    -0.009    28.244     8.717
    22   6 C        3.188     0.137    24.575     8.087
    23   7 N        1.893    -0.312    28.939     7.975
    24   6 C        3.206     0.059    26.104     8.321
    25   6 C        2.985    -0.002    28.076     8.692
    26   6 C        2.921    -0.033    28.829     8.805
    27   6 C        2.917    -0.031    28.783     8.798
    28   6 C        2.917    -0.034    28.843     8.807
    29   6 C        2.921    -0.036    28.900     8.816
    30   6 C        2.979    -0.004    28.124     8.699
    31   6 C        2.979    -0.001    28.038     8.686
    32   6 C        2.922    -0.035    28.868     8.811
    33   6 C        2.916    -0.034    28.840     8.806
    34   6 C        2.917    -0.032    28.799     8.800
    35   6 C        2.919    -0.041    29.018     8.834
    36   6 C        2.978    -0.004    28.127     8.700
    37   6 C        3.071     0.021    27.462     8.592
    38   7 N        2.842    -0.048    22.164     6.992
    39   6 C        2.912     0.057    26.721     8.476
    40   6 C        2.920    -0.051    29.258     8.870
    41   6 C        2.919    -0.055    29.355     8.885
    42   6 C        2.882     0.114    25.477     8.275
    43   6 C        2.883     0.117    25.420     8.266
    44   6 C        2.921    -0.066    29.655     8.930
    45   8 O        1.704    -0.281    18.664     5.833
    46   6 C        3.713     0.069    19.544     6.317
    47   6 C        3.712     0.069    19.551     6.318
    48   8 O        1.704    -0.279    18.639     5.829
    49   6 C        2.986     0.013    27.716     8.636
    50   6 C        2.918    -0.033    28.819     8.803
    51   1 H        0.926     0.041     2.438     2.442
    52   1 H        0.926     0.041     2.438     2.442
    53   1 H        0.926     0.040     2.449     2.447
    54   1 H        0.926     0.027     2.635     2.538
    55   1 H        0.926     0.030     2.585     2.514
    56   1 H        0.926     0.029     2.607     2.525
    57   1 H        0.926     0.031     2.568     2.506
    58   1 H        0.926     0.031     2.570     2.507
    59   1 H        0.926     0.029     2.603     2.523
    60   1 H        0.926     0.031     2.577     2.510
    61   1 H        0.926     0.027     2.637     2.539
    62   1 H        0.926     0.044     2.397     2.421
    63   1 H        0.926     0.033     2.542     2.493
    64   1 H        0.926     0.044     2.391     2.418
    65   1 H        0.926     0.034     2.537     2.491
    66   1 H        0.926     0.033     2.545     2.495
    67   1 H        0.926     0.036     2.507     2.476
    68   1 H        0.926     0.039     2.467     2.456
    69   1 H        0.926     0.034     2.531     2.488
    70   1 H        0.926     0.031     2.565     2.505
    71   1 H        0.926     0.028     2.620     2.531
    72   1 H        0.926     0.052     2.293     2.368
    73   1 H        0.926     0.067     2.123     2.279
    74   1 H        0.926     0.061     2.187     2.312
    75   1 H        0.924     0.072     2.068     2.249
    76   1 H        0.923     0.052     2.300     2.372
    77   1 H        0.924     0.072     2.066     2.248
    78   1 H        0.923     0.051     2.305     2.374
    79   1 H        0.926     0.049     2.332     2.388

molecular dipole:
                 x           y           z       tot (Debye)
 q only:       -0.075       1.407      -0.057
   full:       -0.269       1.908      -0.213       4.927

 projected vibrational frequencies (cm⁻¹)
eigval :       -0.00    -0.00    -0.00    -0.00     0.00     0.00
eigval :        7.16    10.85    16.12    20.73    29.57    32.80
eigval :       37.69    45.03    50.88    72.80    84.64    97.88
eigval :      103.97   110.64   120.09   128.28   136.68   141.28
eigval :      145.00   150.16   172.98   188.15   196.23   216.92
eigval :      224.00   232.21   257.35   261.85   269.18   292.32
eigval :      299.98   313.48   319.98   359.01   365.93   382.58
eigval :      389.58   395.39   400.81   403.39   417.06   420.89
eigval :      426.26   432.95   437.16   438.36   441.41   453.38
eigval :      466.39   481.49   487.43   508.63   511.09   517.48
eigval :      530.93   535.19   535.52   540.02   541.26   563.02
eigval :      570.68   585.00   587.94   596.01   607.25   633.78
eigval :      634.68   649.70   657.26   658.27   672.15   674.97
eigval :      680.56   686.70   691.44   695.36   708.67   714.18
eigval :      733.56   734.04   754.94   763.99   766.21   768.81
eigval :      770.54   777.48   778.22   779.58   781.22   830.78
eigval :      839.03   851.60   861.90   867.71   869.01   872.54
eigval :      873.66   876.58   879.97   896.98   898.63   900.58
eigval :      904.17   907.44   910.79   913.59   918.17   918.83
eigval :      921.86   922.04   922.50   926.61   929.12   932.22
eigval :      944.96   948.24  1010.87  1016.28  1030.45  1044.06
eigval :     1056.21  1067.39  1067.97  1070.54  1071.15  1085.30
eigval :     1089.86  1094.88  1106.66  1118.18  1132.47  1136.91
eigval :     1148.84  1153.38  1169.98  1172.91  1173.05  1179.12
eigval :     1179.56  1180.75  1183.08  1183.77  1191.26  1201.51
eigval :     1203.60  1210.18  1215.57  1227.77  1235.07  1242.94
eigval :     1243.82  1252.03  1254.57  1268.54  1281.99  1289.04
eigval :     1294.37  1296.90  1300.26  1312.20  1317.87  1324.23
eigval :     1330.65  1338.20  1341.20  1349.62  1355.88  1361.03
eigval :     1375.72  1379.91  1383.59  1406.31  1409.28  1414.37
eigval :     1425.69  1427.23  1427.55  1433.85  1438.49  1446.46
eigval :     1448.81  1451.33  1472.97  1484.99  1486.51  1503.30
eigval :     1510.33  1512.93  1538.96  1557.88  1560.51  1565.25
eigval :     1569.13  1571.34  1582.00  1587.51  1591.41  1593.53
eigval :     1596.98  1603.33  1606.23  1612.45  2901.86  2917.25
eigval :     3005.33  3008.74  3070.30  3070.82  3072.04  3073.85
eigval :     3075.89  3077.42  3077.63  3080.53  3082.63  3083.92
eigval :     3084.60  3084.91  3085.67  3090.45  3093.08  3095.92
eigval :     3097.02  3097.17  3099.25  3101.44  3104.47  3109.99
eigval :     3110.55  3114.89  3116.20

   temp. (K)  partition function   enthalpy   heat capacity  entropy
                                   cal/mol     cal/K/mol   cal/K/mol   J/K/mol
 298.15  VIB  0.138E+18            22044.871    142.258    135.935
         ROT  0.865E+08              888.752      2.981     39.299
         INT  0.119E+26            22933.624    145.239    175.235
         TR   0.158E+29             1481.254      4.968     45.248
         TOT                       24414.8777   150.2073   220.4829   922.5004

       T/K    H(0)-H(T)+PV         H(T)/Eh          T*S/Eh         G(T)/Eh
   ------------------------------------------------------------------------
    298.15    0.389076E-01    0.639765E+00    0.104759E+00    0.535007E+00
   ------------------------------------------------------------------------

         :::::::::::::::::::::::::::::::::::::::::::::::::::::
         ::                  THERMODYNAMIC                  ::
         :::::::::::::::::::::::::::::::::::::::::::::::::::::
         :: total free energy        -127.683313346161 Eh   ::
         ::.................................................::
         :: total energy             -128.218319995457 Eh   ::
         :: zero point energy           0.600857599371 Eh   ::
         :: G(RRHO) w/o ZPVE           -0.065850950076 Eh   ::
         :: G(RRHO) contrib.            0.535006649295 Eh   ::
         :::::::::::::::::::::::::::::::::::::::::::::::::::::

           -------------------------------------------------
          | TOTAL ENERGY             -128.218319995457 Eh   |
          | TOTAL ENTHALPY           -127.578554811933 Eh   |
          | TOTAL FREE ENERGY        -127.683313346161 Eh   |
          | GRADIENT NORM               0.000050892533 Eh/α |
          | HOMO-LUMO GAP               2.304333624651 eV   |
           -------------------------------------------------

 * finished run on 2025/09/12 at 18:48:54.006
