   * xtb version 6.7.1 (edcfbbe) compiled by 'albert@albert-system' on 2024-07-22

   ID    Z sym.   atoms
    1    6 C      1-5, 7-22, 24-37, 39-44, 46, 47, 49, 50
    2    7 N      6, 23, 38
    3    8 O      45, 48
    4    1 H      51-79

          program call               : xtb data2507/toluene/CDDPI/CDDPI_toluene_S0_finalOpt.xtbopt.xyz --gfn 2 --uhf 2 --gbsa toluene --ohess vtight --parallel 40 --molden --ceasefiles --namespace data2507/toluene/CDDPI/CDDPI_toluene_T1_preOpt
      * Solvation model:               GBSA
        Solvent                        toluene
        Solvent mass                       9.2140E+01 g/mol
          :  Hamiltonian                  GFN2-xTB          :
 * total energy  :  -128.1257195 Eh     change       -0.1324679E-08 Eh
 * total energy  :  -128.1319552 Eh     change       -0.6235676E-02 Eh
 * total energy  :  -128.1345682 Eh     change       -0.2613007E-02 Eh
 * total energy  :  -128.1352744 Eh     change       -0.7061477E-03 Eh
 * total energy  :  -128.1362114 Eh     change       -0.9370845E-03 Eh
 * total energy  :  -128.1367770 Eh     change       -0.5655957E-03 Eh
 * total energy  :  -128.1372092 Eh     change       -0.4321780E-03 Eh
 * total energy  :  -128.1374844 Eh     change       -0.2751782E-03 Eh
 * total energy  :  -128.1376760 Eh     change       -0.1916371E-03 Eh
 * total energy  :  -128.1378349 Eh     change       -0.1588290E-03 Eh
 * total energy  :  -128.1397275 Eh     change       -0.1002813E-05 Eh
 * total energy  :  -128.1397282 Eh     change       -0.6815000E-06 Eh
 * total energy  :  -128.1397285 Eh     change       -0.3512890E-06 Eh
 * total energy  :  -128.1397287 Eh     change       -0.1975456E-06 Eh
 * total energy  :  -128.1397289 Eh     change       -0.1787743E-06 Eh
 * total energy  :  -128.1397291 Eh     change       -0.2138287E-06 Eh
 * total energy  :  -128.1397293 Eh     change       -0.2144156E-06 Eh
 * total energy  :  -128.1397295 Eh     change       -0.1480939E-06 Eh
 * total energy  :  -128.1397296 Eh     change       -0.9071047E-07 Eh
   *** GEOMETRY OPTIMIZATION CONVERGED AFTER 87 ITERATIONS ***

 final structure:
================
79
 xtb: 6.7.1 (edcfbbe)
C            0.90702812536478        1.19566253733302        3.14993415921079
C            2.26215155488488        1.26898030221659        2.88758883318556
C            2.82382231365568        0.47359818608062        1.90286823688785
C            2.02939967989687       -0.38269505065190        1.12268998731022
C            2.58995757802376       -1.34488563668768        0.23470846767305
N            3.94575801338055       -1.34094958823991       -0.07113128162625
C            4.80349710845286       -2.41937144733524        0.03941681516197
C            4.56867683246388       -3.68098725080942        0.57051541174788
C            5.62224016525040       -4.57585872708595        0.59834579922727
C            6.88518831514137       -4.22671090646721        0.12463331010268
C            7.13297074164641       -2.96163461218136       -0.37685711087943
C            6.09039740550492       -2.04773536053032       -0.41755309803800
C            5.99321910238364       -0.67438215620671       -0.83505907316699
C            6.89703553437373        0.22166586391985       -1.38732331876988
C            6.45542649892636        1.49178837575694       -1.70981950701930
C            5.12848880259868        1.86375741393876       -1.50355840031423
C            4.20926345044673        0.98910583274915       -0.95509358009767
C            4.65486387157210       -0.27839183915277       -0.60294331769457
C            1.77199258505691       -2.38332412598671       -0.28240299462306
C            0.42303672876474       -2.35269405767307       -0.13001084711258
C           -0.21036675591386       -1.24121051225505        0.52117817109595
C           -1.57964505932701       -1.06301841571789        0.28568497785414
N           -2.39686790265404       -2.08192687832098       -0.02546706806483
C           -3.61200640595141       -1.55813847830177       -0.18666872620007
C           -4.82614976731904       -2.25899975850254       -0.44746925637889
C           -4.84616356030536       -3.65448493550514       -0.52762170681992
C           -6.02941415667469       -4.32335866146133       -0.73717241032102
C           -7.20983349639354       -3.59532260270438       -0.85807165053375
C           -7.20004514642491       -2.21909467883440       -0.78886421518293
C           -6.01088120585038       -1.50144519713939       -0.59398787171273
C           -5.95640437172630       -0.04966978362753       -0.56771131584660
C           -7.09060626683519        0.72682303546763       -0.82923249814193
C           -7.04814760504456        2.10300109646154       -0.86086127914485
C           -5.84140987581655        2.76687058084562       -0.64854280361146
C           -4.70611613489152        2.04630286629054       -0.38080457695439
C           -4.72929050624214        0.63901487950928       -0.30838281988259
C           -3.58560208210748       -0.14858535361324       -0.04156522550710
N           -2.28533563446386        0.15559670942880        0.28325404981075
C           -1.66670799697382        1.41412994705808        0.38650262255035
C           -2.06315657348671        2.33285265095465        1.35703157855043
C           -1.39262807208853        3.53103550845697        1.48414495286445
C           -0.31659227446537        3.83272488381138        0.65753277662615
C            0.05952178109525        2.92589213769348       -0.33975615160965
C           -0.61469545530217        1.72063304058511       -0.46497651929089
O            1.08254932385844        3.18824292761660       -1.21149767215995
C            1.45987842756429        4.55252291567021       -1.23610783687402
C            1.59227779883966        5.08576372725390        0.18844370261302
O            0.34475997195849        5.01513547491955        0.85298713574180
C            0.62173045270648       -0.37962902566197        1.32710510819933
C            0.10073111297674        0.36064424355596        2.38430939715560
H            0.46996688624557        1.77730131017121        3.94746667720824
H            2.89460257875082        1.92494254461005        3.46839280848228
H            3.89255682924932        0.49455826270395        1.75183997492545
H            3.59987126581343       -3.95135183186466        0.96160013347149
H            5.46396241411075       -5.56460333310463        1.00295032729321
H            7.68320940052469       -4.95334815830667        0.16248873419868
H            8.11745250266038       -2.68614289908160       -0.72376773045223
H            7.92038509397038       -0.07182416612658       -1.56607920205632
H            7.14383424173490        2.20563584997804       -2.13746648150842
H            4.80999925295882        2.85650891380600       -1.78401335247146
H            3.18038192774703        1.28035471476852       -0.80977287649925
H            2.23845457943920       -3.16208569924723       -0.86669841756965
H           -0.21525163002870       -3.09407390072656       -0.58197202845769
H           -3.91022841145477       -4.17940792405464       -0.41275748631084
H           -6.04691488835330       -5.40127188945334       -0.79901165906643
H           -8.14591155417649       -4.11348442221117       -1.00902804075193
H           -8.14029222078754       -1.70000939455558       -0.88404280920836
H           -8.03408917617142        0.24484750738622       -1.02794087928665
H           -7.94653950808535        2.66569341925206       -1.06648049968820
H           -5.79788986824189        3.84469113654280       -0.70107068475242
H           -3.77114769178432        2.56353785422358       -0.24274735649550
H           -2.88386211285814        2.09747052020172        2.01735502896898
H           -1.67440969183600        4.24833211984363        2.23806081918214
H           -0.30358926457185        1.02919912430511       -1.23242018573385
H            2.40932316788492        4.59871491492902       -1.76908793728364
H            0.70199942963905        5.13595440860248       -1.77577209424839
H            1.88249479496801        6.13699102683908        0.19429811724541
H            2.33680842230529        4.49008089952578        0.73242689542471
H           -0.94559733815024        0.26218444328038        2.62993484739638

          :  Hamiltonian                  GFN2-xTB          :
         :: gradient norm              0.000056089241 Eh/a0 ::
         :: HOMO-LUMO gap              0.724166115317 eV    ::
         :: SCC energy              -130.362622689441 Eh    ::
         :: -> dispersion             -0.122121088348 Eh    ::
         :: -> Gsolv                  -0.048897712062 Eh    ::
         :: repulsion energy           2.222893106186 Eh    ::

    * Orbital Energies and Occupations

         #    Occupation            Energy/Eh            Energy/eV
      -------------------------------------------------------------
         1        2.0000           -0.7401042             -20.1393
       ...           ...                  ...                  ...
       107        2.0000           -0.4142344             -11.2719
       108        2.0000           -0.4103265             -11.1656
       109        2.0000           -0.4092389             -11.1360
       110        2.0000           -0.4044500             -11.0056
       111        2.0000           -0.4008547             -10.9078
       112        2.0000           -0.3908252             -10.6349
       113        2.0000           -0.3862722             -10.5110
       114        2.0000           -0.3842585             -10.4562
       115        2.0000           -0.3825117             -10.4087
       116        2.0000           -0.3783138             -10.2944
       117        2.0000           -0.3734454             -10.1620
       118        1.0000           -0.3502870              -9.5318
       119        1.0000           -0.2828857              -7.6977 (HOMO)
       120        0.0000           -0.2562728              -6.9735 (LUMO)
       121                         -0.2515358              -6.8446
       122                         -0.2497826              -6.7969
       123                         -0.2412733              -6.5654
       124                         -0.2340377              -6.3685
       125                         -0.2278235              -6.1994
       126                         -0.2256229              -6.1395
       127                         -0.2217307              -6.0336
       128                         -0.2073454              -5.6422
       129                         -0.1991870              -5.4202
       130                         -0.1932988              -5.2599
       ...                                ...                  ...
       229                          0.7383408              20.0913
      -------------------------------------------------------------
                  HL-Gap            0.0266130 Eh            0.7242 eV

     #   Z          covCN         q      C6AA      α(0)
     1   6 C        2.915    -0.039    28.970     8.826
     2   6 C        2.915    -0.034    28.858     8.809
     3   6 C        2.920    -0.045    29.113     8.848
     4   6 C        2.979     0.003    27.957     8.673
     5   6 C        2.909     0.032    27.282     8.565
     6   7 N        2.797    -0.016    21.557     6.896
     7   6 C        3.074     0.046    26.902     8.504
     8   6 C        2.909    -0.045    29.111     8.847
     9   6 C        2.923    -0.033    28.822     8.804
    10   6 C        2.920    -0.037    28.923     8.819
    11   6 C        2.912    -0.032    28.799     8.800
    12   6 C        3.064    -0.014    28.302     8.724
    13   6 C        3.064    -0.015    28.310     8.725
    14   6 C        2.912    -0.033    28.811     8.802
    15   6 C        2.920    -0.038    28.945     8.823
    16   6 C        2.924    -0.033    28.826     8.805
    17   6 C        2.909    -0.043    29.079     8.842
    18   6 C        3.074     0.046    26.885     8.501
    19   6 C        2.910    -0.046    29.140     8.852
    20   6 C        2.919    -0.039    28.974     8.827
    21   6 C        2.969    -0.023    28.569     8.767
    22   6 C        3.148     0.133    24.855     8.156
    23   7 N        1.883    -0.319    29.127     8.001
    24   6 C        3.175     0.078    25.878     8.307
    25   6 C        2.984    -0.006    28.161     8.705
    26   6 C        2.922    -0.029    28.727     8.789
    27   6 C        2.916    -0.032    28.792     8.799
    28   6 C        2.917    -0.030    28.755     8.793
    29   6 C        2.921    -0.035    28.879     8.813
    30   6 C        2.978    -0.002    28.066     8.690
    31   6 C        2.978    -0.001    28.056     8.689
    32   6 C        2.921    -0.034    28.839     8.806
    33   6 C        2.916    -0.033    28.822     8.804
    34   6 C        2.915    -0.032    28.801     8.800
    35   6 C        2.918    -0.040    28.997     8.830
    36   6 C        2.974    -0.009    28.249     8.718
    37   6 C        3.040     0.034    27.197     8.554
    38   7 N        2.821    -0.061    22.415     7.032
    39   6 C        2.910     0.060    26.665     8.467
    40   6 C        2.920    -0.048    29.201     8.862
    41   6 C        2.919    -0.056    29.389     8.890
    42   6 C        2.882     0.113    25.510     8.280
    43   6 C        2.885     0.116    25.448     8.270
    44   6 C        2.923    -0.067    29.680     8.934
    45   8 O        1.704    -0.285    18.730     5.843
    46   6 C        3.714     0.072    19.505     6.310
    47   6 C        3.712     0.070    19.539     6.316
    48   8 O        1.704    -0.281    18.660     5.832
    49   6 C        2.980     0.003    27.947     8.672
    50   6 C        2.921    -0.044    29.088     8.844
    51   1 H        0.926     0.028     2.615     2.529
    52   1 H        0.926     0.029     2.603     2.523
    53   1 H        0.926     0.029     2.607     2.525
    54   1 H        0.926     0.038     2.481     2.463
    55   1 H        0.926     0.037     2.495     2.470
    56   1 H        0.926     0.036     2.509     2.477
    57   1 H        0.926     0.038     2.479     2.462
    58   1 H        0.926     0.038     2.481     2.463
    59   1 H        0.926     0.036     2.509     2.477
    60   1 H        0.926     0.034     2.530     2.487
    61   1 H        0.926     0.036     2.496     2.471
    62   1 H        0.926     0.041     2.433     2.439
    63   1 H        0.926     0.049     2.332     2.388
    64   1 H        0.926     0.047     2.356     2.400
    65   1 H        0.926     0.037     2.494     2.470
    66   1 H        0.926     0.037     2.490     2.467
    67   1 H        0.926     0.039     2.464     2.455
    68   1 H        0.926     0.040     2.447     2.446
    69   1 H        0.926     0.036     2.509     2.477
    70   1 H        0.926     0.034     2.536     2.490
    71   1 H        0.926     0.032     2.551     2.498
    72   1 H        0.926     0.056     2.240     2.341
    73   1 H        0.926     0.066     2.132     2.284
    74   1 H        0.926     0.053     2.287     2.365
    75   1 H        0.925     0.070     2.085     2.258
    76   1 H        0.923     0.050     2.325     2.385
    77   1 H        0.924     0.071     2.075     2.252
    78   1 H        0.924     0.051     2.311     2.377
    79   1 H        0.926     0.021     2.717     2.578

molecular dipole:
                 x           y           z       tot (Debye)
 q only:        0.809       1.096      -0.332
   full:        0.723       1.533      -0.328       4.388

 projected vibrational frequencies (cm⁻¹)
eigval :       -0.00    -0.00    -0.00     0.00     0.00     0.00
eigval :        8.55    13.93    19.19    24.80    32.05    40.67
eigval :       49.09    58.96    62.41    72.81    85.87    96.94
eigval :      102.23   111.82   121.28   134.24   139.58   144.75
eigval :      164.50   173.01   178.25   189.99   201.71   205.29
eigval :      221.05   242.02   250.09   263.02   271.66   287.55
eigval :      299.75   310.16   319.65   340.68   352.54   370.80
eigval :      378.82   394.20   395.71   401.01   407.58   420.13
eigval :      425.21   431.79   435.46   437.64   443.31   451.73
eigval :      466.64   468.88   493.55   501.38   503.13   513.72
eigval :      518.17   527.61   528.03   537.77   543.62   550.62
eigval :      570.46   581.18   584.95   585.60   594.96   615.33
eigval :      625.12   627.04   645.85   656.36   661.33   671.79
eigval :      672.66   674.00   684.51   685.13   699.70   708.53
eigval :      715.41   728.56   753.88   759.72   761.66   766.43
eigval :      767.77   771.00   776.16   777.58   777.97   792.51
eigval :      833.84   838.58   851.12   858.82   864.02   866.59
eigval :      869.05   870.85   872.40   892.90   893.24   899.07
eigval :      901.85   903.76   905.00   909.21   911.95   913.71
eigval :      919.11   920.91   921.95   922.80   924.17   926.57
eigval :      942.50   949.38   998.03  1008.01  1025.64  1034.50
eigval :     1045.79  1067.04  1069.38  1069.74  1071.91  1084.07
eigval :     1095.03  1096.09  1104.24  1111.96  1117.03  1124.82
eigval :     1135.69  1142.47  1145.07  1159.49  1167.67  1170.35
eigval :     1175.32  1178.04  1180.04  1182.12  1182.78  1189.23
eigval :     1192.98  1201.95  1211.77  1227.08  1228.20  1232.83
eigval :     1236.06  1246.93  1251.74  1254.33  1265.10  1279.64
eigval :     1283.34  1289.01  1294.02  1295.08  1300.25  1313.38
eigval :     1332.51  1334.54  1336.67  1337.89  1343.17  1343.54
eigval :     1350.29  1358.49  1367.16  1387.60  1393.13  1406.95
eigval :     1411.21  1415.72  1416.65  1425.21  1432.17  1438.76
eigval :     1445.06  1448.54  1450.16  1460.98  1468.37  1481.02
eigval :     1482.34  1485.32  1518.82  1522.93  1529.58  1542.43
eigval :     1544.81  1563.80  1565.72  1567.06  1574.33  1578.79
eigval :     1581.35  1587.86  1590.45  1600.12  2902.85  2920.30
eigval :     3003.25  3010.55  3069.94  3073.29  3075.68  3076.78
eigval :     3077.23  3080.93  3082.77  3083.80  3083.89  3085.74
eigval :     3086.03  3089.62  3090.60  3092.15  3095.01  3095.16
eigval :     3097.08  3098.24  3098.85  3102.49  3106.64  3109.92
eigval :     3112.76  3113.90  3125.83

   temp. (K)  partition function   enthalpy   heat capacity  entropy
                                   cal/mol     cal/K/mol   cal/K/mol   J/K/mol
 298.15  VIB  0.236E+17            22094.911    144.504    135.247
         ROT  0.775E+08              888.752      2.981     39.081
         INT  0.183E+25            22983.664    147.485    174.329
         TR   0.158E+29             1481.254      4.968     45.248
         TOT                       24464.9175   152.4529   219.5768   918.7094

       T/K    H(0)-H(T)+PV         H(T)/Eh          T*S/Eh         G(T)/Eh
   ------------------------------------------------------------------------
    298.15    0.389873E-01    0.636804E+00    0.104328E+00    0.532476E+00
   ------------------------------------------------------------------------

         :::::::::::::::::::::::::::::::::::::::::::::::::::::
         ::                  THERMODYNAMIC                  ::
         :::::::::::::::::::::::::::::::::::::::::::::::::::::
         :: total free energy        -127.607253792232 Eh   ::
         ::.................................................::
         :: total energy             -128.139729579715 Eh   ::
         :: zero point energy           0.597816491120 Eh   ::
         :: G(RRHO) w/o ZPVE           -0.065340703636 Eh   ::
         :: G(RRHO) contrib.            0.532475787484 Eh   ::
         :::::::::::::::::::::::::::::::::::::::::::::::::::::

           -------------------------------------------------
          | TOTAL ENERGY             -128.139729579715 Eh   |
          | TOTAL ENTHALPY           -127.502925760904 Eh   |
          | TOTAL FREE ENERGY        -127.607253792232 Eh   |
          | GRADIENT NORM               0.000056066469 Eh/α |
          | HOMO-LUMO GAP               0.724175741304 eV   |
           -------------------------------------------------

 * finished run on 2025/09/12 at 18:54:30.359
