   * xtb version 6.7.1 (edcfbbe) compiled by 'albert@albert-system' on 2024-07-22

   ID    Z sym.   atoms
    1    6 C      1-5, 7-22, 24-37, 39-44, 46, 47, 49, 50
    2    7 N      6, 23, 38
    3    8 O      45, 48
    4    1 H      51-79

          program call               : xtb data2507/toluene/CDDPI/CDDPI_toluene_T1_crest.xyz --gfn 2 --uhf 2 --gbsa toluene --ohess vtight --parallel 40 --molden --ceasefiles --namespace data2507/toluene/CDDPI/CDDPI_toluene_T1_finalOpt
      * Solvation model:               GBSA
        Solvent                        toluene
        Solvent mass                       9.2140E+01 g/mol
          :  Hamiltonian                  GFN2-xTB          :
 * total energy  :  -128.1394606 Eh     change       -0.6458066E-08 Eh
 * total energy  :  -128.1395131 Eh     change       -0.5245422E-04 Eh
 * total energy  :  -128.1395487 Eh     change       -0.3558888E-04 Eh
 * total energy  :  -128.1395656 Eh     change       -0.1692318E-04 Eh
 * total energy  :  -128.1395808 Eh     change       -0.1515988E-04 Eh
 * total energy  :  -128.1396079 Eh     change       -0.2718710E-04 Eh
 * total energy  :  -128.1396213 Eh     change       -0.1332838E-04 Eh
 * total energy  :  -128.1396345 Eh     change       -0.1321877E-04 Eh
 * total energy  :  -128.1396442 Eh     change       -0.9735903E-05 Eh
 * total energy  :  -128.1396505 Eh     change       -0.6250721E-05 Eh
 * total energy  :  -128.1397038 Eh     change       -0.3873322E-06 Eh
 * total energy  :  -128.1397044 Eh     change       -0.5240499E-06 Eh
 * total energy  :  -128.1397050 Eh     change       -0.6040950E-06 Eh
 * total energy  :  -128.1397055 Eh     change       -0.5402314E-06 Eh
 * total energy  :  -128.1397059 Eh     change       -0.4059440E-06 Eh
 * total energy  :  -128.1397062 Eh     change       -0.2916992E-06 Eh
 * total energy  :  -128.1397065 Eh     change       -0.2402529E-06 Eh
 * total energy  :  -128.1397067 Eh     change       -0.2499158E-06 Eh
 * total energy  :  -128.1397067 Eh     change       -0.1335678E-08 Eh
   *** GEOMETRY OPTIMIZATION CONVERGED AFTER 44 ITERATIONS ***

 final structure:
================
79
 xtb: 6.7.1 (edcfbbe)
C            0.92629732352668        1.51080749399813        2.95375295281026
C            2.26368048846750        1.62264297910487        2.62033141417612
C            2.82667957729101        0.75370590488436        1.70153952700236
C            2.04616372689716       -0.21660318809667        1.05086605738628
C            2.61651082371421       -1.24344816077607        0.24690169303512
N            3.95946307217227       -1.21967237381928       -0.11073823654062
C            4.86136395908268       -2.25101275063067        0.07221333878873
C            4.69820903077132       -3.45337600239658        0.74798027488205
C            5.78325353613476       -4.30750960687247        0.81600521069257
C            7.00761259179619       -3.97424308687267        0.24043797758168
C            7.18548304440356       -2.76396238792440       -0.40522315002641
C            6.11003709963828       -1.89188671697420       -0.48851296975634
C            5.94196443878586       -0.57625568427662       -1.04603392475312
C            6.78408933333357        0.27986121734927       -1.74070971106416
C            6.28058264165961        1.49099132953929       -2.17866130948534
C            4.95277312375960        1.84202020361031       -1.94422947137301
C            4.09438642944595        1.00749985870802       -1.25285840233088
C            4.60261718176930       -0.19900543829011       -0.78892518174276
C            1.82602309648667       -2.36159162610769       -0.12884538513141
C            0.48165065177194       -2.36391777127531        0.06235022968444
C           -0.17462704480466       -1.21267690539292        0.61458483656523
C           -1.55003835425742       -1.09050837305630        0.37994989905324
N           -2.34389993592178       -2.15420473454572        0.17408596643454
C           -3.57347515087179       -1.67861172163988       -0.02325485614057
C           -4.77431374398483       -2.42838493789557       -0.19541931946848
C           -4.76454157896668       -3.82463655253264       -0.12859338068753
C           -5.93579504061570       -4.53600086663968       -0.24565851993886
C           -7.13343769862349       -3.84940644220519       -0.42473200965571
C           -7.15318514859288       -2.47361067649619       -0.50111458294514
C           -5.97792137625177       -1.71504590235105       -0.40019905944261
C           -5.95676365964586       -0.26706142752616       -0.52283242746160
C           -7.11044990866819        0.45536152027773       -0.84656824520443
C           -7.09667232206538        1.82127377202715       -1.02285831717018
C           -5.90098185832526        2.52707084946199       -0.90258848660056
C           -4.74821050443515        1.86148242296934       -0.57393240749689
C           -4.74312811461027        0.47013943743004       -0.35039650143943
C           -3.58125884924210       -0.26172711763828       -0.01337082970475
N           -2.28765735260242        0.10437954657302        0.26651657834194
C           -1.71407675779048        1.38553993248417        0.30875963543819
C           -2.17189715696250        2.34582877182587        1.20983580738305
C           -1.52015225247417        3.55621872499445        1.31328770947371
C           -0.40067614602341        3.82714669605727        0.53505981087923
C            0.02909420401028        2.88379508681546       -0.40491604367322
C           -0.63043879198083        1.66895385660377       -0.51130405672911
O            1.09525163096242        3.11305105832401       -1.23243088966428
C            1.50059555164291        4.46899110032845       -1.26767796624984
C            1.54651681203962        5.03932918991234        0.14763159491190
O            0.25418195218048        5.01478812936379        0.72300027492406
C            0.64848504790687       -0.25160880898031        1.31153985877672
C            0.13404208892239        0.56357340587430        2.31514044364812
H            0.49248240669562        2.15121582955618        3.70680231412520
H            2.88325413882056        2.36692883414099        3.10014653419524
H            3.88598019864226        0.80828487284894        1.50078735736112
H            3.76005435123025       -3.70812268660365        1.21671519192388
H            5.68064849738657       -5.25095574138670        1.33154672965429
H            7.83135588969269       -4.66881387938148        0.31281453974047
H            8.14120385622267       -2.49872226287364       -0.83141973348010
H            7.80734510421308       -0.00030990544991       -1.94022777746271
H            6.91989464655644        2.17257588916043       -2.72005995574680
H            4.58323768896703        2.78499183452330       -2.31831115982871
H            3.06526275774520        1.28511425831009       -1.08401766321315
H            2.30607850459620       -3.17996572604522       -0.64380305108543
H           -0.14015686763977       -3.16953003034143       -0.29215108768111
H           -3.81572415390174       -4.31515512705678        0.02632123365874
H           -5.93057181843885       -5.61449933047842       -0.19216635117267
H           -8.05974581297987       -4.39984236815456       -0.50489967131677
H           -8.10577679109281       -1.98677578036756       -0.63582058392491
H           -8.04629445592843       -0.06281667668436       -0.97933372893351
H           -8.00926193867409        2.34181748976113       -1.27232427583894
H           -5.87987430878602        3.59337290061066       -1.07258272425219
H           -3.82147708473363        2.40736946126848       -0.50643144646104
H           -3.02008065052785        2.12971939723182        1.84129922453452
H           -1.84541436168075        4.30425892764722        2.01823222331108
H           -0.27701200477318        0.94721148674267       -1.23087775036711
H            2.48580344864643        4.48274982806053       -1.73330610207408
H            0.79375066247668        5.05093014269865       -1.87394955503486
H            1.86186696754028        6.08309553031840        0.14666038446850
H            2.23464268996832        4.43948645756196        0.75745702916958
H           -0.89677582039824        0.44472714637646        2.61267283154689

          :  Hamiltonian                  GFN2-xTB          :
         :: gradient norm              0.000028252085 Eh/a0 ::
         :: HOMO-LUMO gap              0.734425782112 eV    ::
         :: SCC energy              -130.362788342622 Eh    ::
         :: -> dispersion             -0.123462723365 Eh    ::
         :: -> Gsolv                  -0.048006430754 Eh    ::
         :: repulsion energy           2.223081638531 Eh    ::

    * Orbital Energies and Occupations

         #    Occupation            Energy/Eh            Energy/eV
      -------------------------------------------------------------
         1        2.0000           -0.7397835             -20.1305
       ...           ...                  ...                  ...
       107        2.0000           -0.4143551             -11.2752
       108        2.0000           -0.4101165             -11.1598
       109        2.0000           -0.4089483             -11.1280
       110        2.0000           -0.4047086             -11.0127
       111        2.0000           -0.4000835             -10.8868
       112        2.0000           -0.3906307             -10.6296
       113        2.0000           -0.3863475             -10.5131
       114        2.0000           -0.3841909             -10.4544
       115        2.0000           -0.3823817             -10.4051
       116        2.0000           -0.3782627             -10.2931
       117        2.0000           -0.3734318             -10.1616
       118        1.0000           -0.3501316              -9.5276
       119        1.0000           -0.2834508              -7.7131 (HOMO)
       120        0.0000           -0.2564613              -6.9787 (LUMO)
       121                         -0.2515971              -6.8463
       122                         -0.2497056              -6.7948
       123                         -0.2410967              -6.5606
       124                         -0.2336393              -6.3576
       125                         -0.2277363              -6.1970
       126                         -0.2256463              -6.1401
       127                         -0.2217631              -6.0345
       128                         -0.2073981              -5.6436
       129                         -0.1991171              -5.4183
       130                         -0.1934123              -5.2630
       ...                                ...                  ...
       229                          0.7384058              20.0930
      -------------------------------------------------------------
                  HL-Gap            0.0269895 Eh            0.7344 eV

     #   Z          covCN         q      C6AA      α(0)
     1   6 C        2.915    -0.039    28.978     8.827
     2   6 C        2.915    -0.035    28.863     8.810
     3   6 C        2.919    -0.045    29.109     8.848
     4   6 C        2.980     0.003    27.951     8.672
     5   6 C        2.909     0.032    27.277     8.564
     6   7 N        2.797    -0.016    21.561     6.896
     7   6 C        3.074     0.046    26.902     8.504
     8   6 C        2.909    -0.045    29.112     8.847
     9   6 C        2.923    -0.033    28.823     8.804
    10   6 C        2.920    -0.037    28.924     8.819
    11   6 C        2.912    -0.032    28.799     8.800
    12   6 C        3.064    -0.014    28.302     8.724
    13   6 C        3.065    -0.015    28.310     8.725
    14   6 C        2.912    -0.033    28.812     8.802
    15   6 C        2.920    -0.038    28.945     8.823
    16   6 C        2.924    -0.033    28.824     8.804
    17   6 C        2.909    -0.044    29.099     8.845
    18   6 C        3.074     0.046    26.886     8.502
    19   6 C        2.910    -0.046    29.143     8.852
    20   6 C        2.919    -0.039    28.969     8.826
    21   6 C        2.969    -0.023    28.566     8.767
    22   6 C        3.146     0.132    24.872     8.159
    23   7 N        1.883    -0.319    29.120     8.000
    24   6 C        3.174     0.078    25.886     8.310
    25   6 C        2.984    -0.006    28.160     8.705
    26   6 C        2.922    -0.029    28.726     8.789
    27   6 C        2.916    -0.032    28.791     8.799
    28   6 C        2.917    -0.030    28.755     8.793
    29   6 C        2.921    -0.035    28.877     8.812
    30   6 C        2.978    -0.002    28.065     8.690
    31   6 C        2.978    -0.001    28.055     8.688
    32   6 C        2.921    -0.034    28.838     8.806
    33   6 C        2.916    -0.033    28.820     8.803
    34   6 C        2.915    -0.032    28.799     8.800
    35   6 C        2.918    -0.040    28.984     8.828
    36   6 C        2.975    -0.009    28.246     8.718
    37   6 C        3.041     0.034    27.200     8.554
    38   7 N        2.821    -0.059    22.381     7.026
    39   6 C        2.910     0.059    26.680     8.470
    40   6 C        2.920    -0.049    29.216     8.864
    41   6 C        2.919    -0.056    29.385     8.889
    42   6 C        2.885     0.112    25.520     8.282
    43   6 C        2.884     0.116    25.439     8.269
    44   6 C        2.923    -0.068    29.685     8.935
    45   8 O        1.704    -0.284    18.717     5.841
    46   6 C        3.713     0.071    19.509     6.311
    47   6 C        3.714     0.070    19.529     6.314
    48   8 O        1.704    -0.281    18.672     5.834
    49   6 C        2.980     0.004    27.937     8.670
    50   6 C        2.921    -0.044    29.081     8.843
    51   1 H        0.926     0.027     2.624     2.533
    52   1 H        0.926     0.028     2.617     2.530
    53   1 H        0.926     0.029     2.600     2.522
    54   1 H        0.926     0.037     2.482     2.464
    55   1 H        0.926     0.037     2.496     2.470
    56   1 H        0.926     0.035     2.510     2.477
    57   1 H        0.926     0.038     2.480     2.462
    58   1 H        0.926     0.037     2.483     2.464
    59   1 H        0.926     0.035     2.512     2.478
    60   1 H        0.926     0.033     2.537     2.491
    61   1 H        0.926     0.039     2.460     2.453
    62   1 H        0.926     0.041     2.431     2.438
    63   1 H        0.926     0.050     2.326     2.385
    64   1 H        0.926     0.047     2.356     2.400
    65   1 H        0.926     0.037     2.493     2.469
    66   1 H        0.926     0.037     2.489     2.467
    67   1 H        0.926     0.039     2.463     2.454
    68   1 H        0.926     0.040     2.446     2.446
    69   1 H        0.926     0.036     2.508     2.476
    70   1 H        0.926     0.034     2.534     2.490
    71   1 H        0.926     0.032     2.557     2.501
    72   1 H        0.926     0.056     2.250     2.346
    73   1 H        0.926     0.065     2.137     2.286
    74   1 H        0.926     0.053     2.288     2.366
    75   1 H        0.925     0.070     2.086     2.258
    76   1 H        0.923     0.050     2.321     2.383
    77   1 H        0.924     0.071     2.076     2.253
    78   1 H        0.924     0.050     2.317     2.381
    79   1 H        0.926     0.020     2.728     2.583

molecular dipole:
                 x           y           z       tot (Debye)
 q only:        0.790       1.042      -0.380
   full:        0.697       1.479      -0.396       4.275

 projected vibrational frequencies (cm⁻¹)
eigval :       -0.00     0.00     0.00     0.00     0.00     0.00
eigval :        4.24    18.41    21.62    22.66    30.09    40.88
eigval :       52.15    56.14    59.16    75.16    86.81    95.30
eigval :      101.59   109.60   120.56   135.10   140.44   145.18
eigval :      163.64   172.76   177.16   189.55   199.10   205.51
eigval :      221.37   246.72   250.15   262.69   271.84   287.18
eigval :      299.91   307.69   319.06   340.94   352.56   370.80
eigval :      379.89   394.56   397.10   400.67   408.14   421.70
eigval :      426.08   431.95   436.22   437.52   443.83   451.04
eigval :      466.39   468.82   493.12   500.63   502.59   513.48
eigval :      517.78   527.92   528.82   537.24   543.76   550.38
eigval :      570.53   580.94   584.79   585.76   595.36   615.24
eigval :      625.02   627.51   645.17   655.35   663.25   671.16
eigval :      673.34   673.89   684.62   684.84   698.91   709.30
eigval :      715.54   729.77   754.04   759.54   760.06   766.34
eigval :      768.46   770.43   776.96   777.60   778.25   790.45
eigval :      833.40   838.07   848.17   858.77   864.33   869.81
eigval :      870.67   870.92   873.51   892.94   894.87   899.36
eigval :      902.88   904.03   907.57   908.46   911.43   913.91
eigval :      919.43   920.08   921.82   922.23   922.80   926.65
eigval :      942.47   949.65   997.95  1007.97  1025.88  1034.60
eigval :     1045.87  1067.33  1069.55  1069.97  1072.17  1083.27
eigval :     1094.94  1096.21  1103.52  1111.80  1117.01  1125.31
eigval :     1136.12  1143.63  1145.83  1158.60  1168.51  1170.84
eigval :     1176.84  1178.93  1179.52  1182.21  1182.85  1188.53
eigval :     1193.66  1200.83  1212.01  1226.93  1228.55  1232.73
eigval :     1236.09  1246.85  1251.96  1254.12  1265.62  1280.54
eigval :     1283.70  1289.91  1294.12  1295.21  1300.60  1312.96
eigval :     1332.88  1334.69  1336.38  1337.76  1343.10  1343.89
eigval :     1350.50  1359.13  1369.04  1387.88  1393.12  1408.03
eigval :     1411.42  1416.07  1416.92  1425.28  1432.34  1439.16
eigval :     1444.81  1446.11  1449.25  1461.69  1468.89  1481.48
eigval :     1482.86  1486.53  1519.36  1522.91  1530.44  1542.14
eigval :     1545.01  1563.30  1564.56  1567.44  1574.33  1579.20
eigval :     1581.47  1587.87  1590.48  1600.26  2902.35  2918.44
eigval :     3005.56  3011.61  3067.77  3072.39  3075.98  3076.74
eigval :     3077.07  3079.38  3082.46  3083.87  3084.02  3085.86
eigval :     3087.40  3088.79  3090.78  3092.46  3093.78  3095.23
eigval :     3096.75  3098.43  3100.20  3100.54  3107.61  3109.99
eigval :     3112.02  3113.65  3119.82

   temp. (K)  partition function   enthalpy   heat capacity  entropy
                                   cal/mol     cal/K/mol   cal/K/mol   J/K/mol
 298.15  VIB  0.382E+17            22099.570    144.455    135.739
         ROT  0.769E+08              888.752      2.981     39.066
         INT  0.293E+25            22988.322    147.436    174.805
         TR   0.158E+29             1481.254      4.968     45.248
         TOT                       24469.5763   152.4040   220.0527   920.7006

       T/K    H(0)-H(T)+PV         H(T)/Eh          T*S/Eh         G(T)/Eh
   ------------------------------------------------------------------------
    298.15    0.389948E-01    0.636820E+00    0.104554E+00    0.532266E+00
   ------------------------------------------------------------------------

         :::::::::::::::::::::::::::::::::::::::::::::::::::::
         ::                  THERMODYNAMIC                  ::
         :::::::::::::::::::::::::::::::::::::::::::::::::::::
         :: total free energy        -127.607440596209 Eh   ::
         ::.................................................::
         :: total energy             -128.139706706028 Eh   ::
         :: zero point energy           0.597825504707 Eh   ::
         :: G(RRHO) w/o ZPVE           -0.065559394888 Eh   ::
         :: G(RRHO) contrib.            0.532266109819 Eh   ::
         :::::::::::::::::::::::::::::::::::::::::::::::::::::

           -------------------------------------------------
          | TOTAL ENERGY             -128.139706706028 Eh   |
          | TOTAL ENTHALPY           -127.502886449390 Eh   |
          | TOTAL FREE ENERGY        -127.607440596209 Eh   |
          | GRADIENT NORM               0.000028268251 Eh/α |
          | HOMO-LUMO GAP               0.734421469308 eV   |
           -------------------------------------------------

 * finished run on 2025/09/12 at 18:58:23.672
