   * xtb version 6.7.1 (edcfbbe) compiled by 'albert@albert-system' on 2024-07-22

   ID    Z sym.   atoms
    1    6 C      1-3, 5-18, 20-23, 25-46, 48-64, 66-79, 81-84, 86-107
    2    7 N      4, 19, 24, 47, 65, 80, 85
    3    1 H      108-176

          program call               : xtb data2507/toluene/TPA–2SPPITPA/TPA–2SPPITPA_toluene_S0_finalOpt.xtbopt.xyz --gfn 2 --uhf 2 --gbsa toluene --ohess vtight --parallel 40 --molden --ceasefiles --namespace data2507/toluene/TPA–2SPPITPA/TPA–2SPPITPA_toluene_T1_preOpt
      * Solvation model:               GBSA
        Solvent                        toluene
        Solvent mass                       9.2140E+01 g/mol
          :  Hamiltonian                  GFN2-xTB          :
 * total energy  :  -269.9113405 Eh     change       -0.3344041E-08 Eh
 * total energy  :  -269.9149994 Eh     change       -0.3658947E-02 Eh
 * total energy  :  -269.9172557 Eh     change       -0.2256279E-02 Eh
 * total energy  :  -269.9179687 Eh     change       -0.7130196E-03 Eh
 * total energy  :  -269.9185050 Eh     change       -0.5362394E-03 Eh
 * total energy  :  -269.9187571 Eh     change       -0.2521148E-03 Eh
 * total energy  :  -269.9189021 Eh     change       -0.1450185E-03 Eh
 * total energy  :  -269.9190356 Eh     change       -0.1334707E-03 Eh
 * total energy  :  -269.9191850 Eh     change       -0.1494716E-03 Eh
 * total energy  :  -269.9193273 Eh     change       -0.1422608E-03 Eh
 * total energy  :  -269.9221642 Eh     change       -0.1024700E-05 Eh
 * total energy  :  -269.9221652 Eh     change       -0.1005526E-05 Eh
 * total energy  :  -269.9221661 Eh     change       -0.9187033E-06 Eh
 * total energy  :  -269.9221670 Eh     change       -0.9212080E-06 Eh
 * total energy  :  -269.9221681 Eh     change       -0.1036489E-05 Eh
 * total energy  :  -269.9221694 Eh     change       -0.1351772E-05 Eh
 * total energy  :  -269.9221712 Eh     change       -0.1814468E-05 Eh
 * total energy  :  -269.9221734 Eh     change       -0.2161390E-05 Eh
 * total energy  :  -269.9221734 Eh     change       -0.4559797E-07 Eh
   *** GEOMETRY OPTIMIZATION CONVERGED AFTER 260 ITERATIONS ***

 final structure:
================
176
 xtb: 6.7.1 (edcfbbe)
C            1.11908446896169        4.91058376947183        0.93421659365998
C            2.07003456283514        3.95919386123776        0.93135280513967
C            3.47185491592250        4.19813591087423        0.79585901177716
N            4.04866984566394        5.36375229524440        0.59206283373737
C            5.37974226476030        5.11361655042571        0.51503340204587
C            6.43787860927364        6.04672489786058        0.32188489357514
C            6.18247868108977        7.41609175140305        0.18836324756007
C            7.21654257698332        8.30508873727241        0.03018879710035
C            8.52717647164071        7.83176739117500        0.00647459011089
C            8.79060959270900        6.48734561834086        0.13167288486690
C            7.76087654996096        5.54648328312115        0.28910158554295
C            8.00991919271260        4.11864015479141        0.39846142695737
C            9.30417740437920        3.58478532341818        0.31444966026780
C            9.54131460994593        2.23168418084214        0.38077554335681
C            8.48061886457777        1.34109613856229        0.51957197022061
C            7.19828256408431        1.82274575459513        0.61238309531721
C            6.93798372641044        3.20087596938387        0.57492552157237
C            5.62961658206118        3.74869768082811        0.67556008134659
N            4.39806834940891        3.17023024674390        0.85792768633095
C            4.08688376126252        1.84257183863868        1.22069089382816
C            4.49559284271027        1.34096554042853        2.45424853158689
C            4.11872593626429        0.07394927163289        2.84876911567883
C            3.31016396915222       -0.71259251446690        2.02529688245018
N            2.85742210722119       -1.96710795343929        2.44698215571617
C            1.51039271373359       -2.30197002069750        2.26192369159760
C            0.52547983050219       -1.31372034088820        2.31688496876595
C           -0.80490084014537       -1.64235323190490        2.14133026196541
C           -1.18165273270474       -2.95795534964388        1.92583168953914
C           -0.21003712634558       -3.94481231129046        1.88125063102461
C            1.12559659790617       -3.62376917468912        2.03594814243575
C            3.72507343931838       -2.82518639773499        3.13428806703441
C            3.26789505725536       -3.62565935887390        4.18041777763842
C            4.13923223477490       -4.46799417214589        4.84388200202591
C            5.47763857223099       -4.51633949349958        4.48928384110811
C            5.93878798662842       -3.71490413999093        3.45762504587472
C            5.07247480774937       -2.87964800217945        2.77946346866544
C            2.93059255696488       -0.21395202944061        0.77838480612025
C            3.31164618745511        1.05029553303746        0.37958581784880
C           -0.29595725230089        4.61522550941780        1.02283486889690
C           -0.80053251685887        3.37434801475605        0.61832614910692
C           -2.13617867827325        3.07713944236181        0.74628964135872
C           -3.03504251180668        4.00062938641075        1.28972723190559
C           -4.43538437486585        3.59447291192191        1.44567140442747
C           -5.51466080378154        4.43170825792464        1.16212413101020
C           -6.81144714659543        3.94949390042895        1.15546302692703
C           -7.05716468280896        2.60588717998634        1.43204998619942
N           -8.30862882091556        1.99089104988403        1.23015834937695
C           -9.48665880037559        2.46534870303797        1.77888170610836
C          -10.71910432037621        2.09773793582593        1.23080896923062
C          -11.89295682436187        2.56734768937832        1.78480247660772
C          -11.86412938263071        3.41563990807695        2.88132590856345
C          -10.64415737920046        3.79087668792999        3.42282617214037
C           -9.46316738044631        3.32087137002464        2.88397300216200
C           -8.21399756464107        0.80420309805460        0.49485307836649
C           -8.78004060387087       -0.41048425936343        0.90203116527579
C           -8.39095888691593       -1.58783823590709        0.30809124782422
C           -7.43526973443993       -1.61987843032647       -0.73264470442243
C           -6.74302222999436       -2.80543938381930       -1.14503102025033
C           -6.67330297527015       -3.97115371450032       -0.33379103876473
C           -5.67046430426263       -4.88039567217634       -0.48191137009056
C           -4.62068597333541       -4.67479460209717       -1.42956715666577
C           -3.38338754898579       -5.30006479732635       -1.28733928936860
C           -2.20852347987514       -4.77363584504448       -1.84178710714641
C           -0.92565047558433       -5.14848229586687       -1.47901150268214
N           -0.56417451732820       -6.20273060457880       -0.73406420114974
C            0.74677626829978       -6.06494952095049       -0.50123829833603
C            1.58570799095619       -6.89744592592259        0.29666859131499
C            1.07990177247130       -8.04444889000773        0.91657972855932
C            1.88348546118963       -8.81611409740959        1.72137667771704
C            3.21034905227494       -8.44128625893211        1.91841768929141
C            3.72181817087647       -7.31702592277601        1.30991527509513
C            2.93554732023636       -6.50857387817269        0.47547373908728
C            3.45634492460442       -5.32725646608914       -0.19112842187110
C            4.79427754992211       -4.93547298314943       -0.06428984929064
C            5.29861504655390       -3.83324368807443       -0.71655151971497
C            4.47798353902422       -3.07530844783894       -1.54975525396042
C            3.15893398724688       -3.41943791318508       -1.69697558827175
C            2.61392596719070       -4.52487133206104       -1.01784208780230
C            1.25406912127210       -4.89772954914848       -1.11440921814644
N            0.19206877767391       -4.33717376562564       -1.76991905088651
C            0.08730656621549       -3.03838581102115       -2.29781979282337
C            0.29842295933964       -1.94079624465496       -1.46544193220790
C            0.15369541276686       -0.66010781321714       -1.94991719686345
C           -0.22600966123058       -0.44154553842865       -3.27753187749867
N           -0.39682505458590        0.85525902719360       -3.75369354465706
C            0.44738579342717        1.88494427327950       -3.30690658472497
C            1.81932515423552        1.66869404782235       -3.18583799450715
C            2.65000774011428        2.69460060925359       -2.77266041849762
C            2.12818406060579        3.94127221352616       -2.46569387178646
C            0.76403095670815        4.15662980274519       -2.57843636474639
C           -0.07337493489318        3.14075861062664       -2.99787238878208
C           -1.40925754745271        1.14598214354665       -4.67860714933126
C           -2.65144052584694        0.51767461512128       -4.58997665592061
C           -3.64269985295340        0.80726159884584       -5.50797502273753
C           -3.41781534465641        1.72921498984041       -6.51773055950471
C           -2.18820266177879        2.36200898845738       -6.60407130294807
C           -1.18748213598162        2.07352797641708       -5.69586960173083
C           -0.43909098695294       -1.54646134269520       -4.10655848343237
C           -0.28522272933968       -2.82984502835584       -3.62309172200556
C           -4.88434015520197       -3.68882491593539       -2.43144491312104
C           -5.90395126651062       -2.80502940161838       -2.29455119268960
C           -7.02713824221492       -0.36685231915191       -1.24582259088255
C           -7.38692652010812        0.80298648895905       -0.63844205588596
C           -5.99203249128478        1.79165360037836        1.82514489871319
C           -4.70813105753671        2.27911281194803        1.83344632678035
C           -2.54735755526314        5.25772102339067        1.64562407443221
C           -1.20641743615941        5.55968713379924        1.50880089399192
H            1.41738064564850        5.94866188320092        0.88971142038016
H            1.79281549412069        2.92105402998671        1.04424610876744
H            5.15391713079837        7.74219825264741        0.21866781445157
H            7.02105882314671        9.36253638184233       -0.07158504091256
H            9.34571859140826        8.52719106660896       -0.11234223132993
H            9.82033187417986        6.16768016863696        0.10872636321131
H           10.14868574605711        4.24260017676485        0.18752870938457
H           10.55305326509474        1.85909958800142        0.31402696037631
H            8.66437433600614        0.27716319065878        0.55112738274509
H            6.37395581807546        1.13338865615690        0.70696506983308
H            5.09939457588605        1.95632014666974        3.10511696960961
H            4.42800114688215       -0.30557254114782        3.81095778761050
H            0.80808125612240       -0.28861588756152        2.50715509880722
H           -1.55386489909769       -0.86633037107521        2.18716623324804
H           -2.22214697730572       -3.21356673524630        1.79437620867670
H           -0.49263355334251       -4.97305922593828        1.71209578197631
H            1.87799806919302       -4.39651455670993        1.98557499219757
H            2.22908861618479       -3.58056540231285        4.47295479827544
H            3.77035870231349       -5.08364359931246        5.65125086254815
H            6.15542103243921       -5.17280850208842        5.01386262073779
H            6.98025899248197       -3.74636779575715        3.17189547311591
H            5.43078772025779       -2.26655263183861        1.96603871854318
H            2.33398909552762       -0.82718827816969        0.12233213511645
H            3.01055504976613        1.43210551641747       -0.58474453030502
H           -0.13725234794773        2.64984000699207        0.17169388714527
H           -2.50256740739644        2.12237014747164        0.39798878066229
H           -5.33285551334998        5.45972234961443        0.88521069128696
H           -7.63205148393259        4.59773851827722        0.88440357803059
H          -10.74342734612816        1.45354665642813        0.36422903514437
H          -12.83888717259656        2.27572731183456        1.35205484247288
H          -12.78488614516544        3.78227641862496        3.30922401591719
H          -10.61270351817927        4.44868046507652        4.27926492299005
H           -8.51528985322183        3.60041972984357        3.31970409993772
H           -9.47136679777687       -0.42433339837927        1.73252075132310
H           -8.80773976054985       -2.51322015809908        0.67528908335404
H           -7.38717992599760       -4.10464909935497        0.46503459628850
H           -5.59656067975987       -5.72387350328320        0.19007872125470
H           -3.27859242068862       -6.11343158483422       -0.58326443968421
H           -2.28805619881841       -3.89645651123077       -2.46621511878754
H            0.04410904366502       -8.29481108146775        0.74314790892764
H            1.49276535788556       -9.70214403234031        2.19947114180438
H            3.84752162135975       -9.03864342591659        2.55459454900195
H            4.75454658502155       -7.06638245120348        1.49218710238965
H            5.46361158630098       -5.50656048558193        0.55814190172087
H            6.33689431963355       -3.56305840847734       -0.59193690593218
H            4.87911267589444       -2.22174164809866       -2.07664083695003
H            2.52508119375857       -2.84465703360793       -2.35404421704674
H            0.55285851266406       -2.11575733214583       -0.43064729978795
H            0.31081273817622        0.18516018104100       -1.29741295501274
H            2.22849193568698        0.69808637976986       -3.42785075028781
H            3.71596213096922        2.52471997227050       -2.70670382774057
H            2.77848878639823        4.73800322383599       -2.13820845543869
H            0.34921832049702        5.12230307394338       -2.33242653400198
H           -1.13605530291332        3.31125856287350       -3.08731906888773
H           -2.83242699738483       -0.19269307633817       -3.79602963452649
H           -4.60137200357854        0.31553118974802       -5.43135338826401
H           -4.19595574689397        1.95312848437568       -7.23175252997177
H           -2.00264608428095        3.07944948104319       -7.39002635560307
H           -0.22661082355976        2.56157094252829       -5.76987930734109
H           -0.72297425876831       -1.39086530062319       -5.13657441466495
H           -0.44102246162273       -3.67853606950012       -4.27312890428901
H           -4.25739439399945       -3.65616847569220       -3.31022040761227
H           -6.08010953216669       -2.08096856230785       -3.07601377006502
H           -6.35474680565657       -0.32121167798987       -2.08669104839603
H           -7.00432737399846        1.74340285653015       -1.00794325040601
H           -6.18545001998748        0.76484704463136        2.09923583915002
H           -3.89863034308128        1.63591214579565        2.14220995608223
H           -3.22135960856587        5.99455684413826        2.05824370207322
H           -0.84380406260962        6.53326548433182        1.80714983643561

          :  Hamiltonian                  GFN2-xTB          :
         :: gradient norm              0.000151844177 Eh/a0 ::
         :: HOMO-LUMO gap              0.206550720033 eV    ::
         :: SCC energy              -274.991663510928 Eh    ::
         :: -> dispersion             -0.284889068275 Eh    ::
         :: -> Gsolv                  -0.101960765543 Eh    ::
         :: repulsion energy           5.069490065475 Eh    ::

    * Orbital Energies and Occupations

         #    Occupation            Energy/Eh            Energy/eV
      -------------------------------------------------------------
         1        2.0000           -0.6869879             -18.6939
       ...           ...                  ...                  ...
       241        2.0000           -0.3994864             -10.8706
       242        2.0000           -0.3885385             -10.5727
       243        2.0000           -0.3844993             -10.4628
       244        2.0000           -0.3833512             -10.4315
       245        2.0000           -0.3804858             -10.3535
       246        2.0000           -0.3799408             -10.3387
       247        2.0000           -0.3773747             -10.2689
       248        2.0000           -0.3618613              -9.8467
       249        1.9999           -0.3580143              -9.7421
       250        1.9993           -0.3561958              -9.6926
       251        1.9981           -0.3553284              -9.6690
       252        1.0027           -0.3437523              -9.3540
       253        0.9819           -0.2851572              -7.7595 (HOMO)
       254        0.0181           -0.2775658              -7.5530 (LUMO)
       255                         -0.2542875              -6.9195
       256                         -0.2530119              -6.8848
       257                         -0.2515451              -6.8449
       258                         -0.2498991              -6.8001
       259                         -0.2434080              -6.6235
       260                         -0.2421533              -6.5893
       261                         -0.2417091              -6.5772
       262                         -0.2398566              -6.5268
       263                         -0.2392385              -6.5100
       264                         -0.2365331              -6.4364
       ...                                ...                  ...
       497                          0.7253771              19.7385
      -------------------------------------------------------------
                  HL-Gap            0.0075914 Eh            0.2066 eV

     #   Z          covCN         q      C6AA      α(0)
     1   6 C        2.903    -0.031    28.778     8.796
     2   6 C        2.899    -0.056    29.396     8.890
     3   6 C        3.179     0.138    24.606     8.099
     4   7 N        1.890    -0.317    29.056     7.991
     5   6 C        3.201     0.062    26.079     8.322
     6   6 C        2.984    -0.004    28.108     8.697
     7   6 C        2.921    -0.033    28.832     8.805
     8   6 C        2.917    -0.032    28.798     8.800
     9   6 C        2.917    -0.034    28.856     8.809
    10   6 C        2.921    -0.037    28.909     8.817
    11   6 C        2.978    -0.005    28.143     8.702
    12   6 C        2.979    -0.002    28.063     8.690
    13   6 C        2.922    -0.035    28.875     8.812
    14   6 C        2.916    -0.034    28.855     8.809
    15   6 C        2.916    -0.032    28.809     8.802
    16   6 C        2.919    -0.040    29.002     8.831
    17   6 C        2.978    -0.006    28.166     8.706
    18   6 C        3.069     0.024    27.396     8.582
    19   7 N        2.838    -0.055    22.310     7.015
    20   6 C        2.911     0.057    26.725     8.477
    21   6 C        2.920    -0.037    28.920     8.819
    22   6 C        2.921    -0.044    29.101     8.846
    23   6 C        2.925     0.068    26.484     8.440
    24   7 N        2.752    -0.078    22.756     7.085
    25   6 C        2.923     0.064    26.556     8.451
    26   6 C        2.922    -0.050    29.242     8.868
    27   6 C        2.919    -0.029    28.723     8.789
    28   6 C        2.918    -0.037    28.932     8.820
    29   6 C        2.919    -0.028    28.699     8.785
    30   6 C        2.922    -0.046    29.150     8.854
    31   6 C        2.922     0.064    26.563     8.452
    32   6 C        2.922    -0.048    29.182     8.859
    33   6 C        2.920    -0.029    28.731     8.790
    34   6 C        2.919    -0.038    28.953     8.824
    35   6 C        2.919    -0.029    28.726     8.789
    36   6 C        2.923    -0.047    29.176     8.858
    37   6 C        2.923    -0.046    29.138     8.852
    38   6 C        2.920    -0.042    29.034     8.836
    39   6 C        2.973     0.013    27.710     8.635
    40   6 C        2.923    -0.033    28.826     8.805
    41   6 C        2.925    -0.035    28.873     8.812
    42   6 C        2.976     0.009    27.815     8.651
    43   6 C        2.976     0.009    27.819     8.652
    44   6 C        2.922    -0.032    28.810     8.802
    45   6 C        2.917    -0.043    29.059     8.840
    46   6 C        2.944     0.062    26.620     8.462
    47   7 N        2.754    -0.053    22.266     7.008
    48   6 C        2.915     0.066    26.531     8.446
    49   6 C        2.922    -0.049    29.215     8.864
    50   6 C        2.919    -0.029    28.714     8.787
    51   6 C        2.918    -0.038    28.945     8.822
    52   6 C        2.919    -0.028    28.712     8.787
    53   6 C        2.922    -0.050    29.229     8.866
    54   6 C        2.943     0.057    26.731     8.480
    55   6 C        2.914    -0.044    29.086     8.844
    56   6 C        2.921    -0.037    28.915     8.818
    57   6 C        2.970     0.008    27.839     8.655
    58   6 C        2.973    -0.001    28.050     8.687
    59   6 C        2.916    -0.037    28.912     8.817
    60   6 C        2.918    -0.040    28.996     8.830
    61   6 C        2.970     0.009    27.805     8.649
    62   6 C        2.904    -0.041    29.020     8.833
    63   6 C        2.901    -0.069    29.710     8.937
    64   6 C        3.146     0.138    24.758     8.141
    65   7 N        1.879    -0.327    29.333     8.029
    66   6 C        3.179     0.079    25.837     8.299
    67   6 C        2.983    -0.007    28.181     8.708
    68   6 C        2.922    -0.031    28.762     8.795
    69   6 C        2.916    -0.033    28.812     8.802
    70   6 C        2.917    -0.032    28.793     8.799
    71   6 C        2.921    -0.036    28.897     8.815
    72   6 C        2.977    -0.004    28.121     8.699
    73   6 C        2.978    -0.003    28.094     8.694
    74   6 C        2.921    -0.033    28.830     8.805
    75   6 C        2.916    -0.034    28.841     8.807
    76   6 C        2.915    -0.033    28.815     8.802
    77   6 C        2.919    -0.039    28.963     8.825
    78   6 C        2.976    -0.010    28.268     8.721
    79   6 C        3.048     0.037    27.128     8.542
    80   7 N        2.824    -0.073    22.658     7.070
    81   6 C        2.911     0.057    26.730     8.478
    82   6 C        2.921    -0.038    28.955     8.824
    83   6 C        2.922    -0.046    29.152     8.854
    84   6 C        2.922     0.066    26.523     8.445
    85   7 N        2.752    -0.072    22.633     7.066
    86   6 C        2.924     0.064    26.562     8.452
    87   6 C        2.921    -0.047    29.165     8.856
    88   6 C        2.919    -0.029    28.716     8.788
    89   6 C        2.918    -0.035    28.860     8.810
    90   6 C        2.920    -0.026    28.641     8.776
    91   6 C        2.922    -0.043    29.078     8.843
    92   6 C        2.924     0.064    26.577     8.454
    93   6 C        2.922    -0.047    29.167     8.857
    94   6 C        2.919    -0.029    28.720     8.788
    95   6 C        2.919    -0.038    28.933     8.821
    96   6 C        2.919    -0.029    28.720     8.788
    97   6 C        2.922    -0.047    29.160     8.855
    98   6 C        2.922    -0.048    29.182     8.859
    99   6 C        2.919    -0.041    29.010     8.832
   100   6 C        2.916    -0.040    29.001     8.831
   101   6 C        2.917    -0.037    28.918     8.818
   102   6 C        2.925    -0.038    28.939     8.822
   103   6 C        2.920    -0.045    29.114     8.848
   104   6 C        2.922    -0.042    29.048     8.838
   105   6 C        2.927    -0.033    28.832     8.806
   106   6 C        2.919    -0.034    28.849     8.808
   107   6 C        2.923    -0.034    28.853     8.809
   108   1 H        0.926     0.052     2.294     2.369
   109   1 H        0.926     0.036     2.507     2.476
   110   1 H        0.926     0.044     2.402     2.424
   111   1 H        0.926     0.032     2.553     2.499
   112   1 H        0.926     0.032     2.564     2.504
   113   1 H        0.926     0.034     2.530     2.487
   114   1 H        0.926     0.036     2.496     2.471
   115   1 H        0.926     0.032     2.555     2.500
   116   1 H        0.926     0.031     2.577     2.510
   117   1 H        0.926     0.027     2.625     2.534
   118   1 H        0.926     0.043     2.404     2.425
   119   1 H        0.926     0.045     2.377     2.411
   120   1 H        0.926     0.031     2.569     2.507
   121   1 H        0.926     0.036     2.500     2.472
   122   1 H        0.926     0.030     2.583     2.513
   123   1 H        0.926     0.030     2.580     2.512
   124   1 H        0.926     0.026     2.637     2.540
   125   1 H        0.926     0.031     2.568     2.506
   126   1 H        0.926     0.035     2.518     2.481
   127   1 H        0.926     0.035     2.523     2.484
   128   1 H        0.926     0.035     2.511     2.478
   129   1 H        0.926     0.030     2.585     2.514
   130   1 H        0.926     0.045     2.385     2.415
   131   1 H        0.926     0.048     2.349     2.397
   132   1 H        0.926     0.028     2.613     2.528
   133   1 H        0.926     0.035     2.516     2.481
   134   1 H        0.926     0.044     2.397     2.421
   135   1 H        0.926     0.042     2.419     2.432
   136   1 H        0.926     0.036     2.500     2.473
   137   1 H        0.926     0.035     2.512     2.479
   138   1 H        0.926     0.033     2.541     2.493
   139   1 H        0.926     0.035     2.514     2.479
   140   1 H        0.926     0.035     2.520     2.482
   141   1 H        0.926     0.037     2.489     2.467
   142   1 H        0.926     0.038     2.476     2.461
   143   1 H        0.926     0.032     2.560     2.502
   144   1 H        0.926     0.028     2.615     2.529
   145   1 H        0.926     0.037     2.487     2.466
   146   1 H        0.926     0.030     2.582     2.513
   147   1 H        0.926     0.044     2.399     2.422
   148   1 H        0.926     0.034     2.530     2.487
   149   1 H        0.926     0.034     2.531     2.488
   150   1 H        0.926     0.034     2.526     2.485
   151   1 H        0.926     0.035     2.512     2.479
   152   1 H        0.926     0.031     2.566     2.505
   153   1 H        0.926     0.030     2.591     2.517
   154   1 H        0.926     0.026     2.650     2.546
   155   1 H        0.926     0.035     2.514     2.479
   156   1 H        0.926     0.041     2.433     2.439
   157   1 H        0.926     0.033     2.550     2.497
   158   1 H        0.925     0.030     2.592     2.518
   159   1 H        0.926     0.032     2.558     2.501
   160   1 H        0.926     0.037     2.488     2.467
   161   1 H        0.926     0.037     2.485     2.465
   162   1 H        0.926     0.032     2.557     2.501
   163   1 H        0.926     0.035     2.511     2.478
   164   1 H        0.926     0.035     2.518     2.481
   165   1 H        0.926     0.036     2.504     2.474
   166   1 H        0.926     0.033     2.542     2.493
   167   1 H        0.926     0.045     2.385     2.415
   168   1 H        0.926     0.043     2.414     2.430
   169   1 H        0.926     0.027     2.631     2.537
   170   1 H        0.926     0.031     2.567     2.505
   171   1 H        0.926     0.040     2.453     2.449
   172   1 H        0.926     0.034     2.531     2.488
   173   1 H        0.926     0.036     2.500     2.473
   174   1 H        0.926     0.040     2.449     2.447
   175   1 H        0.926     0.038     2.480     2.463
   176   1 H        0.926     0.037     2.495     2.470

molecular dipole:
                 x           y           z       tot (Debye)
 q only:       -1.888       1.589       0.265
   full:       -1.389       1.432       0.276       5.118

 projected vibrational frequencies (cm⁻¹)
eigval :       -0.00    -0.00    -0.00     0.00     0.00     0.00
eigval :        4.97     8.12    10.93    13.15    15.60    18.77
eigval :       20.94    21.27    22.37    24.98    26.48    27.87
eigval :       33.80    34.19    37.33    38.10    43.47    45.26
eigval :       47.48    48.43    53.16    55.35    56.97    57.92
eigval :       59.65    60.52    63.51    70.88    76.84    78.62
eigval :       80.25    82.23    83.49    86.87    87.45    89.36
eigval :       94.24    97.33   102.10   107.58   108.43   111.36
eigval :      118.26   130.69   137.88   139.84   148.41   155.77
eigval :      161.65   166.70   171.24   174.88   180.00   183.28
eigval :      187.03   192.10   208.38   211.09   212.69   218.82
eigval :      226.26   232.68   236.28   236.56   242.91   249.28
eigval :      251.88   258.61   262.36   266.67   282.89   290.47
eigval :      298.32   302.62   305.23   307.01   315.96   318.48
eigval :      335.29   341.81   343.32   348.31   351.22   362.23
eigval :      367.25   369.16   370.56   372.12   378.48   379.88
eigval :      380.23   381.50   382.51   384.33   387.34   388.28
eigval :      389.52   390.85   391.13   396.08   397.61   399.89
eigval :      403.59   411.91   413.26   419.49   420.67   426.61
eigval :      429.11   441.51   445.38   446.54   452.75   458.32
eigval :      464.88   472.16   474.57   479.43   481.13   488.85
eigval :      493.73   495.03   502.43   506.36   507.30   509.81
eigval :      512.55   519.12   523.52   526.03   531.56   535.62
eigval :      541.70   570.17   574.92   580.75   581.54   584.07
eigval :      585.01   586.18   586.71   587.80   589.35   591.85
eigval :      592.82   601.08   603.94   607.39   610.91   611.56
eigval :      616.82   622.07   632.15   638.76   640.53   644.09
eigval :      649.15   654.04   656.12   659.32   660.00   661.84
eigval :      663.17   664.56   668.02   669.02   672.61   673.70
eigval :      675.90   675.98   676.43   681.08   685.08   696.55
eigval :      702.83   703.42   721.93   726.53   730.94   731.21
eigval :      733.62   748.47   753.02   755.66   756.35   757.74
eigval :      760.19   762.29   762.82   763.80   764.74   765.28
eigval :      773.23   780.15   781.59   789.97   798.11   806.28
eigval :      808.46   815.78   819.80   828.45   830.56   845.50
eigval :      848.54   860.77   861.33   861.92   863.95   865.42
eigval :      865.84   866.73   870.26   872.61   873.91   874.31
eigval :      874.36   874.70   877.79   878.70   879.53   885.88
eigval :      890.68   892.67   894.23   897.36   897.80   902.91
eigval :      904.71   906.88   908.00   909.23   909.59   911.34
eigval :      912.86   913.37   914.45   915.10   915.30   916.33
eigval :      917.04   917.85   918.29   919.44   919.98   922.33
eigval :      923.40   923.79   924.32   924.87   925.53   926.17
eigval :      926.27   927.84   928.26   928.96   929.70   929.73
eigval :      931.02   932.99   933.11   940.35   941.16   945.04
eigval :      958.80   978.27   979.48   980.92   982.38   995.12
eigval :      998.93  1004.16  1004.60  1005.45  1007.80  1009.43
eigval :     1015.34  1019.17  1041.36  1043.12  1061.02  1077.51
eigval :     1079.69  1080.46  1081.28  1081.54  1083.37  1083.45
eigval :     1084.26  1086.26  1086.50  1103.81  1105.68  1120.42
eigval :     1121.07  1121.22  1122.10  1124.48  1125.05  1131.63
eigval :     1133.11  1134.81  1140.80  1142.06  1145.98  1146.82
eigval :     1158.73  1161.13  1164.63  1173.52  1176.99  1177.73
eigval :     1178.23  1178.30  1179.09  1179.37  1180.16  1180.51
eigval :     1181.57  1182.65  1183.47  1184.31  1184.82  1188.16
eigval :     1190.44  1191.15  1193.63  1194.48  1195.89  1201.44
eigval :     1202.94  1209.29  1211.52  1215.57  1216.08  1219.12
eigval :     1223.11  1240.12  1248.03  1251.63  1254.68  1255.55
eigval :     1262.10  1263.69  1265.80  1266.26  1268.05  1274.04
eigval :     1276.06  1276.95  1277.67  1280.01  1280.47  1281.24
eigval :     1282.49  1283.84  1284.34  1288.97  1297.68  1303.86
eigval :     1305.81  1307.79  1309.38  1312.66  1314.09  1314.63
eigval :     1316.76  1320.01  1321.87  1321.96  1323.54  1324.18
eigval :     1325.82  1326.25  1327.93  1333.04  1334.09  1337.02
eigval :     1337.86  1338.76  1341.39  1349.44  1352.09  1367.44
eigval :     1378.58  1395.07  1396.46  1396.95  1403.74  1411.29
eigval :     1411.40  1413.51  1414.66  1418.42  1424.56  1430.70
eigval :     1432.86  1433.87  1434.63  1435.77  1435.88  1436.89
eigval :     1439.55  1441.16  1441.99  1446.93  1455.84  1463.50
eigval :     1466.68  1469.02  1470.57  1471.54  1473.80  1477.67
eigval :     1478.80  1480.34  1485.30  1492.89  1498.70  1501.27
eigval :     1504.28  1512.34  1530.23  1536.46  1540.40  1545.61
eigval :     1547.29  1548.87  1548.97  1552.99  1554.65  1559.37
eigval :     1563.48  1569.95  1570.28  1575.55  1575.86  1578.24
eigval :     1579.74  1580.56  1586.27  1587.74  1589.21  1589.74
eigval :     1589.91  1590.59  1591.59  1591.95  1591.99  1596.29
eigval :     1598.82  1601.61  1618.20  3063.74  3064.29  3068.66
eigval :     3068.87  3070.13  3070.85  3071.69  3072.39  3072.77
eigval :     3073.23  3073.30  3073.92  3074.02  3074.54  3074.67
eigval :     3074.92  3075.29  3075.36  3078.48  3078.58  3080.10
eigval :     3080.86  3081.04  3081.12  3081.69  3081.84  3082.03
eigval :     3082.24  3082.40  3082.58  3082.96  3083.35  3083.74
eigval :     3084.16  3084.27  3085.35  3085.50  3086.05  3086.37
eigval :     3087.71  3089.01  3089.05  3089.45  3089.60  3091.09
eigval :     3092.18  3092.41  3092.83  3093.51  3094.36  3095.31
eigval :     3095.52  3095.53  3095.91  3096.04  3096.27  3097.10
eigval :     3097.21  3098.20  3100.39  3100.63  3102.18  3102.80
eigval :     3106.17  3107.00  3109.07  3111.58  3112.26  3117.55

   temp. (K)  partition function   enthalpy   heat capacity  entropy
                                   cal/mol     cal/K/mol   cal/K/mol   J/K/mol
 298.15  VIB  0.672E+43            52687.735    326.138    332.500
         ROT  0.671E+09              888.752      2.981     43.372
         INT  0.452E+52            53576.487    329.119    375.872
         TR   0.490E+29             1481.254      4.968     47.495
         TOT                       55057.7413   334.0874   423.3674  1771.3693

       T/K    H(0)-H(T)+PV         H(T)/Eh          T*S/Eh         G(T)/Eh
   ------------------------------------------------------------------------
    298.15    0.877401E-01    0.144722E+01    0.201156E+00    0.124606E+01
   ------------------------------------------------------------------------

         :::::::::::::::::::::::::::::::::::::::::::::::::::::
         ::                  THERMODYNAMIC                  ::
         :::::::::::::::::::::::::::::::::::::::::::::::::::::
         :: total free energy        -268.676109962463 Eh   ::
         ::.................................................::
         :: total energy             -269.922173449041 Eh   ::
         :: zero point energy           1.359478912982 Eh   ::
         :: G(RRHO) w/o ZPVE           -0.113415426404 Eh   ::
         :: G(RRHO) contrib.            1.246063486578 Eh   ::
         :::::::::::::::::::::::::::::::::::::::::::::::::::::

           -------------------------------------------------
          | TOTAL ENERGY             -269.922173449041 Eh   |
          | TOTAL ENTHALPY           -268.474954440388 Eh   |
          | TOTAL FREE ENERGY        -268.676109962463 Eh   |
          | GRADIENT NORM               0.000151942734 Eh/α |
          | HOMO-LUMO GAP               0.206572117977 eV   |
           -------------------------------------------------

 * finished run on 2025/09/07 at 14:38:11.883
