   * xtb version 6.7.1 (edcfbbe) compiled by 'albert@albert-system' on 2024-07-22

   ID    Z sym.   atoms
    1    6 C      1-3, 5-18, 20-23, 25-46, 48-64, 66-79, 81-84, 86-107
    2    7 N      4, 19, 24, 47, 65, 80, 85
    3    1 H      108-176

          program call               : xtb data2507/toluene/TPA–2SPPITPA/TPA–2SPPITPA_toluene_T1_crest.xyz --gfn 2 --uhf 2 --gbsa toluene --ohess vtight --parallel 40 --molden --ceasefiles --namespace data2507/toluene/TPA–2SPPITPA/TPA–2SPPITPA_toluene_T1_finalOpt
      * Solvation model:               GBSA
        Solvent                        toluene
        Solvent mass                       9.2140E+01 g/mol
          :  Hamiltonian                  GFN2-xTB          :
 * total energy  :  -269.9199519 Eh     change       -0.2426168E-07 Eh
 * total energy  :  -269.9201513 Eh     change       -0.1994779E-03 Eh
 * total energy  :  -269.9204089 Eh     change       -0.2575963E-03 Eh
 * total energy  :  -269.9205364 Eh     change       -0.1274979E-03 Eh
 * total energy  :  -269.9207357 Eh     change       -0.1992689E-03 Eh
 * total energy  :  -269.9209157 Eh     change       -0.1799695E-03 Eh
 * total energy  :  -269.9210581 Eh     change       -0.1424581E-03 Eh
 * total energy  :  -269.9211483 Eh     change       -0.9020458E-04 Eh
 * total energy  :  -269.9212162 Eh     change       -0.6785631E-04 Eh
 * total energy  :  -269.9212780 Eh     change       -0.6176432E-04 Eh
 * total energy  :  -269.9224906 Eh     change       -0.1193564E-05 Eh
 * total energy  :  -269.9224919 Eh     change       -0.1286824E-05 Eh
 * total energy  :  -269.9224931 Eh     change       -0.1245124E-05 Eh
 * total energy  :  -269.9224942 Eh     change       -0.1055861E-05 Eh
 * total energy  :  -269.9224950 Eh     change       -0.7850367E-06 Eh
 * total energy  :  -269.9224957 Eh     change       -0.6742727E-06 Eh
 * total energy  :  -269.9224958 Eh     change       -0.1407936E-06 Eh
 * total energy  :  -269.9224967 Eh     change       -0.8535583E-06 Eh
 * total energy  :  -269.9224967 Eh     change       -0.8940162E-07 Eh
   *** GEOMETRY OPTIMIZATION CONVERGED AFTER 70 ITERATIONS ***

 final structure:
================
176
 xtb: 6.7.1 (edcfbbe)
C           -0.81289792875587        4.91083618405007        2.03121054253586
C            0.10814823082096        3.94736523348198        2.19771507669722
C            1.51751200986817        4.11874787644654        2.01121241897144
N            2.15947891615466        5.26513574581829        1.96056402047647
C            3.47228699716376        4.95014303204658        1.82517379608465
C            4.58080452560580        5.84168377274293        1.77796005527803
C            4.40241766223809        7.22691304666663        1.86334371501344
C            5.48568040893245        8.07020401838581        1.85368217306880
C            6.76903121015278        7.53339234192070        1.76804000924098
C            6.95644644873488        6.17334110424143        1.68001185503482
C            5.87377114002278        5.27994471980424        1.67033765488787
C            6.03881340665492        3.84296524323927        1.53412074427896
C            7.30004342602026        3.26289266407162        1.33735328459244
C            7.46326105551970        1.90813610253368        1.16800347406413
C            6.35634747136683        1.06555349663020        1.17825021342556
C            5.10474478694223        1.59394462954366        1.37539798640704
C            4.91708902132575        2.97008556122930        1.56902612379073
C            3.64123061588729        3.56471757313130        1.77656612812362
N            2.37675832042434        3.03977663083667        1.90223457080817
C            1.96858051971958        1.69102615462915        1.96350889596714
C            2.41386295153930        0.86089866308106        2.99002046225366
C            1.99016477652097       -0.44977188855211        3.05763868554228
C            1.09880073156534       -0.96253062962847        2.10948004193783
N            0.65727663314734       -2.28273382895782        2.18307513312624
C           -0.68144615813192       -2.58987778271628        1.88333518203362
C           -1.70103640858064       -1.70086547041032        2.22286642692543
C           -3.01809191396287       -2.01411900135788        1.94650233376532
C           -3.34192886805379       -3.22171918234916        1.35146080887709
C           -2.33252995313913       -4.10933518488072        1.01881138767525
C           -1.01011462364682       -3.79649055556810        1.26823589023729
C            1.52361122659154       -3.29538390067709        2.61956393953339
C            1.05236623630591       -4.35073863787355        3.40012802819645
C            1.91081796741581       -5.35074798282113        3.81376701841546
C            3.25280767906388       -5.31293947136125        3.47310056207934
C            3.73088985941899       -4.26088804820476        2.71106736228596
C            2.87594755183009       -3.26515460887276        2.28165647254112
C            0.64431575114453       -0.11764314257583        1.09352779426336
C            1.07336634714873        1.19137705270693        1.02178041925505
C           -2.23434071513424        4.63683826953347        2.13710908130549
C           -2.72714661410636        3.66645015620977        3.01523337060688
C           -4.03306987301119        3.24068779187395        2.93461819908182
C           -4.89679880237651        3.75040905331605        1.96018307337083
C           -6.14396250163818        3.05058110979764        1.63522541933485
C           -6.12115239783882        1.65380702995752        1.68066770849808
C           -7.15250290864281        0.91308590578437        1.15950603782946
C           -8.25348669311972        1.54051360689907        0.57155357680880
N           -9.13682453658120        0.72309225593268       -0.16452769058567
C          -10.50202330452220        0.67656503070333        0.01614542743549
C          -11.31321014730492        0.05234040086709       -0.93723912651477
C          -12.68095848130326        0.00402409422541       -0.76093831496842
C          -13.26807783444237        0.58185164820974        0.35465267964053
C          -12.46908513405183        1.20641643564499        1.30021054592764
C          -11.09871533490814        1.25327012411113        1.14154663786136
C           -8.41695891817541       -0.14092239084334       -1.00990113790165
C           -8.44493384470610       -1.53509076341671       -0.89727776864775
C           -7.43293288666298       -2.28804163197519       -1.44636733536740
C           -6.35831761537952       -1.69543519822745       -2.14517662713782
C           -5.11917175881951       -2.38341848477794       -2.38361155529233
C           -4.96417851537041       -3.78877461843121       -2.26992555225245
C           -3.73502723054234       -4.37480871791088       -2.24199987161298
C           -2.53012538768543       -3.61140179547741       -2.30986822930445
C           -1.28957541230374       -4.19715929723003       -2.06933556279544
C           -0.06187007748278       -3.51546097618778       -2.06106501249405
C            1.12149360266606       -4.07013073497814       -1.61196141377517
N            1.25836625442586       -5.27143603868580       -1.02544678103242
C            2.54019819759660       -5.36922964397539       -0.66515180526497
C            3.16835670993295       -6.44537366799891        0.02708708055529
C            2.42790811766637       -7.54765373249957        0.46347519395157
C            3.03539843032826       -8.56624012113243        1.15803006049231
C            4.39885856756278       -8.48639372324251        1.42865386454064
C            5.13952208990887       -7.40773470631796        0.99924257443422
C            4.55699996856737       -6.35509031605533        0.27867715532267
C            5.31980462766695       -5.22258719393666       -0.21783516898344
C            6.71182054641600       -5.15722599112565       -0.08442329747207
C            7.44856465253687       -4.10803410343631       -0.58725335958772
C            6.81299320744268       -3.07262519941252       -1.26993139472071
C            5.44970338749089       -3.09227618713996       -1.41757878236966
C            4.67296214416851       -4.14214130747944       -0.89146219098101
C            3.26949966880066       -4.21700039023915       -1.04270308699035
N            2.35817045332703       -3.38869730000420       -1.64286461026803
C            2.49796199765916       -2.05368167247535       -2.04930157214775
C            2.95437524447322       -1.08415298485318       -1.15690685269925
C            3.00789669936627        0.24069958793061       -1.52618034652552
C            2.59478287788260        0.64355434859625       -2.79927544117259
N            2.59284585261744        1.98868574669299       -3.14839876509120
C            3.53478803150422        2.87330956630494       -2.59669181659091
C            4.86962194222040        2.49553439478385       -2.46150013315883
C            5.79398540720268        3.38566334910558       -1.94999777383700
C            5.40555433150720        4.66000075364714       -1.57092242941638
C            4.07759641542723        5.03511853427161       -1.68954753446978
C            3.14506702840296        4.15057322322393       -2.19638006494090
C            1.63345109263664        2.49134009609978       -4.04226476960620
C            0.31261405941999        2.04755499145487       -3.99245244311316
C           -0.62389901173429        2.54792634192997       -4.87673383033681
C           -0.26280442875583        3.50182144166911       -5.81447323587252
C            1.04632214339395        3.95358182221550       -5.86132704600058
C            1.99149297886196        3.45274898973485       -4.98636458689222
C            2.17502548687885       -0.33611472780329       -3.70520248980465
C            2.12508504911977       -1.66320106712216       -3.33518450469680
C           -2.69893508558330       -2.21874188442827       -2.56374594098722
C           -3.92846909473177       -1.64199681024759       -2.59577585938535
C           -6.49653692805742       -0.32237631427870       -2.45115836298787
C           -7.47640289189056        0.43639156733802       -1.87282440499757
C           -8.34102912372197        2.92998649030548        0.62290294089510
C           -7.29322705610184        3.67027507435194        1.14281312459794
C           -4.44603442830090        4.81852212146552        1.18265404732193
C           -3.14283154180837        5.26342815371940        1.27978788801915
H           -0.49996740963437        5.89341592254326        1.70786106719149
H           -0.20534614887432        2.94357029515254        2.45242372049632
H            3.39298008295316        7.60135941583879        1.94173915286593
H            5.34974745207402        9.13979331933744        1.91902585197189
H            7.62610606002323        8.19158719164275        1.77126942296794
H            7.96778915373787        5.80341709088855        1.61957689390344
H            8.17822256985972        3.88738328063265        1.30603603651503
H            8.45157976750693        1.49829944125603        1.01865307518340
H            6.47891676467424        0.00255084791068        1.03250293965905
H            4.24794821828910        0.93936933594800        1.37756048283010
H            3.09181978792324        1.25182729137755        3.73483619173156
H            2.33750132502585       -1.08477016579089        3.85873839151930
H           -1.45603406170375       -0.76757151769107        2.70929062074621
H           -3.79806953573736       -1.31722927980264        2.21429623638594
H           -4.37206686103997       -3.46798947052886        1.14518931530266
H           -2.57344994624518       -5.05239410460855        0.55387744139899
H           -0.22822011437307       -4.48367596287509        0.98156604737991
H            0.00999132016681       -4.38011889890928        3.68085894335487
H            1.52891230682702       -6.16293063333017        4.41449583398621
H            3.92027513361969       -6.09639255639024        3.79659298977600
H            4.77490570381337       -4.21693126176724        2.43863959311979
H            3.25910611618200       -2.45237474697593        1.68268088483146
H           -0.04714530808035       -0.49878706455564        0.35779308190381
H            0.72178105028647        1.83498072295809        0.22922470730067
H           -2.06895679048615        3.23742105040037        3.75660637336498
H           -4.38821854429178        2.48650461460368        3.62175199871189
H           -5.25410664998209        1.14631040552845        2.07300828142191
H           -7.09870038384921       -0.16531809714607        1.16277862772992
H          -10.85858589228746       -0.38228250628346       -1.81542516669960
H          -13.29625870506160       -0.48078689451098       -1.50505719144751
H          -14.33896491553183        0.54534406525243        0.48605546989845
H          -12.91789459454082        1.65482001591120        2.17479930037252
H          -10.47869487557390        1.72379509515032        1.89019750363130
H           -9.21194871181407       -2.00656099515905       -0.29934828810691
H           -7.42382073438321       -3.35023794852043       -1.25709430487406
H           -5.84300849039539       -4.41364076036972       -2.20409799351502
H           -3.65089487285121       -5.44796588204369       -2.13902148318771
H           -1.25341604416049       -5.24899001875319       -1.82326901331576
H           -0.02154817858794       -2.49051273352950       -2.39477629105606
H            1.37199382894603       -7.56568352498597        0.24034255481761
H            2.46352950142761       -9.41776141521184        1.49587807802918
H            4.88283832456334       -9.27882326409770        1.98162632439849
H            6.19105769969555       -7.38706550477219        1.23828865620538
H            7.24008496152400       -5.95360791071783        0.41492668664060
H            8.52153296099463       -4.09511096012884       -0.46454186489579
H            7.39156598052412       -2.26075143372912       -1.68601024488646
H            4.96140722517360       -2.29963046119970       -1.96243421037458
H            3.25157967295789       -1.37788937102908       -0.16208429546512
H            3.35033946794616        0.98177780177997       -0.82112610953976
H            5.17671802275137        1.50662861857409       -2.76958537372916
H            6.82657535757077        3.08508382690331       -1.85524509858698
H            6.13114601072336        5.35729710622614       -1.18244478568931
H            3.76495080532088        6.02108563538758       -1.37930573258476
H            2.10915946412100        4.44417533120820       -2.28771649487631
H            0.02595567384714        1.31249500332486       -3.25487989217376
H           -1.64382784400033        2.19572001293810       -4.82668354461023
H           -0.99719779607343        3.89227169654567       -6.50254355028925
H            1.33701596239150        4.69605497267095       -6.58986078496593
H            3.01320389613845        3.80080957473311       -5.02789876483984
H            1.88751417364003       -0.04842075649749       -4.70528025697250
H            1.80694646891504       -2.41149808355004       -4.04627342711014
H           -1.82720658517390       -1.59803012023539       -2.70031573644252
H           -3.98475416597590       -0.57314523505722       -2.73013979413129
H           -5.80593124807422        0.15280274668198       -3.12902748134882
H           -7.51686287585501        1.50160237975317       -2.04986752700277
H           -9.20424874250118        3.42812218207291        0.20574162727713
H           -7.35963783319837        4.74840263665994        1.14211120662147
H           -5.10584912348877        5.26039821336624        0.45042991118258
H           -2.79669776506109        6.05689511232392        0.63276240976546

          :  Hamiltonian                  GFN2-xTB          :
         :: gradient norm              0.000140872627 Eh/a0 ::
         :: HOMO-LUMO gap              0.260329811430 eV    ::
         :: SCC energy              -274.995947721598 Eh    ::
         :: -> dispersion             -0.293003497755 Eh    ::
         :: -> Gsolv                  -0.097224050179 Eh    ::
         :: repulsion energy           5.073450783818 Eh    ::

    * Orbital Energies and Occupations

         #    Occupation            Energy/Eh            Energy/eV
      -------------------------------------------------------------
         1        2.0000           -0.6873436             -18.7036
       ...           ...                  ...                  ...
       241        2.0000           -0.3980539             -10.8316
       242        2.0000           -0.3871939             -10.5361
       243        2.0000           -0.3845349             -10.4637
       244        2.0000           -0.3837635             -10.4427
       245        2.0000           -0.3810159             -10.3680
       246        2.0000           -0.3802070             -10.3460
       247        2.0000           -0.3777332             -10.2786
       248        2.0000           -0.3622437              -9.8572
       249        1.9999           -0.3580284              -9.7424
       250        1.9991           -0.3561288              -9.6908
       251        1.9952           -0.3544944              -9.6463
       252        1.0058           -0.3445331              -9.3752
       253        0.9935           -0.2858344              -7.7780 (HOMO)
       254        0.0065           -0.2762686              -7.5177 (LUMO)
       255                         -0.2552683              -6.9462
       256                         -0.2535578              -6.8997
       257                         -0.2515577              -6.8452
       258                         -0.2501544              -6.8070
       259                         -0.2433280              -6.6213
       260                         -0.2429312              -6.6105
       261                         -0.2410742              -6.5600
       262                         -0.2394018              -6.5145
       263                         -0.2377143              -6.4685
       264                         -0.2357617              -6.4154
       ...                                ...                  ...
       497                          0.7259112              19.7531
      -------------------------------------------------------------
                  HL-Gap            0.0095658 Eh            0.2603 eV

     #   Z          covCN         q      C6AA      α(0)
     1   6 C        2.903    -0.030    28.757     8.793
     2   6 C        2.900    -0.056    29.380     8.887
     3   6 C        3.183     0.137    24.603     8.096
     4   7 N        1.890    -0.316    29.031     7.988
     5   6 C        3.205     0.062    26.027     8.309
     6   6 C        2.985    -0.002    28.079     8.692
     7   6 C        2.921    -0.033    28.821     8.804
     8   6 C        2.917    -0.032    28.795     8.799
     9   6 C        2.917    -0.034    28.857     8.809
    10   6 C        2.921    -0.036    28.903     8.816
    11   6 C        2.979    -0.003    28.105     8.696
    12   6 C        2.980    -0.001    28.037     8.686
    13   6 C        2.922    -0.034    28.851     8.808
    14   6 C        2.917    -0.034    28.843     8.807
    15   6 C        2.917    -0.032    28.789     8.799
    16   6 C        2.920    -0.041    29.016     8.833
    17   6 C        2.978    -0.006    28.175     8.707
    18   6 C        3.068     0.024    27.412     8.585
    19   7 N        2.839    -0.055    22.308     7.015
    20   6 C        2.910     0.055    26.772     8.484
    21   6 C        2.919    -0.038    28.933     8.821
    22   6 C        2.922    -0.047    29.171     8.857
    23   6 C        2.921     0.068    26.467     8.437
    24   7 N        2.751    -0.078    22.749     7.084
    25   6 C        2.924     0.063    26.584     8.455
    26   6 C        2.922    -0.049    29.222     8.865
    27   6 C        2.920    -0.030    28.742     8.792
    28   6 C        2.919    -0.036    28.902     8.816
    29   6 C        2.921    -0.027    28.668     8.780
    30   6 C        2.922    -0.045    29.115     8.849
    31   6 C        2.922     0.066    26.531     8.447
    32   6 C        2.923    -0.047    29.171     8.857
    33   6 C        2.920    -0.029    28.713     8.787
    34   6 C        2.919    -0.037    28.913     8.818
    35   6 C        2.919    -0.029    28.718     8.788
    36   6 C        2.924    -0.046    29.154     8.855
    37   6 C        2.922    -0.045    29.112     8.848
    38   6 C        2.920    -0.038    28.942     8.822
    39   6 C        2.976     0.014    27.704     8.634
    40   6 C        2.923    -0.035    28.871     8.812
    41   6 C        2.923    -0.035    28.874     8.812
    42   6 C        2.978     0.009    27.803     8.649
    43   6 C        2.975     0.009    27.810     8.650
    44   6 C        2.929    -0.034    28.839     8.807
    45   6 C        2.924    -0.043    29.066     8.841
    46   6 C        2.953     0.062    26.601     8.459
    47   7 N        2.755    -0.060    22.396     7.029
    48   6 C        2.913     0.067    26.496     8.441
    49   6 C        2.922    -0.051    29.267     8.872
    50   6 C        2.919    -0.029    28.725     8.789
    51   6 C        2.918    -0.040    28.992     8.830
    52   6 C        2.919    -0.029    28.724     8.789
    53   6 C        2.921    -0.052    29.291     8.875
    54   6 C        2.954     0.056    26.739     8.481
    55   6 C        2.914    -0.043    29.069     8.841
    56   6 C        2.923    -0.037    28.912     8.818
    57   6 C        2.971     0.008    27.831     8.653
    58   6 C        2.970    -0.000    28.031     8.685
    59   6 C        2.914    -0.036    28.887     8.813
    60   6 C        2.918    -0.038    28.956     8.824
    61   6 C        2.965     0.009    27.813     8.650
    62   6 C        2.906    -0.041    29.020     8.833
    63   6 C        2.898    -0.068    29.698     8.935
    64   6 C        3.142     0.138    24.762     8.142
    65   7 N        1.879    -0.330    29.402     8.038
    66   6 C        3.177     0.080    25.829     8.299
    67   6 C        2.984    -0.008    28.201     8.711
    68   6 C        2.922    -0.030    28.742     8.792
    69   6 C        2.916    -0.032    28.807     8.801
    70   6 C        2.917    -0.031    28.785     8.798
    71   6 C        2.922    -0.035    28.882     8.813
    72   6 C        2.978    -0.002    28.081     8.692
    73   6 C        2.978    -0.003    28.084     8.693
    74   6 C        2.921    -0.035    28.864     8.810
    75   6 C        2.916    -0.035    28.876     8.812
    76   6 C        2.915    -0.033    28.826     8.804
    77   6 C        2.919    -0.039    28.972     8.827
    78   6 C        2.976    -0.010    28.273     8.722
    79   6 C        3.043     0.036    27.165     8.548
    80   7 N        2.821    -0.069    22.584     7.058
    81   6 C        2.908     0.055    26.757     8.482
    82   6 C        2.921    -0.037    28.927     8.820
    83   6 C        2.922    -0.048    29.204     8.862
    84   6 C        2.921     0.065    26.542     8.448
    85   7 N        2.752    -0.073    22.652     7.069
    86   6 C        2.925     0.064    26.576     8.454
    87   6 C        2.922    -0.047    29.156     8.855
    88   6 C        2.920    -0.028    28.697     8.785
    89   6 C        2.919    -0.035    28.863     8.810
    90   6 C        2.919    -0.027    28.686     8.783
    91   6 C        2.922    -0.045    29.127     8.850
    92   6 C        2.925     0.064    26.576     8.454
    93   6 C        2.922    -0.046    29.148     8.854
    94   6 C        2.919    -0.029    28.722     8.789
    95   6 C        2.919    -0.037    28.910     8.817
    96   6 C        2.919    -0.028    28.713     8.787
    97   6 C        2.922    -0.046    29.136     8.852
    98   6 C        2.921    -0.049    29.217     8.864
    99   6 C        2.920    -0.042    29.039     8.837
   100   6 C        2.916    -0.039    28.974     8.827
   101   6 C        2.918    -0.038    28.935     8.821
   102   6 C        2.924    -0.037    28.926     8.820
   103   6 C        2.921    -0.044    29.102     8.846
   104   6 C        2.917    -0.042    29.051     8.839
   105   6 C        2.922    -0.033    28.819     8.804
   106   6 C        2.922    -0.034    28.859     8.810
   107   6 C        2.924    -0.034    28.853     8.809
   108   1 H        0.926     0.053     2.288     2.365
   109   1 H        0.925     0.038     2.481     2.463
   110   1 H        0.926     0.043     2.403     2.424
   111   1 H        0.926     0.033     2.550     2.497
   112   1 H        0.926     0.032     2.560     2.502
   113   1 H        0.926     0.034     2.528     2.486
   114   1 H        0.926     0.038     2.479     2.462
   115   1 H        0.926     0.033     2.549     2.497
   116   1 H        0.926     0.029     2.598     2.521
   117   1 H        0.926     0.025     2.659     2.550
   118   1 H        0.926     0.044     2.390     2.418
   119   1 H        0.926     0.044     2.390     2.418
   120   1 H        0.926     0.031     2.578     2.511
   121   1 H        0.926     0.035     2.511     2.478
   122   1 H        0.926     0.034     2.531     2.488
   123   1 H        0.926     0.038     2.482     2.464
   124   1 H        0.926     0.039     2.464     2.455
   125   1 H        0.926     0.036     2.501     2.473
   126   1 H        0.926     0.038     2.472     2.459
   127   1 H        0.926     0.034     2.533     2.489
   128   1 H        0.926     0.031     2.572     2.508
   129   1 H        0.926     0.020     2.734     2.586
   130   1 H        0.926     0.039     2.462     2.454
   131   1 H        0.926     0.041     2.435     2.440
   132   1 H        0.926     0.033     2.548     2.496
   133   1 H        0.926     0.038     2.482     2.464
   134   1 H        0.926     0.041     2.437     2.441
   135   1 H        0.926     0.037     2.490     2.468
   136   1 H        0.926     0.034     2.535     2.490
   137   1 H        0.926     0.033     2.542     2.493
   138   1 H        0.926     0.031     2.573     2.508
   139   1 H        0.926     0.033     2.541     2.493
   140   1 H        0.926     0.033     2.538     2.492
   141   1 H        0.926     0.037     2.484     2.464
   142   1 H        0.926     0.040     2.449     2.447
   143   1 H        0.926     0.030     2.582     2.513
   144   1 H        0.925     0.027     2.633     2.538
   145   1 H        0.926     0.040     2.448     2.447
   146   1 H        0.926     0.027     2.635     2.539
   147   1 H        0.926     0.043     2.406     2.426
   148   1 H        0.926     0.035     2.520     2.483
   149   1 H        0.926     0.035     2.519     2.482
   150   1 H        0.926     0.036     2.499     2.472
   151   1 H        0.926     0.037     2.494     2.470
   152   1 H        0.926     0.032     2.554     2.499
   153   1 H        0.926     0.030     2.587     2.515
   154   1 H        0.926     0.026     2.641     2.541
   155   1 H        0.926     0.031     2.569     2.506
   156   1 H        0.926     0.037     2.490     2.467
   157   1 H        0.926     0.034     2.536     2.490
   158   1 H        0.926     0.036     2.506     2.475
   159   1 H        0.926     0.034     2.535     2.490
   160   1 H        0.926     0.034     2.528     2.487
   161   1 H        0.926     0.032     2.556     2.500
   162   1 H        0.926     0.030     2.583     2.513
   163   1 H        0.926     0.038     2.481     2.463
   164   1 H        0.926     0.037     2.487     2.466
   165   1 H        0.926     0.038     2.477     2.461
   166   1 H        0.926     0.034     2.532     2.488
   167   1 H        0.926     0.044     2.396     2.421
   168   1 H        0.926     0.042     2.417     2.431
   169   1 H        0.926     0.021     2.714     2.576
   170   1 H        0.926     0.031     2.575     2.510
   171   1 H        0.926     0.038     2.472     2.459
   172   1 H        0.926     0.035     2.523     2.484
   173   1 H        0.926     0.043     2.411     2.428
   174   1 H        0.926     0.044     2.397     2.421
   175   1 H        0.926     0.039     2.466     2.456
   176   1 H        0.926     0.037     2.491     2.468

molecular dipole:
                 x           y           z       tot (Debye)
 q only:       -1.913       0.890       0.009
   full:       -1.364       0.726      -0.066       3.931

 projected vibrational frequencies (cm⁻¹)
eigval :       -0.00    -0.00     0.00     0.00     0.00     0.00
eigval :        7.09     8.85    12.09    13.59    15.51    17.43
eigval :       19.21    21.10    21.57    24.58    29.33    31.09
eigval :       32.71    35.01    35.85    38.46    41.27    44.18
eigval :       48.12    50.86    53.20    53.94    56.66    58.55
eigval :       61.94    65.92    67.85    72.04    75.35    77.69
eigval :       81.45    83.62    85.52    86.35    89.58    91.32
eigval :       92.64    96.45   103.35   105.73   107.73   112.39
eigval :      125.00   132.20   136.39   139.08   151.16   157.96
eigval :      160.55   165.67   174.54   178.15   179.15   183.28
eigval :      188.97   192.90   205.64   214.74   218.39   221.68
eigval :      229.98   233.71   236.74   237.94   240.20   243.38
eigval :      255.34   261.51   268.44   270.88   273.35   296.40
eigval :      303.82   305.22   306.28   307.32   317.01   323.08
eigval :      335.46   339.42   345.69   346.83   349.80   362.07
eigval :      365.84   368.37   373.14   378.66   379.06   379.61
eigval :      381.19   382.00   383.06   383.43   384.30   386.79
eigval :      390.92   392.60   396.22   396.66   399.13   400.61
eigval :      403.61   410.31   413.75   414.96   420.32   424.81
eigval :      432.14   438.81   443.81   448.29   449.88   455.28
eigval :      460.16   471.42   478.21   481.29   482.93   489.91
eigval :      492.96   495.05   501.01   505.02   507.83   510.40
eigval :      515.43   520.49   524.67   525.52   531.45   537.42
eigval :      541.32   568.53   575.85   580.53   581.28   583.96
eigval :      585.06   586.02   586.54   587.65   591.83   592.46
eigval :      593.91   599.88   604.15   607.19   610.53   612.27
eigval :      616.45   621.65   627.35   638.73   641.26   647.10
eigval :      648.74   651.88   654.57   659.08   660.43   661.28
eigval :      662.67   662.89   668.25   669.64   671.67   673.33
eigval :      675.10   675.79   677.04   682.18   687.11   696.01
eigval :      697.68   704.57   722.34   726.35   730.28   730.59
eigval :      734.94   747.01   748.87   753.66   754.22   756.11
eigval :      757.55   757.71   760.15   762.13   762.70   766.43
eigval :      777.08   777.24   782.38   789.05   802.61   806.78
eigval :      810.27   814.65   818.36   828.50   830.53   847.14
eigval :      848.35   856.35   857.33   860.90   861.71   865.15
eigval :      865.88   866.45   868.50   869.73   870.63   871.79
eigval :      873.80   874.47   875.47   875.66   876.60   884.02
eigval :      889.48   894.51   896.08   897.02   899.76   902.44
eigval :      904.35   907.39   908.17   908.85   908.94   910.09
eigval :      911.35   912.11   914.02   914.21   915.22   915.42
eigval :      917.12   917.34   918.05   918.94   920.02   920.90
eigval :      922.06   923.68   924.77   925.00   926.25   926.40
eigval :      926.66   926.94   928.18   928.35   928.96   929.26
eigval :      930.69   930.78   931.77   933.23   935.68   940.67
eigval :      963.02   979.22   980.77   982.04   987.49   994.88
eigval :      998.22  1003.67  1004.48  1006.93  1007.94  1008.77
eigval :     1016.07  1019.14  1040.40  1045.86  1061.95  1076.50
eigval :     1079.77  1080.85  1081.04  1081.48  1083.23  1083.46
eigval :     1084.20  1086.03  1086.83  1104.10  1108.02  1120.18
eigval :     1121.56  1121.92  1122.11  1124.86  1126.88  1132.16
eigval :     1132.51  1134.88  1140.15  1142.29  1145.48  1146.13
eigval :     1159.90  1164.31  1166.00  1172.26  1176.24  1177.24
eigval :     1177.84  1178.42  1178.59  1178.86  1179.30  1181.15
eigval :     1181.93  1182.18  1183.15  1185.80  1185.90  1188.41
eigval :     1188.95  1191.26  1193.69  1194.03  1195.23  1200.39
eigval :     1203.08  1206.15  1213.44  1214.94  1217.37  1222.04
eigval :     1226.24  1242.46  1247.21  1252.11  1253.95  1256.74
eigval :     1261.59  1263.40  1265.34  1265.96  1267.73  1273.42
eigval :     1275.13  1275.86  1279.28  1279.46  1281.56  1282.74
eigval :     1283.30  1284.14  1287.08  1289.96  1298.29  1303.03
eigval :     1303.15  1305.01  1310.96  1312.54  1313.33  1314.35
eigval :     1316.62  1321.92  1323.69  1323.80  1324.39  1324.91
eigval :     1327.53  1328.09  1328.46  1333.68  1335.93  1336.30
eigval :     1338.87  1340.01  1344.95  1348.35  1350.33  1367.74
eigval :     1379.48  1393.90  1396.50  1400.79  1405.27  1410.81
eigval :     1412.54  1415.69  1416.81  1419.81  1424.21  1430.78
eigval :     1432.94  1434.36  1435.06  1437.02  1438.52  1440.16
eigval :     1442.10  1443.22  1444.99  1453.24  1461.17  1466.78
eigval :     1468.60  1469.81  1470.21  1471.16  1472.63  1477.47
eigval :     1479.75  1481.35  1489.71  1493.09  1500.57  1501.54
eigval :     1503.65  1512.22  1530.14  1538.15  1541.29  1544.99
eigval :     1545.69  1548.85  1551.29  1552.24  1557.08  1560.64
eigval :     1564.98  1569.40  1570.66  1576.68  1577.45  1578.23
eigval :     1580.84  1582.26  1587.33  1588.73  1589.67  1590.69
eigval :     1591.11  1592.39  1592.89  1593.30  1593.56  1596.95
eigval :     1599.57  1602.66  1622.26  3059.40  3062.31  3069.02
eigval :     3069.16  3070.31  3072.01  3072.20  3072.29  3073.05
eigval :     3074.05  3074.08  3074.80  3074.98  3075.43  3075.87
eigval :     3076.23  3076.41  3077.33  3077.45  3077.56  3077.71
eigval :     3079.04  3079.50  3080.64  3081.30  3082.13  3082.88
eigval :     3082.89  3083.02  3083.89  3084.20  3084.47  3084.82
eigval :     3085.33  3086.37  3087.30  3087.42  3087.44  3087.60
eigval :     3088.07  3088.85  3089.08  3089.48  3089.59  3090.71
eigval :     3094.38  3094.60  3094.75  3095.03  3095.29  3095.44
eigval :     3095.76  3096.08  3096.29  3097.60  3098.12  3098.51
eigval :     3101.02  3101.30  3101.88  3103.54  3103.97  3104.37
eigval :     3105.46  3106.18  3107.03  3107.81  3108.75  3113.50

   temp. (K)  partition function   enthalpy   heat capacity  entropy
                                   cal/mol     cal/K/mol   cal/K/mol   J/K/mol
 298.15  VIB  0.294E+43            52621.642    326.301    331.367
         ROT  0.628E+09              888.752      2.981     43.238
         INT  0.185E+52            53510.395    329.282    374.604
         TR   0.490E+29             1481.254      4.968     47.495
         TOT                       54991.6485   334.2497   422.0999  1766.0658

       T/K    H(0)-H(T)+PV         H(T)/Eh          T*S/Eh         G(T)/Eh
   ------------------------------------------------------------------------
    298.15    0.876348E-01    0.144743E+01    0.200553E+00    0.124688E+01
   ------------------------------------------------------------------------

         :::::::::::::::::::::::::::::::::::::::::::::::::::::
         ::                  THERMODYNAMIC                  ::
         :::::::::::::::::::::::::::::::::::::::::::::::::::::
         :: total free energy        -268.675616620417 Eh   ::
         ::.................................................::
         :: total energy             -269.922496947666 Eh   ::
         :: zero point energy           1.359798825055 Eh   ::
         :: G(RRHO) w/o ZPVE           -0.112918497806 Eh   ::
         :: G(RRHO) contrib.            1.246880327250 Eh   ::
         :::::::::::::::::::::::::::::::::::::::::::::::::::::

           -------------------------------------------------
          | TOTAL ENERGY             -269.922496947666 Eh   |
          | TOTAL ENTHALPY           -268.475063352516 Eh   |
          | TOTAL FREE ENERGY        -268.675616620417 Eh   |
          | GRADIENT NORM               0.000144916202 Eh/α |
          | HOMO-LUMO GAP               0.260299120748 eV   |
           -------------------------------------------------

 * finished run on 2025/09/07 at 16:03:14.237
