   * xtb version 6.7.1 (edcfbbe) compiled by 'albert@albert-system' on 2024-07-22

   ID    Z sym.   atoms
    1    6 C      1-3, 5-18, 20-23, 25-46, 48-64, 66-79, 81-84, 86-107
    2    7 N      4, 19, 24, 47, 65, 80, 85
    3    1 H      108-176

          program call               : xtb data2507/toluene/TPA–2SPPITPA/TPA–2SPPITPA.xyz --gfn 2 --gbsa toluene --ohess vtight --parallel 40 --molden --ceasefiles --namespace data2507/toluene/TPA–2SPPITPA/TPA–2SPPITPA_toluene_S0_preOpt
      * Solvation model:               GBSA
        Solvent                        toluene
        Solvent mass                       9.2140E+01 g/mol
          :  Hamiltonian                  GFN2-xTB          :
 * total energy  :  -269.9264478 Eh     change       -0.4952028E-08 Eh
 * total energy  :  -269.9579263 Eh     change       -0.3147847E-01 Eh
 * total energy  :  -269.9706110 Eh     change       -0.1268475E-01 Eh
 * total energy  :  -269.9752474 Eh     change       -0.4636352E-02 Eh
 * total energy  :  -269.9778682 Eh     change       -0.2620801E-02 Eh
 * total energy  :  -269.9792901 Eh     change       -0.1421935E-02 Eh
 * total energy  :  -269.9802033 Eh     change       -0.9132030E-03 Eh
 * total energy  :  -269.9809171 Eh     change       -0.7137830E-03 Eh
 * total energy  :  -269.9814973 Eh     change       -0.5802292E-03 Eh
 * total energy  :  -269.9819807 Eh     change       -0.4833344E-03 Eh
 * total energy  :  -269.9999591 Eh     change       -0.1323467E-05 Eh
 * total energy  :  -269.9999604 Eh     change       -0.1280009E-05 Eh
 * total energy  :  -269.9999617 Eh     change       -0.1300726E-05 Eh
 * total energy  :  -269.9999630 Eh     change       -0.1336719E-05 Eh
 * total energy  :  -269.9999643 Eh     change       -0.1265763E-05 Eh
 * total energy  :  -269.9999654 Eh     change       -0.1073440E-05 Eh
 * total energy  :  -269.9999663 Eh     change       -0.9231831E-06 Eh
 * total energy  :  -269.9999673 Eh     change       -0.9738275E-06 Eh
 * total energy  :  -269.9999673 Eh     change       -0.5059519E-08 Eh
   *** GEOMETRY OPTIMIZATION CONVERGED AFTER 1180 ITERATIONS ***

 final structure:
================
176
 xtb: 6.7.1 (edcfbbe)
C           -8.75047357464540        0.25729205681881        2.81115736655369
C           -9.62372191521847       -0.33674591982293        1.98050094964279
C          -10.86557504690195       -0.89210481673774        2.42572192693563
N          -11.28201504291967       -0.94496020231556        3.67387441615318
C          -12.50458637888108       -1.53038139407989        3.63329197257308
C          -13.38013948757614       -1.80791812604982        4.72144475015717
C          -13.03241663909558       -1.47514057714214        6.03542800882080
C          -13.89567973681364       -1.73451886742182        7.07085141877986
C          -15.12565283016167       -2.33213940301933        6.80179450177794
C          -15.47728807777371       -2.66665348236672        5.51461361216809
C          -14.62019217635282       -2.42307753534930        4.42992302203814
C          -14.95838105220742       -2.78450772200754        3.06315896687004
C          -16.16150176503447       -3.43151022744643        2.74547709258988
C          -16.47574002951625       -3.79711014058988        1.45738847656779
C          -15.58490832879149       -3.53966557278761        0.41942392302214
C          -14.39712195635400       -2.90498346452275        0.68696228543463
C          -14.06600098780212       -2.50812734120220        1.99091064443176
C          -12.85052381320057       -1.84637344061358        2.31725862560345
N          -11.78871575569431       -1.43238661373712        1.55248561087983
C          -11.64949023499262       -1.42323382370906        0.14698728915830
C          -12.39572983166840       -0.53524708378471       -0.62286118927380
C          -12.21945343115225       -0.48449804554127       -1.98909352601985
C          -11.28690210382051       -1.31547632667720       -2.61771632150195
N          -11.09243298431667       -1.25159132763377       -3.99375372421260
C           -9.81114967872514       -1.44384081313669       -4.53448787636208
C           -8.68687957535337       -0.92581259442811       -3.89261757819166
C           -7.42908066050402       -1.11546612118114       -4.43243009234267
C           -7.27338714321575       -1.81199199059035       -5.62014019340329
C           -8.38843619419582       -2.32267271580450       -6.26491835244796
C           -9.64949453473286       -2.14645896084484       -5.72753513416094
C          -12.16621534246187       -0.96593327324139       -4.85130437445568
C          -11.98378910433215       -0.13527496457035       -5.95599365376066
C          -13.03985985428915        0.13290078426349       -6.80606040840417
C          -14.29036883320966       -0.41332274010545       -6.56559901845547
C          -14.47721773275554       -1.23649546452434       -5.46677137834063
C          -13.42520958391599       -1.51688343505427       -4.61565931866911
C          -10.54600481827486       -2.20701002134882       -1.83650360418162
C          -10.72298742626261       -2.25810834833685       -0.46943474341914
C           -7.48317977356852        0.84200342058032        2.42794923658448
C           -6.83502293259269        0.52965464844133        1.22851489593472
C           -5.63061490321809        1.11470253963383        0.90074191416854
C           -5.03513116067333        2.05206754887048        1.74465507060083
C           -3.77033919636630        2.70124038894909        1.37639485711400
C           -3.61254648765591        4.07841015664117        1.52645640704696
C           -2.43730600631812        4.70192134094554        1.16410177089210
C           -1.37329576841255        3.95999560933711        0.65041690555125
N           -0.18257595452518        4.59467046570226        0.27310324971831
C           -0.24419070183102        5.83422585669030       -0.37664411831153
C           -1.24135670323871        6.08085191801281       -1.32069696460517
C           -1.31258561245524        7.30606394621393       -1.95518852224067
C           -0.39040204886166        8.29971903425071       -1.66823297385382
C            0.60450213521658        8.05860241583407       -0.73428301439740
C            0.67850646668303        6.83966762061885       -0.08780967539759
C            1.05189801100081        4.02493619127099        0.59193356314331
C            1.22384363198012        3.31277415918694        1.78024011641140
C            2.45685522555885        2.79222365647385        2.11180851541583
C            3.55910777436267        2.95550222681478        1.27251508220543
C            4.88380564968251        2.45301271591979        1.65325347778512
C            5.33363064920218        2.56298357790361        2.97001878095891
C            6.59517621018411        2.13747431270047        3.32366928526558
C            7.46235771583392        1.57003986690417        2.38238795187380
C            8.78135266928049        1.16070352368682        2.80742605684822
C            9.71372661755800        0.53865214541886        2.06448016040733
C           11.00281626656957        0.19823270910043        2.58474850739339
N           11.45530375382102        0.51346314993048        3.78109029203477
C           12.71998019492158        0.02845626877387        3.83941062652194
C           13.64793011506373        0.12891418152334        4.91487698808218
C           13.31361088869853        0.79034707749854        6.10184057850245
C           14.22758184983236        0.89639160459704        7.12069441192482
C           15.49563417367426        0.34030982110365        6.96203210385893
C           15.83475709800436       -0.31517875813427        5.80113265810281
C           14.92696271042831       -0.44902591448177        4.73878873263309
C           15.25351054373280       -1.15005805868268        3.50801274741725
C           16.49716853721329       -1.76984998041903        3.31794754777000
C           16.80404688289210       -2.45252173608995        2.16411931615613
C           15.86524323742016       -2.55680406670685        1.14187236661423
C           14.63637949696784       -1.96179886707521        1.28661046047423
C           14.31033660023483       -1.24588821612318        2.44789567180423
C           13.05377031674927       -0.60941505133023        2.64212177012386
N           11.94258298853197       -0.49018443612031        1.84502838364753
C           11.74979428247853       -0.91454677352685        0.51151282472759
C           12.37253216651483       -0.24266685563515       -0.53674695258016
C           12.15500462713787       -0.63814385730733       -1.83952356376171
C           11.30687101459131       -1.71271663243628       -2.12582851449446
N           11.08630369526737       -2.11304239082776       -3.43958973096798
C            9.83485158426209       -2.62451090524537       -3.82043750511647
C            9.75298957422472       -3.70917722449105       -4.69207204579837
C            8.51945562578432       -4.20434221336212       -5.07080715999457
C            7.35457099290875       -3.63371037237787       -4.58365251357048
C            7.43115528669271       -2.55617207581456       -3.71584165421578
C            8.65998818050990       -2.04921186457790       -3.33815822645840
C           12.11151632810557       -2.02468831633400       -4.39378129530346
C           13.42947838029381       -2.32182080519878       -4.04885054787194
C           14.43219210347132       -2.23806053243427       -4.99600690659377
C           14.13770038032465       -1.86919034163587       -6.29872828643727
C           12.82861339387937       -1.57845942090242       -6.64755207440812
C           11.82062498854821       -1.65017510317411       -5.70489823569633
C           10.68034087018652       -2.37532647469586       -1.06624265738092
C           10.89570244149005       -1.97770761234828        0.23677545831876
C            7.00006544725690        1.44519936785230        1.06735016157623
C            5.74189918611711        1.88122143829037        0.71224383283980
C            3.37313151139761        3.64130996227124        0.07177241604893
C            2.14450782966053        4.16800506628395       -0.26534448811877
C           -1.51943685140173        2.57967833245292        0.51211349148081
C           -2.70390628897723        1.96491337537158        0.86253146349215
C           -5.67492747107428        2.36344745778537        2.94420865108238
C           -6.86490703640389        1.75769791080849        3.28608635609353
H           -9.02460540640903        0.33441272965679        3.85486868994739
H           -9.43170116967041       -0.40348557208286        0.91903973538095
H          -12.07223317090199       -1.01015897468833        6.20015120814454
H          -13.62911895120240       -1.47766472861079        8.08566186610208
H          -15.81105249095857       -2.53502628907025        7.61227623276706
H          -16.44006377521023       -3.12546787646097        5.35465677039677
H          -16.86981515962362       -3.65985554383477        3.52537883709012
H          -17.41340451636592       -4.29307597411520        1.25288267906789
H          -15.82511058302174       -3.83902412339289       -0.59024354017607
H          -13.70051744744724       -2.71340601255176       -0.11386693340276
H          -13.10914724984390        0.11680379880876       -0.14033674186735
H          -12.79470492872258        0.21277772926388       -2.57899626450939
H           -8.80751933398211       -0.36959420999327       -2.97422788311547
H           -6.56607571228594       -0.70685011597820       -3.92726317372400
H           -6.28961363637212       -1.95427646463629       -6.04133274470483
H           -8.27580126312820       -2.86947151283423       -7.18966757448049
H          -10.51753251748777       -2.55085926031933       -6.22744402838561
H          -11.01130731204219        0.29727805233086       -6.14087931721371
H          -12.88637250187284        0.77965174296394       -7.65756592840556
H          -15.11360611177938       -0.19952985315554       -7.23050640715719
H          -15.44740534983741       -1.67129671768702       -5.27508702404044
H          -13.57084505762381       -2.16818533400171       -3.76613222191669
H           -9.83023961696161       -2.86183763147034       -2.31006335545706
H          -10.15006761508519       -2.95138679623045        0.12917664591689
H           -7.27263504290366       -0.19316926682376        0.55622664379292
H           -5.14838359822434        0.86187790945541       -0.03277575101491
H           -4.42906232986487        4.66798888417343        1.91719860291455
H           -2.33326934482133        5.77145870782207        1.27678662849927
H           -1.95724903391984        5.30516430052175       -1.55117597780939
H           -2.08960020595884        7.48295890765681       -2.68481901667302
H           -0.44720007463167        9.25525363710108       -2.16773909395966
H            1.32379519013097        8.82972750276069       -0.49889534257863
H            1.44829811461703        6.66002932952106        0.64865960119881
H            0.38493880961055        3.18278778511461        2.44847861611909
H            2.56695622781644        2.24373459341012        3.03585862379955
H            4.69454812348397        3.01563448808787        3.71428089863579
H            6.92979166809630        2.24599594210578        4.34577464243969
H            9.04066147540612        1.38154525502104        3.83466830760377
H            9.53502525435136        0.26615936184997        1.03417731239044
H           12.32308391782716        1.21171050748617        6.18233348197976
H           13.97140068630099        1.40748116853095        8.03725355599044
H           16.22084774706862        0.42463525497041        7.75881374440180
H           16.82812636491474       -0.72767438729266        5.72295981166989
H           17.24422017367046       -1.72192216195546        4.09363806880230
H           17.77381662329820       -2.91582973205256        2.05504286568941
H           16.10069626831798       -3.10463288045309        0.24119740643956
H           13.90247414095385       -2.05059465068978        0.50137352783842
H           13.02521510670220        0.59072186928423       -0.32141465896503
H           12.63561917719893       -0.10861234282671       -2.64808204057023
H           10.66073630067845       -4.15896042880894       -5.06716629516218
H            8.46858612906044       -5.04687510400567       -5.74491164553109
H            6.39299314197440       -4.02540013938505       -4.87938050957823
H            6.52789900270116       -2.10135993572700       -3.33610120039396
H            8.71810488622545       -1.20227580952226       -2.66995912496508
H           13.66035577651819       -2.62305084894977       -3.03747487591425
H           15.44907654212379       -2.47246513674387       -4.71649722926731
H           14.92323377438885       -1.80897474802572       -7.03685722373133
H           12.59061568751206       -1.28593359608652       -7.65980021977955
H           10.80159626157248       -1.41687335536631       -5.97708836409739
H           10.02642893172594       -3.20927603070978       -1.27121697438841
H           10.41209816153361       -2.49593160574668        1.05202060058125
H            7.63749566325925        1.00861631390405        0.31334736238502
H            5.40706747240345        1.76546302092952       -0.30865486140649
H            4.21052341398245        3.78552498837504       -0.59517047096024
H            2.02284141627971        4.70428702137781       -1.19532171653684
H           -0.69855214675612        1.99601454233592        0.12108843845393
H           -2.80127496882809        0.89475301293958        0.75067582568990
H           -5.21738231504030        3.07017902506199        3.62162349683310
H           -7.34191442769389        2.00177566506266        4.22480514156320

          :  Hamiltonian                  GFN2-xTB          :
         :: gradient norm              0.000060290845 Eh/a0 ::
         :: HOMO-LUMO gap              1.909048795086 eV    ::
         :: SCC energy              -275.085459058843 Eh    ::
         :: -> dispersion             -0.251178274318 Eh    ::
         :: -> Gsolv                  -0.116408773648 Eh    ::
         :: repulsion energy           5.085491801263 Eh    ::

    * Orbital Energies and Occupations

         #    Occupation            Energy/Eh            Energy/eV
      -------------------------------------------------------------
         1        2.0000           -0.6858045             -18.6617
       ...           ...                  ...                  ...
       240        2.0000           -0.4000557             -10.8861
       241        2.0000           -0.3992496             -10.8641
       242        2.0000           -0.3884574             -10.5705
       243        2.0000           -0.3851754             -10.4812
       244        2.0000           -0.3823342             -10.4038
       245        2.0000           -0.3820198             -10.3953
       246        2.0000           -0.3785275             -10.3003
       247        2.0000           -0.3781572             -10.2902
       248        2.0000           -0.3603814              -9.8065
       249        2.0000           -0.3587159              -9.7612
       250        2.0000           -0.3560260              -9.6880
       251        2.0000           -0.3556833              -9.6786
       252        2.0000           -0.3467469              -9.4355 (HOMO)
       253                         -0.2765907              -7.5264 (LUMO)
       254                         -0.2750393              -7.4842
       255                         -0.2506071              -6.8194
       256                         -0.2503048              -6.8111
       257                         -0.2484157              -6.7597
       258                         -0.2475772              -6.7369
       259                         -0.2424571              -6.5976
       260                         -0.2423352              -6.5943
       261                         -0.2397569              -6.5241
       262                         -0.2396661              -6.5216
       263                         -0.2344512              -6.3797
       ...                                ...                  ...
       497                          0.7267294              19.7753
      -------------------------------------------------------------
                  HL-Gap            0.0701563 Eh            1.9090 eV

     #   Z          covCN         q      C6AA      α(0)
     1   6 C        2.907    -0.031    28.775     8.796
     2   6 C        2.896    -0.056    29.400     8.890
     3   6 C        3.186     0.137    24.593     8.092
     4   7 N        1.891    -0.319    29.120     8.000
     5   6 C        3.204     0.061    26.065     8.317
     6   6 C        2.984    -0.004    28.109     8.697
     7   6 C        2.921    -0.033    28.832     8.805
     8   6 C        2.917    -0.032    28.800     8.800
     9   6 C        2.917    -0.035    28.860     8.809
    10   6 C        2.921    -0.037    28.911     8.818
    11   6 C        2.978    -0.005    28.146     8.702
    12   6 C        2.979    -0.002    28.064     8.690
    13   6 C        2.922    -0.035    28.876     8.812
    14   6 C        2.916    -0.034    28.857     8.809
    15   6 C        2.916    -0.033    28.814     8.802
    16   6 C        2.919    -0.041    29.007     8.832
    17   6 C        2.978    -0.006    28.161     8.705
    18   6 C        3.072     0.024    27.401     8.583
    19   7 N        2.840    -0.055    22.305     7.014
    20   6 C        2.911     0.054    26.787     8.487
    21   6 C        2.920    -0.037    28.920     8.819
    22   6 C        2.922    -0.047    29.174     8.858
    23   6 C        2.922     0.068    26.487     8.440
    24   7 N        2.752    -0.073    22.664     7.071
    25   6 C        2.924     0.064    26.576     8.454
    26   6 C        2.922    -0.047    29.170     8.857
    27   6 C        2.919    -0.029    28.730     8.790
    28   6 C        2.919    -0.037    28.928     8.820
    29   6 C        2.919    -0.029    28.726     8.789
    30   6 C        2.922    -0.046    29.149     8.854
    31   6 C        2.924     0.064    26.574     8.454
    32   6 C        2.922    -0.046    29.154     8.854
    33   6 C        2.919    -0.029    28.727     8.789
    34   6 C        2.919    -0.037    28.930     8.820
    35   6 C        2.919    -0.029    28.733     8.790
    36   6 C        2.922    -0.047    29.171     8.857
    37   6 C        2.922    -0.048    29.189     8.860
    38   6 C        2.919    -0.039    28.976     8.827
    39   6 C        2.971     0.012    27.738     8.639
    40   6 C        2.922    -0.034    28.850     8.808
    41   6 C        2.922    -0.035    28.878     8.813
    42   6 C        2.977     0.010    27.781     8.646
    43   6 C        2.976     0.003    27.962     8.674
    44   6 C        2.924    -0.034    28.851     8.808
    45   6 C        2.920    -0.047    29.175     8.858
    46   6 C        2.925     0.064    26.567     8.453
    47   7 N        2.752    -0.077    22.740     7.082
    48   6 C        2.924     0.065    26.535     8.448
    49   6 C        2.922    -0.048    29.189     8.860
    50   6 C        2.919    -0.030    28.753     8.793
    51   6 C        2.919    -0.039    28.973     8.827
    52   6 C        2.919    -0.030    28.753     8.793
    53   6 C        2.922    -0.048    29.188     8.860
    54   6 C        2.922     0.064    26.562     8.452
    55   6 C        2.920    -0.049    29.228     8.866
    56   6 C        2.924    -0.034    28.858     8.809
    57   6 C        2.975     0.001    28.008     8.681
    58   6 C        2.976     0.010    27.779     8.645
    59   6 C        2.922    -0.035    28.883     8.813
    60   6 C        2.926    -0.034    28.853     8.809
    61   6 C        2.969     0.012    27.755     8.642
    62   6 C        2.908    -0.032    28.787     8.798
    63   6 C        2.895    -0.056    29.392     8.889
    64   6 C        3.187     0.137    24.583     8.089
    65   7 N        1.891    -0.320    29.146     8.004
    66   6 C        3.204     0.062    26.058     8.315
    67   6 C        2.984    -0.004    28.110     8.697
    68   6 C        2.921    -0.033    28.832     8.805
    69   6 C        2.917    -0.032    28.801     8.800
    70   6 C        2.917    -0.035    28.861     8.810
    71   6 C        2.921    -0.037    28.912     8.818
    72   6 C        2.978    -0.005    28.147     8.703
    73   6 C        2.979    -0.002    28.066     8.690
    74   6 C        2.922    -0.035    28.876     8.812
    75   6 C        2.916    -0.034    28.859     8.809
    76   6 C        2.916    -0.033    28.814     8.802
    77   6 C        2.919    -0.041    29.010     8.832
    78   6 C        2.978    -0.006    28.162     8.705
    79   6 C        3.072     0.024    27.402     8.583
    80   7 N        2.840    -0.055    22.308     7.015
    81   6 C        2.911     0.054    26.789     8.487
    82   6 C        2.919    -0.037    28.925     8.819
    83   6 C        2.922    -0.048    29.181     8.859
    84   6 C        2.922     0.068    26.487     8.440
    85   7 N        2.752    -0.073    22.659     7.070
    86   6 C        2.924     0.064    26.577     8.454
    87   6 C        2.922    -0.046    29.144     8.853
    88   6 C        2.919    -0.029    28.724     8.789
    89   6 C        2.919    -0.037    28.921     8.819
    90   6 C        2.919    -0.029    28.729     8.790
    91   6 C        2.922    -0.047    29.159     8.855
    92   6 C        2.924     0.064    26.575     8.454
    93   6 C        2.922    -0.047    29.175     8.858
    94   6 C        2.919    -0.029    28.733     8.790
    95   6 C        2.919    -0.038    28.933     8.821
    96   6 C        2.919    -0.029    28.727     8.789
    97   6 C        2.922    -0.047    29.157     8.855
    98   6 C        2.922    -0.048    29.190     8.860
    99   6 C        2.920    -0.039    28.964     8.825
   100   6 C        2.921    -0.034    28.840     8.807
   101   6 C        2.921    -0.036    28.892     8.815
   102   6 C        2.924    -0.035    28.863     8.810
   103   6 C        2.920    -0.049    29.224     8.865
   104   6 C        2.920    -0.047    29.176     8.858
   105   6 C        2.923    -0.034    28.853     8.809
   106   6 C        2.921    -0.035    28.869     8.811
   107   6 C        2.926    -0.034    28.850     8.808
   108   1 H        0.925     0.053     2.282     2.362
   109   1 H        0.926     0.037     2.494     2.469
   110   1 H        0.926     0.043     2.409     2.427
   111   1 H        0.926     0.032     2.557     2.500
   112   1 H        0.926     0.031     2.565     2.505
   113   1 H        0.926     0.034     2.529     2.487
   114   1 H        0.926     0.036     2.498     2.472
   115   1 H        0.926     0.032     2.554     2.499
   116   1 H        0.926     0.031     2.571     2.508
   117   1 H        0.926     0.028     2.616     2.529
   118   1 H        0.926     0.041     2.436     2.441
   119   1 H        0.926     0.045     2.388     2.417
   120   1 H        0.926     0.032     2.561     2.503
   121   1 H        0.926     0.036     2.500     2.473
   122   1 H        0.926     0.035     2.520     2.483
   123   1 H        0.926     0.036     2.504     2.474
   124   1 H        0.926     0.034     2.530     2.487
   125   1 H        0.926     0.034     2.529     2.487
   126   1 H        0.926     0.036     2.505     2.475
   127   1 H        0.926     0.034     2.527     2.486
   128   1 H        0.926     0.035     2.511     2.478
   129   1 H        0.926     0.032     2.557     2.500
   130   1 H        0.926     0.045     2.384     2.415
   131   1 H        0.926     0.042     2.421     2.433
   132   1 H        0.926     0.033     2.539     2.492
   133   1 H        0.926     0.035     2.513     2.479
   134   1 H        0.926     0.036     2.501     2.473
   135   1 H        0.926     0.033     2.548     2.496
   136   1 H        0.926     0.032     2.564     2.504
   137   1 H        0.926     0.033     2.540     2.492
   138   1 H        0.926     0.032     2.563     2.504
   139   1 H        0.926     0.033     2.543     2.494
   140   1 H        0.926     0.032     2.559     2.502
   141   1 H        0.926     0.032     2.558     2.501
   142   1 H        0.926     0.036     2.507     2.476
   143   1 H        0.926     0.035     2.515     2.480
   144   1 H        0.926     0.035     2.515     2.480
   145   1 H        0.925     0.053     2.287     2.365
   146   1 H        0.926     0.035     2.521     2.483
   147   1 H        0.926     0.043     2.410     2.428
   148   1 H        0.926     0.032     2.557     2.501
   149   1 H        0.926     0.031     2.566     2.505
   150   1 H        0.926     0.034     2.529     2.487
   151   1 H        0.926     0.036     2.499     2.472
   152   1 H        0.926     0.032     2.555     2.499
   153   1 H        0.926     0.031     2.573     2.508
   154   1 H        0.926     0.028     2.620     2.531
   155   1 H        0.926     0.041     2.431     2.438
   156   1 H        0.926     0.045     2.384     2.414
   157   1 H        0.926     0.034     2.529     2.487
   158   1 H        0.926     0.036     2.501     2.473
   159   1 H        0.926     0.035     2.518     2.481
   160   1 H        0.926     0.037     2.496     2.470
   161   1 H        0.926     0.032     2.560     2.502
   162   1 H        0.926     0.032     2.560     2.502
   163   1 H        0.926     0.035     2.514     2.479
   164   1 H        0.926     0.034     2.528     2.486
   165   1 H        0.926     0.036     2.505     2.475
   166   1 H        0.926     0.034     2.528     2.486
   167   1 H        0.926     0.045     2.387     2.416
   168   1 H        0.926     0.041     2.429     2.437
   169   1 H        0.926     0.032     2.560     2.502
   170   1 H        0.926     0.035     2.516     2.480
   171   1 H        0.926     0.035     2.510     2.478
   172   1 H        0.926     0.033     2.550     2.497
   173   1 H        0.926     0.034     2.528     2.486
   174   1 H        0.926     0.037     2.493     2.469
   175   1 H        0.926     0.035     2.514     2.480
   176   1 H        0.926     0.035     2.511     2.478

molecular dipole:
                 x           y           z       tot (Debye)
 q only:       -0.244      -0.152      -3.443
   full:       -0.246      -0.456      -3.998      10.246

 projected vibrational frequencies (cm⁻¹)
eigval :       -0.00    -0.00    -0.00     0.00     0.00     0.00
eigval :        2.68     4.28     4.31     7.05     7.35     8.47
eigval :        9.02    12.64    15.10    18.83    19.70    21.63
eigval :       23.43    26.57    29.70    34.73    35.55    38.33
eigval :       42.40    42.90    44.48    46.68    51.71    54.25
eigval :       57.19    58.50    59.37    62.47    65.83    68.07
eigval :       73.04    73.65    77.22    79.02    81.24    85.24
eigval :       86.18    90.46    94.61    99.34   103.53   106.29
eigval :      108.07   110.08   120.92   129.28   140.85   143.85
eigval :      156.62   160.13   167.09   169.87   171.85   172.74
eigval :      178.23   196.55   209.02   211.22   216.96   219.61
eigval :      221.18   224.48   232.97   233.28   240.43   243.53
eigval :      249.47   255.31   264.95   268.65   268.86   294.51
eigval :      301.92   305.97   306.51   313.60   317.23   321.29
eigval :      342.10   344.77   348.12   348.89   350.67   364.01
eigval :      368.97   370.52   373.12   376.73   377.32   377.59
eigval :      378.50   379.31   380.38   380.50   385.72   387.41
eigval :      388.62   389.55   390.81   395.26   398.93   400.53
eigval :      401.78   410.80   411.40   416.33   418.60   430.09
eigval :      432.84   443.06   445.88   450.49   457.31   460.28
eigval :      467.20   472.42   473.57   477.31   491.02   492.55
eigval :      494.78   500.85   501.30   508.65   511.80   518.08
eigval :      519.70   523.37   525.29   535.11   535.32   536.72
eigval :      537.53   574.77   581.16   581.71   582.12   585.27
eigval :      585.56   586.48   586.65   589.82   592.39   592.70
eigval :      603.71   606.69   608.23   609.57   611.21   611.74
eigval :      620.32   620.44   636.32   638.73   646.69   650.01
eigval :      650.77   659.51   660.50   660.61   663.55   663.85
eigval :      667.78   668.98   669.44   671.95   675.79   675.93
eigval :      677.82   680.42   682.58   683.62   693.58   699.64
eigval :      700.84   703.02   722.30   729.73   731.34   735.57
eigval :      735.83   750.46   754.40   755.82   757.08   759.40
eigval :      761.15   761.52   764.05   765.09   765.42   776.77
eigval :      776.86   781.28   781.54   806.04   807.60   814.37
eigval :      817.84   828.58   829.71   848.59   850.24   860.60
eigval :      861.10   861.24   863.46   863.68   868.16   868.78
eigval :      869.24   871.82   871.96   872.37   873.24   873.59
eigval :      874.40   874.61   875.30   876.83   890.78   891.39
eigval :      894.34   895.14   896.13   906.42   906.58   908.86
eigval :      909.37   909.61   911.18   912.25   912.49   913.46
eigval :      913.49   914.13   917.68   918.22   918.78   920.16
eigval :      920.83   921.75   922.75   922.79   923.23   923.54
eigval :      924.68   924.99   925.71   926.12   926.54   927.00
eigval :      927.30   927.83   928.83   929.36   930.03   930.09
eigval :      930.45   930.69   932.99   941.20   941.22   980.65
eigval :      982.32   982.39   987.34   987.52   994.95   999.53
eigval :     1004.34  1004.37  1008.22  1008.70  1016.33  1016.44
eigval :     1017.97  1023.39  1063.17  1063.34  1079.04  1079.87
eigval :     1081.14  1081.24  1082.17  1082.29  1082.34  1082.65
eigval :     1082.85  1086.79  1086.84  1105.87  1106.03  1119.62
eigval :     1120.22  1121.29  1121.57  1122.39  1133.51  1134.38
eigval :     1136.09  1137.34  1141.21  1144.42  1145.70  1147.23
eigval :     1164.68  1164.97  1176.98  1178.41  1178.73  1179.22
eigval :     1180.97  1181.50  1181.87  1182.23  1182.53  1183.07
eigval :     1183.35  1184.22  1184.71  1185.45  1188.07  1188.50
eigval :     1192.58  1192.76  1193.81  1195.74  1201.85  1202.65
eigval :     1210.29  1212.62  1214.48  1215.77  1218.61  1226.30
eigval :     1228.07  1252.50  1252.76  1255.55  1256.66  1262.67
eigval :     1263.48  1267.94  1268.96  1270.94  1273.37  1275.65
eigval :     1275.95  1277.62  1279.48  1279.59  1281.84  1282.03
eigval :     1286.28  1290.89  1297.89  1301.84  1304.77  1305.12
eigval :     1305.59  1306.00  1311.42  1311.62  1312.11  1318.59
eigval :     1320.62  1321.35  1321.69  1322.16  1323.40  1323.94
eigval :     1324.06  1324.82  1326.18  1329.61  1333.16  1336.92
eigval :     1338.08  1338.89  1338.92  1351.48  1352.37  1382.51
eigval :     1382.82  1396.88  1399.41  1404.24  1404.35  1412.08
eigval :     1413.25  1413.72  1418.13  1420.38  1420.72  1431.91
eigval :     1432.13  1434.23  1434.70  1436.49  1436.86  1438.14
eigval :     1441.10  1441.83  1467.91  1468.91  1469.38  1469.63
eigval :     1471.13  1471.74  1471.82  1482.29  1482.34  1494.67
eigval :     1495.22  1506.02  1506.22  1513.43  1513.65  1537.78
eigval :     1537.99  1544.74  1547.87  1552.81  1553.31  1557.03
eigval :     1559.38  1559.58  1561.35  1564.04  1564.07  1575.75
eigval :     1576.98  1577.13  1577.83  1580.45  1580.69  1580.96
eigval :     1590.96  1591.04  1591.16  1591.21  1592.50  1592.77
eigval :     1592.85  1595.84  1598.48  1598.49  1600.81  1602.39
eigval :     1602.52  1626.73  1628.58  3064.91  3067.13  3068.39
eigval :     3068.69  3068.87  3069.31  3071.25  3071.33  3071.47
eigval :     3071.96  3072.38  3072.59  3073.42  3073.43  3073.66
eigval :     3073.89  3074.09  3074.40  3074.41  3074.96  3075.04
eigval :     3075.06  3075.65  3076.77  3079.28  3079.41  3079.53
eigval :     3079.82  3081.59  3081.80  3082.20  3082.37  3082.57
eigval :     3082.67  3082.77  3083.23  3083.60  3083.72  3084.15
eigval :     3084.21  3084.59  3084.78  3085.05  3085.81  3085.90
eigval :     3086.21  3086.85  3087.03  3087.45  3088.34  3088.93
eigval :     3090.12  3094.07  3094.60  3095.03  3095.36  3095.55
eigval :     3095.59  3096.04  3096.52  3096.94  3097.29  3098.50
eigval :     3099.35  3099.67  3107.91  3108.21  3110.44  3110.99

   temp. (K)  partition function   enthalpy   heat capacity  entropy
                                   cal/mol     cal/K/mol   cal/K/mol   J/K/mol
 298.15  VIB  0.211E+48            53056.135    322.545    342.459
         ROT  0.222E+10              888.752      2.981     45.748
         INT  0.468E+57            53944.888    325.526    388.206
         TR   0.490E+29             1481.254      4.968     47.495
         TOT                       55426.1415   330.4941   435.7018  1822.9765

       T/K    H(0)-H(T)+PV         H(T)/Eh          T*S/Eh         G(T)/Eh
   ------------------------------------------------------------------------
    298.15    0.883272E-01    0.144993E+01    0.207016E+00    0.124291E+01
   ------------------------------------------------------------------------

         :::::::::::::::::::::::::::::::::::::::::::::::::::::
         ::                  THERMODYNAMIC                  ::
         :::::::::::::::::::::::::::::::::::::::::::::::::::::
         :: total free energy        -268.757054607612 Eh   ::
         ::.................................................::
         :: total energy             -269.999967253512 Eh   ::
         :: zero point energy           1.361601465541 Eh   ::
         :: G(RRHO) w/o ZPVE           -0.118688819642 Eh   ::
         :: G(RRHO) contrib.            1.242912645900 Eh   ::
         :::::::::::::::::::::::::::::::::::::::::::::::::::::

           -------------------------------------------------
          | TOTAL ENERGY             -269.999967253512 Eh   |
          | TOTAL ENTHALPY           -268.550038609290 Eh   |
          | TOTAL FREE ENERGY        -268.757054607612 Eh   |
          | GRADIENT NORM               0.000060289521 Eh/α |
          | HOMO-LUMO GAP               1.909048995099 eV   |
           -------------------------------------------------

 * finished run on 2025/09/07 at 13:05:06.566
