   * xtb version 6.7.1 (edcfbbe) compiled by 'albert@albert-system' on 2024-07-22

   ID    Z sym.   atoms
    1    6 C      1-3, 5-18, 20-23, 25-46, 48-64, 66-79, 81-84, 86-107
    2    7 N      4, 19, 24, 47, 65, 80, 85
    3    1 H      108-176

          program call               : xtb data2507/toluene/TPA–2SPPITPA/TPA–2SPPITPA_toluene_S0_crest.xyz --gfn 2 --gbsa toluene --ohess vtight --parallel 40 --molden --ceasefiles --namespace data2507/toluene/TPA–2SPPITPA/TPA–2SPPITPA_toluene_S0_finalOpt
      * Solvation model:               GBSA
        Solvent                        toluene
        Solvent mass                       9.2140E+01 g/mol
          :  Hamiltonian                  GFN2-xTB          :
 * total energy  :  -269.9848938 Eh     change       -0.9233872E-08 Eh
 * total energy  :  -269.9850825 Eh     change       -0.1886960E-03 Eh
 * total energy  :  -269.9852991 Eh     change       -0.2165145E-03 Eh
 * total energy  :  -269.9854044 Eh     change       -0.1053158E-03 Eh
 * total energy  :  -269.9855577 Eh     change       -0.1532847E-03 Eh
 * total energy  :  -269.9857100 Eh     change       -0.1523127E-03 Eh
 * total energy  :  -269.9858242 Eh     change       -0.1142391E-03 Eh
 * total energy  :  -269.9859123 Eh     change       -0.8807153E-04 Eh
 * total energy  :  -269.9859970 Eh     change       -0.8468364E-04 Eh
 * total energy  :  -269.9860647 Eh     change       -0.6773435E-04 Eh
 * total energy  :  -269.9867061 Eh     change       -0.2355517E-06 Eh
 * total energy  :  -269.9867064 Eh     change       -0.2844919E-06 Eh
 * total energy  :  -269.9867067 Eh     change       -0.3019140E-06 Eh
 * total energy  :  -269.9867070 Eh     change       -0.2956398E-06 Eh
 * total energy  :  -269.9867073 Eh     change       -0.2826229E-06 Eh
 * total energy  :  -269.9867076 Eh     change       -0.3204136E-06 Eh
 * total energy  :  -269.9867079 Eh     change       -0.3398304E-06 Eh
 * total energy  :  -269.9867083 Eh     change       -0.3314204E-06 Eh
 * total energy  :  -269.9867083 Eh     change       -0.6348728E-08 Eh
   *** GEOMETRY OPTIMIZATION CONVERGED AFTER 185 ITERATIONS ***

 final structure:
================
176
 xtb: 6.7.1 (edcfbbe)
C            0.97672843456201        4.77135038220040        1.26187873826661
C            1.91290873357228        3.81259451460720        1.16576983776716
C            3.31387316982632        4.06144275234747        1.01867512069968
N            3.87471991744596        5.24253590173933        0.87069823177328
C            5.20541305493660        5.01140591369463        0.74370832199489
C            6.24784772829519        5.96593895008984        0.57241556108857
C            5.97435350052893        7.33710585383629        0.51712615909339
C            6.99443697536456        8.24516415610602        0.37787421174003
C            8.30888329703856        7.78909232249258        0.29620748844206
C            8.58963278970166        6.44318968276095        0.34299241491171
C            7.57398297815203        5.48330688014544        0.47513613315578
C            7.83854928448825        4.05411940692984        0.49280643902672
C            9.13443155619562        3.54078286775695        0.33692028336981
C            9.38555647903606        2.18894894558206        0.30852076654149
C            8.33730948880815        1.28012572651114        0.41970978974787
C            7.05429606037514        1.74102362779937        0.58297047593863
C            6.78061927716177        3.11560432879306        0.64266563758333
C            5.47067730482624        3.64235307349999        0.81591263250022
N            4.24837093353898        3.04153920940108        0.99452298977760
C            3.96518895592864        1.68817555919217        1.27862591862491
C            4.42874544346743        1.11102664829808        2.45864137073719
C            4.09965414050016       -0.19143655022073        2.77168879919784
C            3.28823329903145       -0.94230756396491        1.91766186980497
N            2.89912167465554       -2.24148674831129        2.25468171912913
C            1.57256640558594       -2.63971100758122        2.05251636600847
C            0.53234837270767       -1.71559318851234        2.17199586286038
C           -0.77878816245523       -2.10899730405608        1.97908126156465
C           -1.08014366208668       -3.42942029032208        1.68626081223619
C           -0.05340776602456       -4.35385343950834        1.58207468009159
C            1.26252392639851       -3.96542448600410        1.74798635501941
C            3.82290115049606       -3.10709686350418        2.85689417782774
C            3.43250159112840       -3.98417294483851        3.86776671041381
C            4.35574590267418       -4.83548223801558        4.44414316212243
C            5.67950240524242       -4.81720132605842        4.03570597186758
C            6.07466806735521       -3.93749420329783        3.04117416743571
C            5.15616206653462       -3.09197715019601        2.44986022626648
C            2.84951773709497       -0.36426348618774        0.72583965493027
C            3.17984878093361        0.93703250726290        0.40994673848051
C           -0.44293817966165        4.48919882692272        1.34868804272371
C           -0.97726986334126        3.32427671776524        0.79068857610967
C           -2.31346956211932        3.02568097057274        0.92068799084580
C           -3.17769432747563        3.87113537823238        1.62227597230664
C           -4.57117167703789        3.45035754152391        1.81226124528097
C           -5.66143311088544        4.31482033181082        1.72565935876670
C           -6.95981765838818        3.84226135569076        1.80499075304550
C           -7.20465156126305        2.48144680005131        1.98343000775691
N           -8.49036863236278        1.91453531096830        1.91208461582503
C           -9.58811849210384        2.33561939526087        2.63421655753608
C          -10.85819550904959        1.85286556688864        2.30546587540293
C          -11.96667146572238        2.25805171952407        3.02134459515640
C          -11.83836011863260        3.15306989854484        4.07159979497742
C          -10.58136647567546        3.63202201962136        4.40482883949068
C           -9.46351294005626        3.22789795784726        3.70205313529774
C           -8.49018778197987        0.72750223819242        1.13192750007260
C           -8.51984258882621       -0.53817020444575        1.71033680378722
C           -8.09104625697331       -1.63272475813778        0.98453160180632
C           -7.65635867578025       -1.50107713918104       -0.33818663744930
C           -6.78991982901838       -2.51761200344540       -0.94496193099069
C           -6.73713556691417       -3.84640049756286       -0.51461345908785
C           -5.67075522281603       -4.65948696454665       -0.84389198544467
C           -4.60806410578384       -4.18268701019113       -1.61928913437591
C           -3.35494814687875       -4.90714815701424       -1.68003807018205
C           -2.19017472429054       -4.29285268135574       -1.95374567747192
C           -0.87729696783317       -4.82407888267851       -1.77118258582615
N           -0.54064649690252       -6.01416051114783       -1.32083987402484
C            0.80440785147359       -5.97511245753916       -1.14535386131630
C            1.64993992810628       -6.98894136665611       -0.61140349514710
C            1.14306875519439       -8.24349152748825       -0.25446765344060
C            1.96573527399844       -9.19841562464206        0.28966893971584
C            3.31319346784268       -8.90527195114987        0.49125565613950
C            3.82390818763435       -7.67609463333176        0.14377856570167
C            3.01773406569989       -6.67755300363320       -0.42462521119738
C            3.53690213304886       -5.37629177169521       -0.81222296207922
C            4.88878650063291       -5.04046833607572       -0.65328719035245
C            5.38360284745768       -3.81276413968681       -1.02635586526669
C            4.54135024134484       -2.85814528929013       -1.58809423707453
C            3.21060211986536       -3.14825758529801       -1.76179777585900
C            2.68390513398550       -4.38930412151230       -1.37699892321509
C            1.30862157478318       -4.72300111976844       -1.50674633651135
N            0.22241945831466       -4.00113009764937       -1.92359576227037
C            0.15918595112128       -2.67841435805839       -2.42071763049248
C            0.13674177208714       -1.59826495578240       -1.54393741765552
C            0.03558188645425       -0.31171794215950       -2.03103656866980
C           -0.07351630255734       -0.07665382686813       -3.40513269526497
N           -0.20983186192315        1.22016935987232       -3.88727584721499
C            0.47715453328233        2.27910093022137       -3.26578196358638
C            1.82358032348022        2.14410428009983       -2.93364496796017
C            2.50576014920549        3.20432284584314       -2.36462100077274
C            1.85639665022474        4.40061829539313       -2.10690852824071
C            0.51441502694882        4.53227096451818       -2.42517190143107
C           -0.17372901695609        3.48283132673064       -3.00414545731082
C           -1.00907061119532        1.49218527987410       -5.00637647707209
C           -2.20244811868047        0.80056094270839       -5.21122865312634
C           -2.98417776717887        1.07259405187459       -6.31748122052874
C           -2.59727661344319        2.04235440597578       -7.22835727848283
C           -1.41848818522087        2.74087127733031       -7.02272420057747
C           -0.62552735362777        2.46936182305180       -5.92399526683814
C           -0.05661541879289       -1.16946983467185       -4.27739066873128
C            0.05836333821703       -2.45520534194271       -3.79088813412453
C           -4.75617836727996       -2.91527210580555       -2.19368565443458
C           -5.81054799961825       -2.10259373661891       -1.85520919561236
C           -7.86403637103985       -0.26715602995393       -0.96384718026571
C           -8.24796980013605        0.83672800117719       -0.23436850021437
C           -6.11296282688486        1.62577259965237        2.14774109343721
C           -4.82631261518118        2.10114593395862        2.06237152102782
C           -2.66101059626442        5.06227687846922        2.12953749160751
C           -1.32115803483519        5.36881737124918        1.98760222972179
H            1.28943701731631        5.80547350659621        1.29821591721128
H            1.62805677244268        2.77077528286754        1.20016145563180
H            4.94374544783290        7.64921864524141        0.59237718303655
H            6.78530601600713        9.30407987750621        0.33615129292662
H            9.11681718155492        8.49941073529097        0.19402530712410
H            9.62174550368347        6.13754998543456        0.27704944060158
H            9.96850066155691        4.21481793904151        0.22751609097767
H           10.39807073040069        1.83249870500012        0.18781050447221
H            8.53096622977280        0.21836468434007        0.37622315039282
H            6.23976789190385        1.03793042855219        0.65705818226502
H            5.04204412443066        1.69377357106879        3.13044019018172
H            4.45375509990807       -0.62986678983301        3.69240213441687
H            0.75599791115441       -0.68877621126082        2.42270759236108
H           -1.57106138485002       -1.38024716154116        2.06879849288467
H           -2.10444974802715       -3.73661461665851        1.53965164213056
H           -0.27797206808193       -5.38514921562960        1.35543425905729
H            2.05707525881924       -4.68953712791687        1.64484302214826
H            2.40448017266491       -3.99294056056186        4.19936192264455
H            4.03960813999124       -5.51124544296498        5.22538097239816
H            6.39783141048012       -5.48186289842829        4.49149368880047
H            7.10459296023297       -3.91605734939287        2.71592231195405
H            5.46117600528981       -2.41849406855656        1.66294745446842
H            2.25027055425364       -0.94722977541127        0.04526658958314
H            2.83431114668394        1.37690185535149       -0.51312196284730
H           -0.33453520246940        2.66463481026213        0.22786957612997
H           -2.70552413179978        2.12985799743942        0.46135364971553
H           -5.49441445416687        5.36673722282926        1.54397246353085
H           -7.79086502929246        4.52381251945974        1.69464720442875
H          -10.96347789105004        1.15860404807582        1.48400626515759
H          -12.94116135070010        1.87479170690356        2.75348210648986
H          -12.70803451456019        3.47070146228436        4.62722936927798
H          -10.46811293287105        4.32230586941242        5.22886205376011
H           -8.48605667667532        3.59003457150991        3.98437163067080
H           -8.78480241282468       -0.64335368242851        2.75297381766719
H           -8.00654191330134       -2.58490899776709        1.48570007428620
H           -7.52277446427760       -4.24152254691631        0.11244327873439
H           -5.62311270402825       -5.66334167816945       -0.44577323927824
H           -3.34920673361475       -5.94020024313422       -1.36228008171315
H           -2.19258603589172       -3.25027579594282       -2.24063119040726
H            0.09233304707862       -8.42845090914256       -0.41959393056655
H            1.57573097323960      -10.16777503039492        0.56354071361105
H            3.96437764051060       -9.65078629083795        0.92466416858102
H            4.87187036703256       -7.49300719580570        0.32058761430626
H            5.57351440425055       -5.75624498386592       -0.22855348893526
H            6.43219565746479       -3.59255361367725       -0.88952998955869
H            4.93173958675053       -1.89628439026278       -1.88746187430177
H            2.55619590551761       -2.41635181473974       -2.20851025807581
H            0.17864290195211       -1.78454003044129       -0.48128236430909
H            0.01854203836152        0.52294943360033       -1.34708474349509
H            2.33077819059585        1.21233013209881       -3.14229748895682
H            3.55766162780214        3.10417932200271       -2.13568943850205
H            2.39403578665185        5.22096282646361       -1.65734937794441
H           -0.00054634044585        5.45847947578297       -2.21937676471534
H           -1.21801858474837        3.58736918631704       -3.25945026236281
H           -2.51308750975628        0.05336797658441       -4.49611641037636
H           -3.90616553594796        0.52905849649569       -6.46448653837797
H           -3.21096586785310        2.25376915251998       -8.09098434323464
H           -1.10810053778984        3.49810788969255       -7.72780138787556
H            0.29680966641594        3.01045595178410       -5.77120844892443
H           -0.13311948179692       -1.00203666857838       -5.34102180597570
H            0.07533006545704       -3.29544214649818       -4.46971479263533
H           -4.01336585291909       -2.54753513843431       -2.88466177705269
H           -5.83538545502708       -1.10066124621474       -2.25404888011589
H           -7.67287187541806       -0.15408312165399       -2.01978736936373
H           -8.30359697118882        1.80845314358131       -0.70315845137720
H           -6.28155738475979        0.57572145897020        2.33194626817351
H           -4.00167131440361        1.41855007925738        2.20232926005593
H           -3.31071115402342        5.73990125857497        2.66456117623103
H           -0.93456298543379        6.28764441903740        2.40542974765587

          :  Hamiltonian                  GFN2-xTB          :
         :: gradient norm              0.000094604594 Eh/a0 ::
         :: HOMO-LUMO gap              1.840599954244 eV    ::
         :: SCC energy              -275.071434030874 Eh    ::
         :: -> dispersion             -0.285127138986 Eh    ::
         :: -> Gsolv                  -0.100369818120 Eh    ::
         :: repulsion energy           5.084725773632 Eh    ::

    * Orbital Energies and Occupations

         #    Occupation            Energy/Eh            Energy/eV
      -------------------------------------------------------------
         1        2.0000           -0.6878569             -18.7175
       ...           ...                  ...                  ...
       240        2.0000           -0.3998860             -10.8815
       241        2.0000           -0.3994145             -10.8686
       242        2.0000           -0.3870050             -10.5309
       243        2.0000           -0.3853564             -10.4861
       244        2.0000           -0.3837028             -10.4411
       245        2.0000           -0.3829735             -10.4212
       246        2.0000           -0.3807640             -10.3611
       247        2.0000           -0.3805606             -10.3556
       248        2.0000           -0.3616367              -9.8406
       249        2.0000           -0.3599893              -9.7958
       250        2.0000           -0.3576892              -9.7332
       251        2.0000           -0.3560046              -9.6874
       252        2.0000           -0.3474850              -9.4555 (HOMO)
       253                         -0.2798442              -7.6149 (LUMO)
       254                         -0.2764428              -7.5224
       255                         -0.2531272              -6.8879
       256                         -0.2521050              -6.8601
       257                         -0.2517124              -6.8494
       258                         -0.2495018              -6.7893
       259                         -0.2454749              -6.6797
       260                         -0.2433954              -6.6231
       261                         -0.2420639              -6.5869
       262                         -0.2415514              -6.5729
       263                         -0.2401875              -6.5358
       ...                                ...                  ...
       497                          0.7250661              19.7301
      -------------------------------------------------------------
                  HL-Gap            0.0676408 Eh            1.8406 eV

     #   Z          covCN         q      C6AA      α(0)
     1   6 C        2.904    -0.030    28.736     8.790
     2   6 C        2.898    -0.055    29.376     8.887
     3   6 C        3.180     0.139    24.585     8.094
     4   7 N        1.891    -0.316    29.040     7.989
     5   6 C        3.201     0.061    26.081     8.321
     6   6 C        2.984    -0.003    28.104     8.696
     7   6 C        2.921    -0.033    28.830     8.805
     8   6 C        2.917    -0.032    28.795     8.799
     9   6 C        2.917    -0.034    28.853     8.808
    10   6 C        2.921    -0.036    28.907     8.817
    11   6 C        2.978    -0.005    28.141     8.702
    12   6 C        2.979    -0.002    28.060     8.689
    13   6 C        2.922    -0.035    28.873     8.812
    14   6 C        2.916    -0.034    28.851     8.808
    15   6 C        2.916    -0.032    28.807     8.801
    16   6 C        2.919    -0.041    29.006     8.832
    17   6 C        2.978    -0.006    28.162     8.705
    18   6 C        3.071     0.024    27.408     8.584
    19   7 N        2.838    -0.054    22.289     7.012
    20   6 C        2.911     0.056    26.743     8.480
    21   6 C        2.920    -0.037    28.916     8.818
    22   6 C        2.922    -0.045    29.111     8.848
    23   6 C        2.924     0.068    26.488     8.440
    24   7 N        2.752    -0.077    22.734     7.082
    25   6 C        2.922     0.065    26.554     8.450
    26   6 C        2.922    -0.051    29.255     8.870
    27   6 C        2.919    -0.030    28.738     8.791
    28   6 C        2.918    -0.038    28.949     8.823
    29   6 C        2.919    -0.027    28.685     8.783
    30   6 C        2.922    -0.046    29.132     8.851
    31   6 C        2.923     0.064    26.570     8.453
    32   6 C        2.922    -0.047    29.169     8.857
    33   6 C        2.920    -0.029    28.733     8.790
    34   6 C        2.919    -0.038    28.943     8.822
    35   6 C        2.919    -0.029    28.723     8.789
    36   6 C        2.923    -0.047    29.167     8.857
    37   6 C        2.923    -0.046    29.153     8.854
    38   6 C        2.920    -0.042    29.050     8.839
    39   6 C        2.973     0.013    27.729     8.638
    40   6 C        2.924    -0.033    28.827     8.805
    41   6 C        2.925    -0.036    28.887     8.814
    42   6 C        2.976     0.010    27.786     8.647
    43   6 C        2.975     0.003    27.951     8.672
    44   6 C        2.922    -0.034    28.852     8.809
    45   6 C        2.918    -0.046    29.149     8.854
    46   6 C        2.941     0.065    26.548     8.451
    47   7 N        2.753    -0.089    22.976     7.119
    48   6 C        2.912     0.068    26.488     8.439
    49   6 C        2.924    -0.057    29.408     8.893
    50   6 C        2.919    -0.032    28.792     8.799
    51   6 C        2.918    -0.047    29.155     8.854
    52   6 C        2.920    -0.032    28.793     8.799
    53   6 C        2.922    -0.057    29.428     8.896
    54   6 C        2.946     0.065    26.548     8.451
    55   6 C        2.918    -0.041    29.024     8.835
    56   6 C        2.927    -0.035    28.867     8.811
    57   6 C        2.974     0.008    27.832     8.654
    58   6 C        2.974     0.010    27.796     8.648
    59   6 C        2.921    -0.035    28.864     8.810
    60   6 C        2.924    -0.034    28.854     8.809
    61   6 C        2.975     0.013    27.710     8.635
    62   6 C        2.901    -0.031    28.764     8.794
    63   6 C        2.901    -0.056    29.378     8.887
    64   6 C        3.185     0.139    24.559     8.087
    65   7 N        1.889    -0.317    29.073     7.993
    66   6 C        3.208     0.064    25.981     8.300
    67   6 C        2.984    -0.003    28.092     8.694
    68   6 C        2.921    -0.034    28.835     8.806
    69   6 C        2.917    -0.032    28.793     8.799
    70   6 C        2.917    -0.034    28.853     8.808
    71   6 C        2.921    -0.036    28.906     8.817
    72   6 C        2.978    -0.005    28.152     8.703
    73   6 C        2.979    -0.001    28.048     8.687
    74   6 C        2.922    -0.034    28.852     8.809
    75   6 C        2.917    -0.033    28.819     8.803
    76   6 C        2.916    -0.032    28.793     8.799
    77   6 C        2.920    -0.040    28.990     8.829
    78   6 C        2.978    -0.005    28.151     8.703
    79   6 C        3.073     0.027    27.322     8.570
    80   7 N        2.843    -0.057    22.348     7.021
    81   6 C        2.911     0.053    26.804     8.489
    82   6 C        2.919    -0.039    28.979     8.828
    83   6 C        2.922    -0.047    29.159     8.855
    84   6 C        2.921     0.068    26.482     8.439
    85   7 N        2.752    -0.074    22.679     7.073
    86   6 C        2.925     0.064    26.572     8.453
    87   6 C        2.921    -0.047    29.155     8.855
    88   6 C        2.920    -0.027    28.685     8.783
    89   6 C        2.918    -0.034    28.842     8.807
    90   6 C        2.920    -0.026    28.642     8.776
    91   6 C        2.922    -0.043    29.067     8.841
    92   6 C        2.924     0.063    26.582     8.455
    93   6 C        2.922    -0.048    29.188     8.860
    94   6 C        2.919    -0.029    28.734     8.790
    95   6 C        2.919    -0.038    28.940     8.822
    96   6 C        2.919    -0.029    28.722     8.788
    97   6 C        2.922    -0.047    29.176     8.858
    98   6 C        2.922    -0.047    29.176     8.858
    99   6 C        2.919    -0.038    28.950     8.823
   100   6 C        2.923    -0.035    28.868     8.811
   101   6 C        2.927    -0.036    28.904     8.817
   102   6 C        2.926    -0.034    28.852     8.809
   103   6 C        2.922    -0.044    29.083     8.844
   104   6 C        2.923    -0.050    29.236     8.867
   105   6 C        2.927    -0.035    28.875     8.812
   106   6 C        2.920    -0.034    28.857     8.809
   107   6 C        2.923    -0.034    28.847     8.808
   108   1 H        0.926     0.054     2.273     2.358
   109   1 H        0.926     0.037     2.493     2.469
   110   1 H        0.926     0.044     2.402     2.424
   111   1 H        0.926     0.032     2.552     2.498
   112   1 H        0.926     0.032     2.564     2.504
   113   1 H        0.926     0.034     2.529     2.487
   114   1 H        0.926     0.037     2.495     2.470
   115   1 H        0.926     0.032     2.554     2.499
   116   1 H        0.926     0.031     2.574     2.509
   117   1 H        0.926     0.028     2.620     2.531
   118   1 H        0.926     0.043     2.412     2.429
   119   1 H        0.926     0.045     2.386     2.416
   120   1 H        0.926     0.031     2.566     2.505
   121   1 H        0.926     0.036     2.505     2.475
   122   1 H        0.926     0.030     2.585     2.514
   123   1 H        0.926     0.032     2.558     2.501
   124   1 H        0.926     0.026     2.637     2.539
   125   1 H        0.926     0.032     2.554     2.499
   126   1 H        0.926     0.035     2.510     2.477
   127   1 H        0.926     0.035     2.517     2.481
   128   1 H        0.926     0.036     2.504     2.475
   129   1 H        0.926     0.030     2.580     2.512
   130   1 H        0.926     0.045     2.377     2.411
   131   1 H        0.926     0.049     2.336     2.390
   132   1 H        0.926     0.028     2.616     2.529
   133   1 H        0.926     0.035     2.510     2.478
   134   1 H        0.926     0.038     2.470     2.458
   135   1 H        0.926     0.037     2.482     2.464
   136   1 H        0.926     0.025     2.663     2.552
   137   1 H        0.926     0.026     2.643     2.542
   138   1 H        0.926     0.023     2.685     2.562
   139   1 H        0.926     0.026     2.646     2.544
   140   1 H        0.926     0.026     2.637     2.540
   141   1 H        0.926     0.038     2.477     2.461
   142   1 H        0.926     0.043     2.409     2.427
   143   1 H        0.926     0.038     2.478     2.461
   144   1 H        0.926     0.037     2.491     2.468
   145   1 H        0.926     0.050     2.320     2.382
   146   1 H        0.925     0.038     2.479     2.462
   147   1 H        0.926     0.043     2.411     2.428
   148   1 H        0.926     0.032     2.551     2.498
   149   1 H        0.926     0.032     2.563     2.503
   150   1 H        0.926     0.033     2.540     2.492
   151   1 H        0.926     0.036     2.508     2.476
   152   1 H        0.926     0.032     2.561     2.503
   153   1 H        0.926     0.029     2.600     2.521
   154   1 H        0.926     0.026     2.650     2.546
   155   1 H        0.926     0.042     2.425     2.435
   156   1 H        0.926     0.042     2.419     2.432
   157   1 H        0.926     0.032     2.556     2.500
   158   1 H        0.926     0.026     2.637     2.539
   159   1 H        0.926     0.036     2.497     2.471
   160   1 H        0.926     0.038     2.476     2.461
   161   1 H        0.926     0.038     2.474     2.460
   162   1 H        0.926     0.032     2.561     2.503
   163   1 H        0.926     0.036     2.500     2.473
   164   1 H        0.926     0.034     2.529     2.487
   165   1 H        0.926     0.035     2.516     2.480
   166   1 H        0.926     0.032     2.557     2.500
   167   1 H        0.926     0.046     2.372     2.408
   168   1 H        0.926     0.041     2.432     2.438
   169   1 H        0.926     0.033     2.548     2.496
   170   1 H        0.926     0.040     2.451     2.448
   171   1 H        0.926     0.043     2.406     2.426
   172   1 H        0.926     0.039     2.462     2.454
   173   1 H        0.926     0.032     2.557     2.500
   174   1 H        0.926     0.035     2.510     2.478
   175   1 H        0.926     0.036     2.499     2.472
   176   1 H        0.926     0.036     2.500     2.473

molecular dipole:
                 x           y           z       tot (Debye)
 q only:       -0.570       0.100      -0.551
   full:       -0.065      -0.007      -0.515       1.319

 projected vibrational frequencies (cm⁻¹)
eigval :       -0.00    -0.00    -0.00     0.00     0.00     0.00
eigval :        1.92     7.69     8.93    10.78    13.64    15.37
eigval :       16.96    18.95    19.47    21.08    22.81    28.05
eigval :       28.89    31.63    35.01    38.50    41.11    42.77
eigval :       43.61    47.49    51.67    52.36    57.45    59.68
eigval :       60.11    61.67    63.15    68.64    69.80    75.35
eigval :       79.13    79.91    82.30    84.59    88.98    90.25
eigval :       92.79    98.00   101.30   103.19   106.91   109.30
eigval :      116.49   127.14   138.10   139.27   146.59   153.35
eigval :      159.07   163.78   167.64   172.74   174.95   181.55
eigval :      183.86   190.53   201.58   212.02   212.20   219.33
eigval :      223.54   229.17   235.34   236.24   242.87   244.07
eigval :      256.26   261.08   265.77   268.54   279.87   289.66
eigval :      301.68   303.31   305.07   307.80   316.11   318.22
eigval :      340.38   343.62   345.47   350.97   359.13   362.96
eigval :      366.01   367.54   372.84   375.08   379.69   379.97
eigval :      380.62   382.39   383.62   386.76   387.61   389.65
eigval :      390.98   393.07   395.44   396.35   400.28   401.17
eigval :      409.48   412.23   414.37   420.85   423.57   429.29
eigval :      431.74   442.83   446.19   448.21   457.65   461.50
eigval :      470.04   471.75   473.61   478.39   480.78   491.24
eigval :      494.71   498.68   500.53   505.91   509.69   517.67
eigval :      518.97   524.69   525.12   534.69   536.47   536.58
eigval :      545.79   572.45   580.35   581.66   582.45   585.37
eigval :      585.48   586.28   586.78   589.77   591.91   593.39
eigval :      600.88   603.92   605.86   610.42   611.84   614.56
eigval :      620.36   622.15   637.16   639.57   646.15   649.82
eigval :      651.35   653.44   659.92   660.26   663.39   663.86
eigval :      664.62   669.85   671.48   672.01   674.18   676.30
eigval :      676.49   679.69   681.52   685.09   696.33   700.40
eigval :      702.92   707.40   725.80   730.41   732.61   733.98
eigval :      734.79   749.90   754.57   756.38   756.91   757.97
eigval :      760.98   763.19   764.51   764.89   766.81   774.14
eigval :      779.76   780.96   782.62   804.95   808.77   816.97
eigval :      821.76   826.23   828.33   845.20   848.46   848.83
eigval :      854.78   861.37   862.52   864.04   866.28   866.62
eigval :      870.98   871.29   872.19   872.97   873.53   873.68
eigval :      875.06   875.91   878.68   880.63   880.80   891.37
eigval :      891.47   897.37   898.01   905.33   908.73   908.90
eigval :      909.22   909.62   911.66   912.42   912.96   913.42
eigval :      914.22   915.24   916.95   917.68   918.97   919.41
eigval :      920.49   920.92   922.24   922.81   924.82   925.46
eigval :      925.71   926.08   926.47   926.92   926.94   927.10
eigval :      927.42   928.42   928.90   929.75   930.00   932.77
eigval :      935.75   940.69   940.93   941.74   947.41   978.70
eigval :      982.28   982.78   984.87   990.35   992.73   998.96
eigval :     1003.96  1004.77  1009.03  1010.43  1015.82  1016.96
eigval :     1018.66  1021.58  1062.20  1063.73  1072.62  1079.76
eigval :     1081.05  1082.23  1082.77  1082.93  1082.95  1083.45
eigval :     1084.41  1086.50  1087.77  1106.06  1106.89  1120.89
eigval :     1121.06  1122.75  1123.49  1124.07  1129.18  1130.81
eigval :     1134.65  1136.45  1143.45  1145.99  1146.00  1151.61
eigval :     1164.55  1166.27  1177.49  1178.51  1178.86  1179.29
eigval :     1180.38  1180.62  1180.85  1181.26  1181.67  1182.01
eigval :     1182.97  1184.35  1185.24  1185.92  1188.06  1190.49
eigval :     1193.76  1194.34  1194.69  1197.94  1203.06  1203.48
eigval :     1209.40  1213.06  1214.30  1216.24  1225.52  1226.25
eigval :     1230.84  1252.20  1253.32  1255.82  1256.18  1261.03
eigval :     1261.88  1263.98  1264.55  1269.01  1275.53  1276.72
eigval :     1277.07  1279.75  1280.47  1281.10  1281.46  1283.58
eigval :     1284.49  1287.40  1290.56  1297.83  1302.44  1304.35
eigval :     1305.11  1308.15  1308.61  1311.20  1311.85  1314.40
eigval :     1317.85  1320.20  1321.81  1322.06  1322.35  1324.27
eigval :     1325.40  1326.93  1329.31  1329.75  1337.13  1338.13
eigval :     1338.45  1340.17  1349.23  1350.82  1352.13  1379.86
eigval :     1382.43  1391.65  1395.23  1404.40  1404.51  1410.88
eigval :     1411.67  1412.14  1412.30  1419.36  1421.14  1431.24
eigval :     1432.04  1433.57  1434.85  1436.03  1438.42  1441.50
eigval :     1441.65  1442.15  1463.89  1468.46  1469.85  1470.62
eigval :     1472.42  1473.26  1480.53  1482.15  1482.93  1493.84
eigval :     1495.48  1504.64  1505.04  1512.69  1515.77  1538.02
eigval :     1539.13  1543.46  1546.62  1551.38  1552.90  1554.82
eigval :     1557.24  1560.04  1560.21  1564.32  1565.36  1570.02
eigval :     1575.46  1575.69  1577.36  1579.48  1580.68  1581.11
eigval :     1589.71  1590.06  1590.49  1591.21  1591.53  1592.40
eigval :     1593.35  1596.04  1598.05  1598.73  1602.17  1602.41
eigval :     1602.65  1626.66  1627.02  3062.58  3066.85  3067.94
eigval :     3068.72  3069.01  3069.46  3069.71  3069.89  3071.80
eigval :     3072.22  3072.72  3073.48  3073.84  3074.05  3074.50
eigval :     3074.65  3074.72  3075.32  3075.56  3077.22  3078.22
eigval :     3078.76  3080.12  3080.18  3081.17  3081.57  3081.73
eigval :     3082.25  3082.70  3082.96  3083.36  3083.65  3083.79
eigval :     3084.23  3084.74  3084.84  3085.16  3085.86  3085.98
eigval :     3086.04  3087.17  3087.46  3089.61  3090.61  3091.41
eigval :     3092.28  3092.40  3093.15  3093.29  3095.34  3095.39
eigval :     3095.64  3095.70  3096.33  3097.59  3097.96  3098.15
eigval :     3098.31  3098.41  3101.40  3101.48  3102.31  3104.08
eigval :     3104.68  3108.44  3109.27  3110.71  3111.71  3119.92

   temp. (K)  partition function   enthalpy   heat capacity  entropy
                                   cal/mol     cal/K/mol   cal/K/mol   J/K/mol
 298.15  VIB  0.164E+45            52646.463    324.084    334.855
         ROT  0.688E+09              888.752      2.981     43.419
         INT  0.113E+54            53535.215    327.064    378.274
         TR   0.490E+29             1481.254      4.968     47.495
         TOT                       55016.4693   332.0326   425.7697  1781.4206

       T/K    H(0)-H(T)+PV         H(T)/Eh          T*S/Eh         G(T)/Eh
   ------------------------------------------------------------------------
    298.15    0.876743E-01    0.145046E+01    0.202297E+00    0.124817E+01
   ------------------------------------------------------------------------

         :::::::::::::::::::::::::::::::::::::::::::::::::::::
         ::                  THERMODYNAMIC                  ::
         :::::::::::::::::::::::::::::::::::::::::::::::::::::
         :: total free energy        -268.738540292102 Eh   ::
         ::.................................................::
         :: total energy             -269.986708249447 Eh   ::
         :: zero point energy           1.362790577107 Eh   ::
         :: G(RRHO) w/o ZPVE           -0.114622619762 Eh   ::
         :: G(RRHO) contrib.            1.248167957345 Eh   ::
         :::::::::::::::::::::::::::::::::::::::::::::::::::::

           -------------------------------------------------
          | TOTAL ENERGY             -269.986708249447 Eh   |
          | TOTAL ENTHALPY           -268.536243347769 Eh   |
          | TOTAL FREE ENERGY        -268.738540292102 Eh   |
          | GRADIENT NORM               0.000094600823 Eh/α |
          | HOMO-LUMO GAP               1.840599861885 eV   |
           -------------------------------------------------

 * finished run on 2025/09/07 at 14:36:21.369
