   * xtb version 6.7.1 (edcfbbe) compiled by 'albert@albert-system' on 2024-07-22

   ID    Z sym.   atoms
    1    8 O      1
    2    6 C      2-34, 36-49, 51-56
    3    7 N      35, 50
    4    1 H      57-94

          program call               : xtb data2507/toluene/HITPE/HITPE_toluene_S0_finalOpt.xtbopt.xyz --gfn 2 --uhf 2 --gbsa toluene --ohess vtight --parallel 40 --molden --ceasefiles --namespace data2507/toluene/HITPE/HITPE_toluene_T1_preOpt
      * Solvation model:               GBSA
        Solvent                        toluene
        Solvent mass                       9.2140E+01 g/mol
          :  Hamiltonian                  GFN2-xTB          :
 * total energy  :  -142.7330855 Eh     change       -0.1350571E-08 Eh
 * total energy  :  -142.7428572 Eh     change       -0.9771741E-02 Eh
 * total energy  :  -142.7469271 Eh     change       -0.4069832E-02 Eh
 * total energy  :  -142.7481781 Eh     change       -0.1251056E-02 Eh
 * total energy  :  -142.7497945 Eh     change       -0.1616415E-02 Eh
 * total energy  :  -142.7512286 Eh     change       -0.1434014E-02 Eh
 * total energy  :  -142.7524401 Eh     change       -0.1211569E-02 Eh
 * total energy  :  -142.7533009 Eh     change       -0.8607567E-03 Eh
 * total energy  :  -142.7538228 Eh     change       -0.5218799E-03 Eh
 * total energy  :  -142.7542137 Eh     change       -0.3909174E-03 Eh
 * total energy  :  -142.7614277 Eh     change       -0.5931544E-06 Eh
 * total energy  :  -142.7614283 Eh     change       -0.6621190E-06 Eh
 * total energy  :  -142.7614292 Eh     change       -0.8598492E-06 Eh
 * total energy  :  -142.7614303 Eh     change       -0.1113434E-05 Eh
 * total energy  :  -142.7614316 Eh     change       -0.1273003E-05 Eh
 * total energy  :  -142.7614329 Eh     change       -0.1277521E-05 Eh
 * total energy  :  -142.7614343 Eh     change       -0.1397711E-05 Eh
 * total energy  :  -142.7614357 Eh     change       -0.1400160E-05 Eh
 * total energy  :  -142.7614357 Eh     change       -0.6094353E-08 Eh
   *** GEOMETRY OPTIMIZATION CONVERGED AFTER 122 ITERATIONS ***

 final structure:
================
94
 xtb: 6.7.1 (edcfbbe)
O           -3.85197571123732        1.80310278820724        2.88369849549727
C           -2.60369359454970        1.63439269615763        2.36455202160372
C           -1.49763708522050        2.28184068594621        2.90088777584226
C           -0.23230956068776        2.05389083994921        2.39967153461617
C           -0.02911050703088        1.16167485006955        1.34472630756957
C            1.31152326899401        0.90400335432350        0.82116037856764
C            2.42639140245757        0.86842583884862        1.66968165118761
C            3.68318028780673        0.61664720571045        1.18394249955898
C            3.91468080691214        0.41894643748377       -0.19742858430411
C            5.21901858618526        0.13664345983120       -0.68105393629369
C            6.22253020552026       -0.40484184169807        0.25410257395176
C            7.44181365381638        0.32308871739918        0.41969126318128
C            7.48276483375184        1.71004675374008        0.16696997834552
C            8.65531007439043        2.42051801855531        0.28390241269169
C            9.83552463572115        1.77863951009125        0.63820084888329
C            9.82438874567371        0.40869437155468        0.86544628327590
C            8.65417565634868       -0.31016682657180        0.76242506846908
C            5.93200729335184       -1.62904580331239        0.92832376611935
C            4.98480123151576       -2.53107483426171        0.39808943360549
C            4.67118463955787       -3.70002498137335        1.05234419183609
C            5.27181755324617       -4.01175720975162        2.26597334031296
C            6.18554229360598       -3.12525071275549        2.82154458697870
C            6.51384995752401       -1.95685715640917        2.17147679555964
C            5.62864512120053        0.35159233327403       -2.03872582779352
C            6.67447636534825       -0.40957604660188       -2.59608229642985
C            7.10676222446818       -0.18850443923347       -3.88425643664471
C            6.52970240549919        0.80966222670454       -4.65874769438562
C            5.51610329688097        1.59013177652536       -4.11962440549701
C            5.06819776477681        1.36865544072823       -2.83569401652180
C            2.78160000094155        0.44473541940716       -1.04331413119459
C            1.52436499116869        0.66928826968594       -0.54338637008936
C           -1.14549857234643        0.52691127197627        0.80304894671107
C           -2.42691662113356        0.76104785530743        1.28230640199400
C           -3.54698400869547        0.04807529477468        0.67794470737309
N           -3.53842031684262       -1.23534874624193        0.42173614752189
C           -4.75384443728748       -1.53774668836181       -0.12212897018983
C           -5.05638618021541       -2.89536755282988       -0.55212162447597
C           -5.95976711752732       -3.16088145159558       -1.58020799591283
C           -6.22350832203841       -4.46412946837367       -1.95862807422216
C           -5.58576292916956       -5.51988791652072       -1.32733257777264
C           -4.66987840195504       -5.26388115789502       -0.31925069343838
C           -4.40453362450095       -3.96342482329489        0.06430649199997
C           -5.52373937074667       -0.38941535820397       -0.19203661103021
C           -6.88059132222427       -0.16882592292398       -0.67890633214310
C           -7.15731488681530        0.84261204175966       -1.59725883906652
C           -8.44934824747208        1.04263379724407       -2.04767637838669
C           -9.48016305313201        0.23892646501316       -1.58969446802548
C           -9.21274177357587       -0.77207804980807       -0.67994577661750
C           -7.92370311988944       -0.97579904100386       -0.22538646663583
N           -4.73429636482191        0.62120312874146        0.31342227669929
C           -5.07936716941980        1.98083661362225        0.41251784507377
C           -4.21357787652268        2.94698611644947       -0.08785396603798
C           -4.54941619409086        4.28563980691013        0.00787490863556
C           -5.74740255846443        4.66407214746329        0.59083339939349
C           -6.61005750665790        3.69917783536633        1.08528848657113
C           -6.28029224055438        2.35909625250733        1.00187936512101
H           -3.81071854008306        2.41279364733860        3.63284001420480
H           -1.63699960710612        2.96702220859937        3.72666597604533
H            0.60620462127472        2.58578894657979        2.82251810818429
H            2.28836338304849        1.01366830647153        2.73128762245075
H            4.52498140834977        0.59290083325386        1.86048591222348
H            6.56722203015758        2.21921437795585       -0.09680185605197
H            8.65761969283724        3.48544569706060        0.09854631194444
H           10.75545254304746        2.33764059161802        0.72433824539928
H           10.74393577096197       -0.10148721349868        1.11631707298661
H            8.67125740458152       -1.38222331945054        0.89217277743347
H            4.52262047949973       -2.30502388738915       -0.55181647332126
H            3.95178114944096       -4.37991621479791        0.61818104207387
H            5.02145840616092       -4.92871619787688        2.77843144928618
H            6.63688163582367       -3.34865404276013        3.77815835412933
H            7.18711752818978       -1.25477639876933        2.64064450686907
H            7.12104123671987       -1.19597233021016       -2.00490684436998
H            7.90121251776651       -0.79594376927573       -4.29434691059368
H            6.87391327683069        0.98437582704053       -5.66733656488540
H            5.07943061003951        2.38524575469772       -4.70771315312608
H            4.31308216490490        2.01507274459675       -2.41342220257804
H            2.90486777799306        0.23095545847444       -2.09459713988933
H            0.68156846375016        0.67986251341248       -1.21945976819875
H           -1.03325626506217       -0.18917454607949        0.00358302430828
H           -6.44822285746230       -2.34370519980190       -2.09023090917088
H           -6.92774168234429       -4.65633537080308       -2.75574156870168
H           -5.79669737255197       -6.53698014384580       -1.62469719999811
H           -4.16147861642085       -6.08258709731000        0.17006336355520
H           -3.69052812523125       -3.74936187741110        0.84536189374670
H           -6.35456951281622        1.46465497310871       -1.96740796284504
H           -8.65039127953082        1.82840053830720       -2.76133891682406
H          -10.48858207418906        0.39735207484148       -1.94234697312541
H          -10.01274810581332       -1.40273589599806       -0.32028993359294
H           -7.71157328625818       -1.76189748928295        0.48517870604827
H           -3.28410967644223        2.64505361019001       -0.54868473829815
H           -3.87318746842631        5.03287830947032       -0.38007364852908
H           -6.00822699716155        5.70939902228306        0.65994036897765
H           -7.54343357969802        3.98964339833003        1.54384102422492
H           -6.94095202170132        1.60383964430133        1.39946051664347

          :  Hamiltonian                  GFN2-xTB          :
         :: gradient norm              0.000058651183 Eh/a0 ::
         :: HOMO-LUMO gap              1.297727739057 eV    ::
         :: SCC energy              -145.423513071816 Eh    ::
         :: -> dispersion             -0.134340894036 Eh    ::
         :: -> Gsolv                  -0.060794392129 Eh    ::
         :: repulsion energy           2.662077399824 Eh    ::

    * Orbital Energies and Occupations

         #    Occupation            Energy/Eh            Energy/eV
      -------------------------------------------------------------
         1        2.0000           -0.7209726             -19.6187
       ...           ...                  ...                  ...
       122        2.0000           -0.4048044             -11.0153
       123        2.0000           -0.4038403             -10.9891
       124        2.0000           -0.4023134             -10.9475
       125        2.0000           -0.4014388             -10.9237
       126        2.0000           -0.4010153             -10.9122
       127        2.0000           -0.3991441             -10.8613
       128        2.0000           -0.3960303             -10.7765
       129        2.0000           -0.3938173             -10.7163
       130        2.0000           -0.3816520             -10.3853
       131        2.0000           -0.3761658             -10.2360
       132        2.0000           -0.3613725              -9.8334
       133        1.0000           -0.3340276              -9.0894
       134        1.0000           -0.3004702              -8.1762 (HOMO)
       135                         -0.2527794              -6.8785 (LUMO)
       136                         -0.2432015              -6.6178
       137                         -0.2398520              -6.5267
       138                         -0.2350027              -6.3947
       139                         -0.2332066              -6.3459
       140                         -0.2269565              -6.1758
       141                         -0.2265106              -6.1637
       142                         -0.2201074              -5.9894
       143                         -0.2192279              -5.9655
       144                         -0.2190414              -5.9604
       145                         -0.2183209              -5.9408
       ...                                ...                  ...
       262                          0.7069637              19.2375
      -------------------------------------------------------------
                  HL-Gap            0.0476907 Eh            1.2977 eV

     #   Z          covCN         q      C6AA      α(0)
     1   8 O        1.659    -0.409    21.021     6.189
     2   6 C        2.848     0.137    25.000     8.195
     3   6 C        2.915    -0.071    29.763     8.946
     4   6 C        2.925    -0.036    28.896     8.815
     5   6 C        2.972     0.003    27.958     8.673
     6   6 C        2.975     0.008    27.840     8.655
     7   6 C        2.919    -0.035    28.862     8.810
     8   6 C        2.921    -0.035    28.872     8.812
     9   6 C        2.970     0.013    27.716     8.635
    10   6 C        2.970    -0.006    28.160     8.704
    11   6 C        2.970    -0.006    28.178     8.707
    12   6 C        2.971     0.015    27.684     8.631
    13   6 C        2.924    -0.035    28.862     8.810
    14   6 C        2.915    -0.030    28.751     8.793
    15   6 C        2.919    -0.033    28.827     8.805
    16   6 C        2.915    -0.031    28.764     8.795
    17   6 C        2.921    -0.036    28.884     8.813
    18   6 C        2.970     0.015    27.679     8.630
    19   6 C        2.924    -0.034    28.852     8.809
    20   6 C        2.915    -0.030    28.740     8.791
    21   6 C        2.919    -0.033    28.815     8.803
    22   6 C        2.915    -0.031    28.761     8.794
    23   6 C        2.921    -0.036    28.894     8.815
    24   6 C        2.971     0.015    27.681     8.630
    25   6 C        2.924    -0.034    28.852     8.809
    26   6 C        2.915    -0.030    28.750     8.793
    27   6 C        2.919    -0.033    28.823     8.804
    28   6 C        2.915    -0.031    28.766     8.795
    29   6 C        2.922    -0.035    28.883     8.813
    30   6 C        2.919    -0.036    28.902     8.816
    31   6 C        2.919    -0.035    28.870     8.811
    32   6 C        2.933    -0.038    28.939     8.822
    33   6 C        2.970    -0.021    28.538     8.763
    34   6 C        3.167     0.142    24.592     8.103
    35   7 N        1.911    -0.322    29.201     8.012
    36   6 C        3.169     0.053    26.454     8.403
    37   6 C        2.972     0.006    27.888     8.662
    38   6 C        2.923    -0.040    28.983     8.829
    39   6 C        2.919    -0.032    28.792     8.799
    40   6 C        2.919    -0.034    28.849     8.808
    41   6 C        2.918    -0.031    28.785     8.798
    42   6 C        2.927    -0.032    28.794     8.800
    43   6 C        3.072     0.015    27.601     8.614
    44   6 C        2.971     0.006    27.874     8.660
    45   6 C        2.924    -0.034    28.853     8.809
    46   6 C        2.918    -0.030    28.742     8.792
    47   6 C        2.920    -0.031    28.781     8.798
    48   6 C        2.918    -0.029    28.717     8.788
    49   6 C        2.925    -0.033    28.824     8.804
    50   7 N        2.851    -0.039    21.989     6.965
    51   6 C        2.914     0.074    26.357     8.419
    52   6 C        2.922    -0.041    29.010     8.833
    53   6 C        2.920    -0.028    28.696     8.785
    54   6 C        2.919    -0.031    28.778     8.797
    55   6 C        2.921    -0.027    28.675     8.781
    56   6 C        2.921    -0.034    28.851     8.808
    57   1 H        0.805     0.317     0.673     1.289
    58   1 H        0.925     0.042     2.425     2.435
    59   1 H        0.926     0.047     2.356     2.400
    60   1 H        0.926     0.033     2.540     2.492
    61   1 H        0.926     0.031     2.576     2.510
    62   1 H        0.926     0.029     2.606     2.524
    63   1 H        0.926     0.029     2.604     2.523
    64   1 H        0.926     0.029     2.596     2.520
    65   1 H        0.926     0.030     2.584     2.514
    66   1 H        0.926     0.035     2.521     2.483
    67   1 H        0.926     0.028     2.610     2.526
    68   1 H        0.926     0.029     2.602     2.522
    69   1 H        0.926     0.030     2.592     2.518
    70   1 H        0.926     0.030     2.581     2.512
    71   1 H        0.926     0.035     2.514     2.479
    72   1 H        0.926     0.028     2.611     2.527
    73   1 H        0.926     0.029     2.604     2.523
    74   1 H        0.926     0.029     2.594     2.519
    75   1 H        0.926     0.030     2.579     2.511
    76   1 H        0.926     0.035     2.515     2.480
    77   1 H        0.926     0.036     2.498     2.471
    78   1 H        0.926     0.032     2.563     2.503
    79   1 H        0.926     0.048     2.346     2.395
    80   1 H        0.926     0.024     2.678     2.559
    81   1 H        0.926     0.029     2.594     2.519
    82   1 H        0.926     0.031     2.576     2.510
    83   1 H        0.926     0.031     2.571     2.508
    84   1 H        0.926     0.042     2.429     2.437
    85   1 H        0.926     0.024     2.670     2.555
    86   1 H        0.926     0.035     2.521     2.483
    87   1 H        0.926     0.036     2.503     2.474
    88   1 H        0.926     0.036     2.508     2.476
    89   1 H        0.926     0.029     2.601     2.522
    90   1 H        0.926     0.034     2.531     2.488
    91   1 H        0.926     0.044     2.395     2.420
    92   1 H        0.926     0.045     2.381     2.413
    93   1 H        0.926     0.045     2.386     2.416
    94   1 H        0.926     0.040     2.453     2.449

molecular dipole:
                 x           y           z       tot (Debye)
 q only:       -0.158       1.692       0.499
   full:       -0.376       2.023       0.592       5.443

 projected vibrational frequencies (cm⁻¹)
eigval :       -0.00    -0.00    -0.00     0.00     0.00     0.00
eigval :        5.30     7.81    11.00    14.91    20.26    27.36
eigval :       28.62    34.48    41.43    45.64    47.92    49.29
eigval :       54.84    59.27    61.78    68.25    71.01    79.33
eigval :       84.21    92.41   100.78   115.01   123.09   126.23
eigval :      135.33   149.76   179.11   187.67   199.07   211.08
eigval :      212.92   223.18   231.94   235.86   243.42   250.48
eigval :      257.62   269.56   276.37   297.35   316.79   335.67
eigval :      356.85   358.51   365.03   366.68   367.95   368.92
eigval :      373.57   382.35   386.22   387.60   389.78   395.94
eigval :      412.63   426.62   437.69   453.11   460.14   469.79
eigval :      472.41   489.91   495.17   506.16   517.11   533.65
eigval :      540.11   569.93   578.17   583.67   585.03   586.24
eigval :      586.51   589.03   589.47   600.69   611.01   617.38
eigval :      627.70   639.67   644.77   655.69   656.26   658.83
eigval :      660.64   663.76   666.36   671.49   676.84   685.97
eigval :      690.12   697.74   705.71   724.07   745.22   747.27
eigval :      750.53   752.47   759.79   762.55   783.68   806.38
eigval :      828.56   834.31   849.31   852.30   855.53   864.18
eigval :      867.50   872.82   874.32   876.68   881.25   881.95
eigval :      891.63   896.34   896.61   898.64   899.41   902.49
eigval :      910.28   917.24   921.25   921.54   922.38   923.58
eigval :      923.90   924.53   925.46   927.57   928.58   928.70
eigval :      929.81   930.96   942.14   942.39   942.65   954.17
eigval :      969.71   973.90   980.08   987.77   996.44  1010.00
eigval :     1024.42  1078.12  1078.51  1079.09  1079.56  1080.61
eigval :     1081.45  1082.00  1090.53  1104.34  1116.17  1117.39
eigval :     1118.89  1119.75  1121.62  1123.63  1132.60  1146.95
eigval :     1154.34  1173.09  1177.62  1177.66  1177.84  1178.19
eigval :     1179.25  1179.54  1188.74  1190.70  1191.82  1193.98
eigval :     1198.66  1199.64  1208.49  1211.30  1239.08  1251.90
eigval :     1261.29  1267.94  1270.72  1272.80  1275.56  1277.76
eigval :     1280.66  1281.77  1285.44  1303.23  1305.44  1313.06
eigval :     1315.47  1316.97  1319.25  1320.09  1325.36  1327.48
eigval :     1329.53  1330.66  1333.33  1344.38  1363.40  1393.90
eigval :     1410.87  1417.80  1419.60  1426.46  1427.73  1430.04
eigval :     1432.87  1434.72  1435.62  1440.35  1451.93  1454.87
eigval :     1458.15  1477.69  1486.86  1488.15  1501.90  1535.76
eigval :     1536.56  1539.60  1542.83  1558.37  1559.90  1566.96
eigval :     1569.18  1577.05  1577.32  1579.73  1582.31  1585.32
eigval :     1592.81  1594.56  1596.27  1598.53  3059.50  3064.70
eigval :     3064.94  3065.32  3065.83  3065.94  3066.62  3067.02
eigval :     3068.50  3069.25  3071.39  3071.71  3073.38  3077.29
eigval :     3077.68  3078.65  3079.72  3080.13  3080.19  3081.04
eigval :     3082.14  3082.19  3082.67  3083.90  3084.89  3086.82
eigval :     3087.64  3088.56  3089.26  3089.83  3090.90  3091.82
eigval :     3093.40  3094.44  3095.35  3099.71  3100.70  3488.77

   temp. (K)  partition function   enthalpy   heat capacity  entropy
                                   cal/mol     cal/K/mol   cal/K/mol   J/K/mol
 298.15  VIB  0.307E+24            27658.940    169.442    176.531
         ROT  0.159E+09              888.752      2.981     40.504
         INT  0.487E+32            28547.692    172.423    217.036
         TR   0.186E+29             1481.254      4.968     45.577
         TOT                       30028.9462   177.3911   262.6128  1098.7719

       T/K    H(0)-H(T)+PV         H(T)/Eh          T*S/Eh         G(T)/Eh
   ------------------------------------------------------------------------
    298.15    0.478542E-01    0.775456E+00    0.124776E+00    0.650680E+00
   ------------------------------------------------------------------------

         :::::::::::::::::::::::::::::::::::::::::::::::::::::
         ::                  THERMODYNAMIC                  ::
         :::::::::::::::::::::::::::::::::::::::::::::::::::::
         :: total free energy        -142.110755548960 Eh   ::
         ::.................................................::
         :: total energy             -142.761435676011 Eh   ::
         :: zero point energy           0.727601762553 Eh   ::
         :: G(RRHO) w/o ZPVE           -0.076921635503 Eh   ::
         :: G(RRHO) contrib.            0.650680127051 Eh   ::
         :::::::::::::::::::::::::::::::::::::::::::::::::::::

           -------------------------------------------------
          | TOTAL ENERGY             -142.761435676011 Eh   |
          | TOTAL ENTHALPY           -141.985979741668 Eh   |
          | TOTAL FREE ENERGY        -142.110755548960 Eh   |
          | GRADIENT NORM               0.000058660044 Eh/α |
          | HOMO-LUMO GAP               1.297731030213 eV   |
           -------------------------------------------------

 * finished run on 2025/07/20 at 20:43:50.572
