   * xtb version 6.7.1 (edcfbbe) compiled by 'albert@albert-system' on 2024-07-22

   ID    Z sym.   atoms
    1    8 O      1
    2    6 C      2-34, 36-49, 51-56
    3    7 N      35, 50
    4    1 H      57-94

          program call               : xtb data2507/toluene/HITPE/HITPE.xyz --gfn 2 --gbsa toluene --ohess vtight --parallel 40 --molden --ceasefiles --namespace data2507/toluene/HITPE/HITPE_toluene_S0_preOpt
      * Solvation model:               GBSA
        Solvent                        toluene
        Solvent mass                       9.2140E+01 g/mol
          :  Hamiltonian                  GFN2-xTB          :
 * total energy  :  -142.7987518 Eh     change       -0.2446654E-08 Eh
 * total energy  :  -142.8110709 Eh     change       -0.1231913E-01 Eh
 * total energy  :  -142.8142320 Eh     change       -0.3161105E-02 Eh
 * total energy  :  -142.8152978 Eh     change       -0.1065814E-02 Eh
 * total energy  :  -142.8160162 Eh     change       -0.7184270E-03 Eh
 * total energy  :  -142.8165301 Eh     change       -0.5138585E-03 Eh
 * total energy  :  -142.8171313 Eh     change       -0.6012292E-03 Eh
 * total energy  :  -142.8178945 Eh     change       -0.7631187E-03 Eh
 * total energy  :  -142.8187779 Eh     change       -0.8834039E-03 Eh
 * total energy  :  -142.8196612 Eh     change       -0.8833886E-03 Eh
 * total energy  :  -142.8288299 Eh     change       -0.9227703E-06 Eh
 * total energy  :  -142.8288308 Eh     change       -0.9022377E-06 Eh
 * total energy  :  -142.8288316 Eh     change       -0.8114594E-06 Eh
 * total energy  :  -142.8288322 Eh     change       -0.5658560E-06 Eh
 * total energy  :  -142.8288326 Eh     change       -0.3961791E-06 Eh
 * total energy  :  -142.8288329 Eh     change       -0.2832892E-06 Eh
 * total energy  :  -142.8288331 Eh     change       -0.2821159E-06 Eh
 * total energy  :  -142.8288335 Eh     change       -0.3197743E-06 Eh
 * total energy  :  -142.8288335 Eh     change       -0.5307328E-08 Eh
   *** GEOMETRY OPTIMIZATION CONVERGED AFTER 122 ITERATIONS ***

 final structure:
================
94
 xtb: 6.7.1 (edcfbbe)
O           -4.04256235237085        2.04396303462239        2.81966287909835
C           -2.77173166190016        1.84552604601717        2.36892940337876
C           -1.68589248693089        2.49382768810415        2.94238259737040
C           -0.40026291545302        2.23910433632780        2.50637930833526
C           -0.16412660337951        1.32506096573844        1.48200695164077
C            1.20180425271407        1.04155691998098        1.01840951004921
C            2.24740336225350        0.88751332212292        1.92711064151374
C            3.52620103213283        0.60505824167121        1.49277777776805
C            3.80487982305919        0.48102000591408        0.13268770387656
C            5.17155223132822        0.20733277218957       -0.34283731875839
C            5.94066642077505       -0.76840324712385        0.18920507615583
C            7.36799799996440       -0.92058638329595       -0.14427568397329
C            8.22934005317132        0.17512822833769       -0.13384768129627
C            9.57175630124873        0.01531952679210       -0.42143790050817
C           10.07628834815672       -1.23892646718122       -0.72524773266151
C            9.23089592191054       -2.33643912177214       -0.72779917270751
C            7.88935917513555       -2.18080778960414       -0.43227290738449
C            5.41258536871984       -1.75721967021238        1.14554915926210
C            4.19980730365517       -2.40472296616898        0.91562153753231
C            3.72606414927719       -3.34700482201600        1.80894742575911
C            4.45482515128461       -3.66016809713782        2.94513081870851
C            5.66795285195043       -3.03254444053910        3.17661359612385
C            6.14706954130140       -2.09424868527550        2.28143789375543
C            5.63748020664463        1.07589945731227       -1.43809421148769
C            6.26984164120980        0.54367824484771       -2.56025709114944
C            6.68402849520959        1.36784734544090       -3.58959313497298
C            6.47274516524738        2.73538784778827       -3.51727488758468
C            5.83273838146613        3.27315683666541       -2.41258708595174
C            5.41141128474380        2.45036328363756       -1.38462500056836
C            2.76546306434279        0.66357913065914       -0.77806215018981
C            1.48285987266322        0.92589933883478       -0.34168258668801
C           -1.25547915252390        0.68534147418027        0.90426293297872
C           -2.55540429121330        0.94008844001378        1.32156924146247
C           -3.65707549350439        0.21428144456869        0.69843413165638
N           -3.66173905178171       -1.08108995243887        0.51395565286701
C           -4.85986241498636       -1.39335643378630       -0.06242750869891
C           -5.16818852793597       -2.76836845198617       -0.42832807040886
C           -6.03545500111240       -3.07897654608611       -1.47471513178534
C           -6.30476126388556       -4.39783694698477       -1.78999699403353
C           -5.70817903610319       -5.42503958289982       -1.07663221658450
C           -4.82755038589949       -5.12530605459399       -0.04935724670138
C           -4.55723252314994       -3.80900947451442        0.27151302435989
C           -5.60510674306290       -0.23831136254451       -0.22653394571869
C           -6.93768194155358       -0.02521183242301       -0.77898849092750
C           -7.16344084609945        0.94107571879895       -1.75788350363186
C           -8.43355687514205        1.13263239021300       -2.27018410871116
C           -9.49299528262595        0.36574019655485       -1.81432383550541
C           -9.27618000431259       -0.60028596318675       -0.84423857533708
C           -8.00938209456590       -0.79519434472468       -0.32767014850367
N           -4.81763708006013        0.78591847207124        0.25442141889498
C           -5.13581432182495        2.15533798036114        0.26684341908181
C           -4.22092198271376        3.07598637462527       -0.23230905327534
C           -4.52788174296390        4.42481560917189       -0.22077444516788
C           -5.74638321041673        4.85846806842086        0.27472225251404
C           -6.65770487717550        3.93895022167841        0.76837201670351
C           -6.35655335033674        2.58955959332318        0.77075244659893
H           -4.03062952204531        2.67488227045243        3.55200637501565
H           -1.85544140346805        3.19804191820845        3.74614925135467
H            0.42738745964734        2.76335149938039        2.95969222130899
H            2.04892199756769        0.96807563499282        2.98597855603915
H            4.32462744140379        0.48649496453002        2.21072816939211
H            7.84177753118923        1.15290681151983        0.11275141658746
H           10.22867684751995        0.87333676589403       -0.40623816401035
H           11.12515669013231       -1.36154935226783       -0.95336669520624
H            9.61932121200982       -3.31815753155098       -0.95909968394037
H            7.23093076945981       -3.03843676411761       -0.43548377110506
H            3.63381861891787       -2.17372453552080        0.02501414590675
H            2.78430574285914       -3.84087019968448        1.61655338578709
H            4.08136117614442       -4.39454578862948        3.64404110842247
H            6.24430083794358       -3.27668377552536        4.05775095464574
H            7.09355833186298       -1.60511166592834        2.46539721456975
H            6.42566066553145       -0.52323861923752       -2.62612981769106
H            7.17119718548366        0.94091827084349       -4.45464589586351
H            6.80006046863893        3.37840577415690       -4.32142343598268
H            5.66006157289693        4.33839887506392       -2.35265660273647
H            4.91452081830133        2.87215930655757       -0.52196541440802
H            2.96837463136982        0.58331120356780       -1.83702947491081
H            0.68965955795610        1.06166724285665       -1.06270684502215
H           -1.10817721941049       -0.04506518124375        0.12313066942722
H           -6.49115189966775       -2.28525962161636       -2.04819068414211
H           -6.98112890412153       -4.62529375249046       -2.60181527293968
H           -5.92294528518149       -6.45431173155067       -1.32555160783613
H           -4.35081530242797       -5.92209587582249        0.50388462182494
H           -3.87002066106254       -3.56064769105835        1.06630341785247
H           -6.33817815270783        1.53403956030170       -2.12621170486136
H           -8.59506881427524        1.88291520274082       -3.03051800747656
H          -10.48409676017613        0.51742690357029       -2.21567694736812
H          -10.09833779060392       -1.20249799333039       -0.48583069040704
H           -7.83652893629369       -1.54582234823221        0.43027964044786
H           -3.27628158603889        2.73087877965004       -0.62715518071921
H           -3.81316513955060        5.13616572433069       -0.60716152434478
H           -5.98501391333802        5.91135166028543        0.27678540721869
H           -7.60712257994612        4.27256745775008        1.15956818751197
H           -7.05584757115128        1.87065768078405        1.16940368096319

          :  Hamiltonian                  GFN2-xTB          :
         :: gradient norm              0.000060293908 Eh/a0 ::
         :: HOMO-LUMO gap              2.628514575875 eV    ::
         :: SCC energy              -145.509985610956 Eh    ::
         :: -> dispersion             -0.135430025770 Eh    ::
         :: -> Gsolv                  -0.060763911921 Eh    ::
         :: repulsion energy           2.681152141073 Eh    ::

    * Orbital Energies and Occupations

         #    Occupation            Energy/Eh            Energy/eV
      -------------------------------------------------------------
         1        2.0000           -0.7205101             -19.6061
       ...           ...                  ...                  ...
       121        2.0000           -0.4057083             -11.0399
       122        2.0000           -0.4050682             -11.0225
       123        2.0000           -0.4038041             -10.9881
       124        2.0000           -0.4015651             -10.9271
       125        2.0000           -0.4003282             -10.8935
       126        2.0000           -0.3993566             -10.8670
       127        2.0000           -0.3990491             -10.8587
       128        2.0000           -0.3967385             -10.7958
       129        2.0000           -0.3937800             -10.7153
       130        2.0000           -0.3827131             -10.4142
       131        2.0000           -0.3762437             -10.2381
       132        2.0000           -0.3620452              -9.8518
       133        2.0000           -0.3605059              -9.8099 (HOMO)
       134                         -0.2639098              -7.1814 (LUMO)
       135                         -0.2524700              -6.8701
       136                         -0.2416979              -6.5769
       137                         -0.2385749              -6.4920
       138                         -0.2347806              -6.3887
       139                         -0.2330165              -6.3407
       140                         -0.2264340              -6.1616
       141                         -0.2249629              -6.1216
       142                         -0.2237560              -6.0887
       143                         -0.2211977              -6.0191
       144                         -0.2193017              -5.9675
       ...                                ...                  ...
       262                          0.7069470              19.2370
      -------------------------------------------------------------
                  HL-Gap            0.0965961 Eh            2.6285 eV

     #   Z          covCN         q      C6AA      α(0)
     1   8 O        1.659    -0.410    21.045     6.193
     2   6 C        2.848     0.137    24.997     8.194
     3   6 C        2.916    -0.071    29.767     8.947
     4   6 C        2.925    -0.036    28.887     8.814
     5   6 C        2.974     0.003    27.963     8.674
     6   6 C        2.977     0.009    27.809     8.650
     7   6 C        2.923    -0.035    28.872     8.812
     8   6 C        2.922    -0.033    28.817     8.803
     9   6 C        2.978     0.014    27.695     8.632
    10   6 C        2.966    -0.006    28.162     8.705
    11   6 C        2.966    -0.006    28.167     8.705
    12   6 C        2.978     0.015    27.667     8.628
    13   6 C        2.924    -0.033    28.812     8.802
    14   6 C        2.918    -0.031    28.761     8.794
    15   6 C        2.920    -0.032    28.805     8.801
    16   6 C        2.918    -0.031    28.768     8.795
    17   6 C        2.925    -0.033    28.816     8.803
    18   6 C        2.978     0.015    27.677     8.630
    19   6 C        2.924    -0.032    28.809     8.802
    20   6 C        2.918    -0.030    28.755     8.793
    21   6 C        2.920    -0.032    28.797     8.800
    22   6 C        2.918    -0.031    28.771     8.796
    23   6 C        2.925    -0.033    28.822     8.804
    24   6 C        2.978     0.015    27.670     8.628
    25   6 C        2.924    -0.032    28.808     8.802
    26   6 C        2.918    -0.030    28.760     8.794
    27   6 C        2.920    -0.032    28.805     8.801
    28   6 C        2.918    -0.031    28.771     8.796
    29   6 C        2.925    -0.033    28.824     8.804
    30   6 C        2.923    -0.033    28.821     8.804
    31   6 C        2.923    -0.035    28.873     8.812
    32   6 C        2.933    -0.037    28.924     8.820
    33   6 C        2.971    -0.021    28.536     8.762
    34   6 C        3.167     0.142    24.579     8.101
    35   7 N        1.911    -0.322    29.199     8.012
    36   6 C        3.170     0.053    26.453     8.403
    37   6 C        2.972     0.006    27.887     8.662
    38   6 C        2.923    -0.040    28.983     8.829
    39   6 C        2.919    -0.032    28.792     8.799
    40   6 C        2.919    -0.034    28.850     8.808
    41   6 C        2.918    -0.031    28.786     8.798
    42   6 C        2.927    -0.032    28.794     8.800
    43   6 C        3.071     0.015    27.602     8.614
    44   6 C        2.971     0.006    27.874     8.660
    45   6 C        2.924    -0.034    28.852     8.809
    46   6 C        2.918    -0.030    28.742     8.792
    47   6 C        2.920    -0.031    28.782     8.798
    48   6 C        2.918    -0.029    28.717     8.788
    49   6 C        2.925    -0.033    28.825     8.805
    50   7 N        2.851    -0.039    21.985     6.964
    51   6 C        2.914     0.073    26.361     8.419
    52   6 C        2.922    -0.041    29.015     8.833
    53   6 C        2.920    -0.028    28.696     8.785
    54   6 C        2.919    -0.031    28.779     8.797
    55   6 C        2.921    -0.027    28.676     8.782
    56   6 C        2.921    -0.034    28.855     8.809
    57   1 H        0.805     0.316     0.674     1.290
    58   1 H        0.925     0.042     2.421     2.433
    59   1 H        0.926     0.047     2.362     2.403
    60   1 H        0.926     0.034     2.525     2.485
    61   1 H        0.926     0.031     2.574     2.509
    62   1 H        0.926     0.028     2.610     2.526
    63   1 H        0.926     0.030     2.584     2.514
    64   1 H        0.926     0.030     2.580     2.512
    65   1 H        0.926     0.030     2.583     2.513
    66   1 H        0.925     0.028     2.621     2.532
    67   1 H        0.926     0.028     2.610     2.526
    68   1 H        0.926     0.030     2.581     2.512
    69   1 H        0.926     0.031     2.578     2.511
    70   1 H        0.926     0.030     2.580     2.512
    71   1 H        0.926     0.028     2.616     2.529
    72   1 H        0.926     0.028     2.613     2.528
    73   1 H        0.926     0.030     2.587     2.515
    74   1 H        0.926     0.031     2.579     2.511
    75   1 H        0.926     0.031     2.579     2.511
    76   1 H        0.926     0.028     2.611     2.527
    77   1 H        0.925     0.029     2.594     2.518
    78   1 H        0.926     0.031     2.569     2.506
    79   1 H        0.926     0.047     2.364     2.404
    80   1 H        0.926     0.024     2.678     2.559
    81   1 H        0.926     0.029     2.594     2.519
    82   1 H        0.926     0.031     2.577     2.510
    83   1 H        0.926     0.031     2.571     2.507
    84   1 H        0.926     0.042     2.427     2.436
    85   1 H        0.926     0.024     2.671     2.556
    86   1 H        0.926     0.035     2.522     2.483
    87   1 H        0.926     0.036     2.503     2.474
    88   1 H        0.926     0.036     2.508     2.477
    89   1 H        0.926     0.029     2.600     2.522
    90   1 H        0.926     0.034     2.532     2.488
    91   1 H        0.926     0.044     2.396     2.421
    92   1 H        0.926     0.045     2.382     2.413
    93   1 H        0.926     0.045     2.386     2.416
    94   1 H        0.926     0.040     2.451     2.448

molecular dipole:
                 x           y           z       tot (Debye)
 q only:       -0.105       1.704       0.412
   full:       -0.323       2.041       0.481       5.393

 projected vibrational frequencies (cm⁻¹)
eigval :       -0.00    -0.00    -0.00    -0.00     0.00     0.00
eigval :        8.05     9.84    14.04    20.61    23.50    28.62
eigval :       31.84    41.72    43.09    46.49    50.46    52.42
eigval :       56.50    59.76    66.70    68.13    70.29    73.08
eigval :       77.54    79.92    87.07   112.90   123.06   127.86
eigval :      134.12   153.06   164.74   183.03   194.69   213.15
eigval :      224.23   226.53   232.60   239.49   244.06   247.92
eigval :      254.12   262.14   268.83   287.02   311.02   343.22
eigval :      349.34   362.09   369.65   371.25   371.39   375.29
eigval :      375.46   376.52   379.32   381.75   399.21   406.81
eigval :      420.91   427.35   447.80   458.71   468.21   473.32
eigval :      482.67   495.30   506.26   513.67   538.30   544.49
eigval :      556.90   572.45   580.93   585.12   586.70   588.35
eigval :      589.62   590.32   594.69   605.12   612.54   627.65
eigval :      637.91   644.10   647.47   656.09   664.18   665.21
eigval :      670.62   672.86   675.15   678.48   679.31   688.82
eigval :      698.84   702.81   706.73   726.44   749.73   755.59
eigval :      759.97   762.39   762.89   765.14   784.53   807.38
eigval :      830.98   838.51   857.67   870.28   875.79   875.84
eigval :      876.76   877.07   877.11   879.63   883.32   887.16
eigval :      899.72   901.00   902.03   902.51   902.64   903.48
eigval :      910.37   917.97   925.47   928.28   928.71   928.94
eigval :      929.55   929.75   930.62   931.85   931.91   932.44
eigval :      933.08   933.36   934.32   939.23   942.19   956.12
eigval :      974.00   980.07   990.82   999.49  1011.17  1024.00
eigval :     1031.32  1078.22  1080.86  1082.59  1082.86  1083.79
eigval :     1085.12  1086.96  1091.63  1116.58  1117.59  1119.92
eigval :     1120.46  1121.56  1122.12  1123.19  1140.36  1153.85
eigval :     1163.49  1169.14  1177.75  1179.38  1180.96  1181.29
eigval :     1181.44  1182.01  1190.34  1194.43  1197.12  1198.09
eigval :     1198.99  1199.99  1204.38  1210.02  1234.31  1240.57
eigval :     1259.50  1267.90  1271.46  1275.38  1279.84  1281.56
eigval :     1281.98  1282.20  1283.77  1289.03  1300.28  1310.37
eigval :     1313.47  1314.15  1315.72  1316.47  1317.04  1319.80
eigval :     1319.94  1329.10  1335.48  1362.99  1391.35  1398.28
eigval :     1420.55  1428.16  1428.43  1429.19  1430.26  1433.79
eigval :     1435.77  1453.00  1462.44  1467.16  1472.83  1475.15
eigval :     1480.26  1488.17  1499.01  1538.45  1556.46  1559.76
eigval :     1574.55  1576.62  1577.28  1577.29  1578.65  1579.85
eigval :     1585.35  1586.21  1590.82  1593.47  1594.27  1595.83
eigval :     1596.62  1598.66  1599.92  1614.64  3059.70  3064.89
eigval :     3065.18  3065.45  3065.96  3066.85  3067.21  3067.89
eigval :     3068.71  3069.24  3069.30  3071.61  3073.84  3074.16
eigval :     3074.55  3075.90  3077.57  3077.96  3079.71  3080.04
eigval :     3080.61  3081.63  3082.08  3082.32  3082.50  3086.48
eigval :     3087.39  3088.43  3088.48  3089.02  3089.60  3090.07
eigval :     3091.95  3094.36  3095.43  3095.70  3101.06  3489.85

   temp. (K)  partition function   enthalpy   heat capacity  entropy
                                   cal/mol     cal/K/mol   cal/K/mol   J/K/mol
 298.15  VIB  0.646E+23            27523.629    168.694    175.279
         ROT  0.157E+09              888.752      2.981     40.488
         INT  0.102E+32            28412.382    171.675    215.767
         TR   0.186E+29             1481.254      4.968     45.577
         TOT                       29893.6356   176.6428   261.3443  1093.4647

       T/K    H(0)-H(T)+PV         H(T)/Eh          T*S/Eh         G(T)/Eh
   ------------------------------------------------------------------------
    298.15    0.476385E-01    0.777841E+00    0.124173E+00    0.653668E+00
   ------------------------------------------------------------------------

         :::::::::::::::::::::::::::::::::::::::::::::::::::::
         ::                  THERMODYNAMIC                  ::
         :::::::::::::::::::::::::::::::::::::::::::::::::::::
         :: total free energy        -142.175165111701 Eh   ::
         ::.................................................::
         :: total energy             -142.828833468107 Eh   ::
         :: zero point energy           0.730202946549 Eh   ::
         :: G(RRHO) w/o ZPVE           -0.076534590143 Eh   ::
         :: G(RRHO) contrib.            0.653668356406 Eh   ::
         :::::::::::::::::::::::::::::::::::::::::::::::::::::

           -------------------------------------------------
          | TOTAL ENERGY             -142.828833468107 Eh   |
          | TOTAL ENTHALPY           -142.050991980913 Eh   |
          | TOTAL FREE ENERGY        -142.175165111701 Eh   |
          | GRADIENT NORM               0.000060296488 Eh/α |
          | HOMO-LUMO GAP               2.628514431894 eV   |
           -------------------------------------------------

 * finished run on 2025/07/20 at 20:37:43.770
