   * xtb version 6.7.1 (edcfbbe) compiled by 'albert@albert-system' on 2024-07-22

   ID    Z sym.   atoms
    1    8 O      1
    2    6 C      2-34, 36-49, 51-56
    3    7 N      35, 50
    4    1 H      57-94

          program call               : xtb data2507/toluene/HITPE/HITPE_toluene_S0_crest.xyz --gfn 2 --gbsa toluene --ohess vtight --parallel 40 --molden --ceasefiles --namespace data2507/toluene/HITPE/HITPE_toluene_S0_finalOpt
      * Solvation model:               GBSA
        Solvent                        toluene
        Solvent mass                       9.2140E+01 g/mol
          :  Hamiltonian                  GFN2-xTB          :
 * total energy  :  -142.8285283 Eh     change       -0.2346383E-08 Eh
 * total energy  :  -142.8286008 Eh     change       -0.7247970E-04 Eh
 * total energy  :  -142.8286444 Eh     change       -0.4360566E-04 Eh
 * total energy  :  -142.8286580 Eh     change       -0.1354683E-04 Eh
 * total energy  :  -142.8286744 Eh     change       -0.1648378E-04 Eh
 * total energy  :  -142.8286850 Eh     change       -0.1054474E-04 Eh
 * total energy  :  -142.8286927 Eh     change       -0.7753867E-05 Eh
 * total energy  :  -142.8286972 Eh     change       -0.4516733E-05 Eh
 * total energy  :  -142.8287008 Eh     change       -0.3548812E-05 Eh
 * total energy  :  -142.8287048 Eh     change       -0.3987796E-05 Eh
 * total energy  :  -142.8288348 Eh     change       -0.2363264E-06 Eh
 * total energy  :  -142.8288350 Eh     change       -0.2166796E-06 Eh
 * total energy  :  -142.8288352 Eh     change       -0.2297512E-06 Eh
 * total energy  :  -142.8288355 Eh     change       -0.2770072E-06 Eh
 * total energy  :  -142.8288359 Eh     change       -0.3557369E-06 Eh
 * total energy  :  -142.8288362 Eh     change       -0.3494895E-06 Eh
 * total energy  :  -142.8288365 Eh     change       -0.3047947E-06 Eh
 * total energy  :  -142.8288368 Eh     change       -0.2287287E-06 Eh
 * total energy  :  -142.8288368 Eh     change       -0.2119634E-08 Eh
   *** GEOMETRY OPTIMIZATION CONVERGED AFTER 68 ITERATIONS ***

 final structure:
================
94
 xtb: 6.7.1 (edcfbbe)
O           -4.00552799315882        1.80785308135335        2.78752190635805
C           -2.73078404300017        1.67222553037429        2.32509986550386
C           -1.67432525646584        2.37924366721739        2.88387976123525
C           -0.38144325486143        2.18856923933703        2.43737552179955
C           -0.10470143826813        1.27340440701176        1.42339572840465
C            1.27090982126526        1.05202973481470        0.95614201190635
C            2.33754264930759        1.03218502632946        1.85407112082663
C            3.62794290228791        0.81422482928605        1.41783956452061
C            3.89891802276994        0.61232590676138        0.06516875881580
C            5.27333155818983        0.40526632289844       -0.41820919884476
C            6.14074864546150       -0.43370199042282        0.19135480052191
C            7.56680710890886       -0.49758066558071       -0.17338041806543
C            8.32323694105229        0.66307916961678       -0.32636435716385
C            9.66632876356859        0.58889299474968       -0.64374410684560
C           10.27704083343220       -0.64332270798422       -0.81308865634518
C            9.53714769610463       -1.80347688656966       -0.65206428280552
C            8.19520778666368       -1.73232896176942       -0.32751917858696
C            5.72983041649388       -1.35505191442158        1.26551786984474
C            4.58638028591655       -2.14201419445489        1.13902726258229
C            4.22614134627143       -3.02320719898152        2.14106376430810
C            5.00105830879041       -3.13460916543455        3.28443218132053
C            6.14561853946426       -2.36515739992169        3.41544853646518
C            6.51188830751717       -1.48762763159705        2.41185253761733
C            5.63511697264079        1.17649120190438       -1.62108392836628
C            6.27667614122115        0.56813817838358       -2.69835666328091
C            6.58802707934327        1.29519040152349       -3.83187350717731
C            6.26480873056169        2.64043195411149       -3.90913138350422
C            5.61575885232801        3.25192527427570       -2.84891687200354
C            5.29639886079934        2.52514615974654       -1.71698991508736
C            2.83606340261628        0.65507562304074       -0.83640876001939
C            1.54434100374312        0.86123254012034       -0.39743779914289
C           -1.16824636552167        0.57566241609671        0.86003113054528
C           -2.47736640006904        0.77431242648176        1.27955065319347
C           -3.54647179912385        0.00651231696571        0.65061891113612
N           -3.48997658652326       -1.28353401895993        0.43845438162592
C           -4.67099116780721       -1.63947616602510       -0.14767967241296
C           -4.91365569541917       -3.01826026242811       -0.54721210079249
C           -5.76415381624051       -3.34284521085454       -1.60311507461192
C           -5.97201642427114       -4.66449337154326       -1.95126088550045
C           -5.32938636402716       -5.68022000299810       -1.26189105917883
C           -4.46446673727186       -5.36538055867268       -0.22582881613559
C           -4.25554302215516       -4.04631633097763        0.12790873614300
C           -5.46957016681373       -0.51759894889960       -0.28913166094142
C           -6.80880239223760       -0.35375721065013       -0.84270955818405
C           -7.07243595467509        0.61894383989367       -1.80566827810495
C           -8.34749352923816        0.76420227040863       -2.32081714991743
C           -9.37435648964867       -0.05592227093035       -1.88349712172545
C           -9.11976896672291       -1.02839784118695       -0.92915429276272
C           -7.84779994075221       -1.17721971463062       -0.40981334937534
N           -4.73222107346430        0.53204582004222        0.21555572592383
C           -5.11801426918949        1.88370558640762        0.25321823723026
C           -4.25354973297422        2.85824510326052       -0.23326238308835
C           -4.62891145864324        4.18925289601894       -0.19673420768282
C           -5.86554049163605        4.55149532694050        0.31104765079472
C           -6.72682881482393        3.57829616083690        0.79139709339275
C           -6.35726472323779        2.24622204764110        0.76855571663919
H           -4.01811233125375        2.43943354668066        3.51929317167892
H           -1.87298662049744        3.08105455328818        3.68307850592672
H            0.41970926817812        2.76417774438071        2.87551510750691
H            2.14982199976288        1.16921959416955        2.90895988390766
H            4.44078650196418        0.80745862388178        2.12905503636463
H            7.85407138037649        1.62559004692929       -0.18348227609709
H           10.24101920080536        1.49716966974937       -0.75633613295034
H           11.32635059998908       -0.69899640956879       -1.06415867608327
H           10.00851010233886       -2.76795680708947       -0.77763605487070
H            7.61912335345245       -2.63888970900587       -0.20378470919868
H            3.98564093720850       -2.06740942415621        0.24430266287302
H            3.33757552540644       -3.62777258395617        2.02813891698628
H            4.71649181831377       -3.82192310349962        4.06793097317978
H            6.75664200165293       -2.45082922819697        4.30281130862593
H            7.40467598026927       -0.88678769577586        2.51679111034559
H            6.52015617478995       -0.48308141874701       -2.64674658291199
H            7.08345728230417        0.80934762906305       -4.66037085878914
H            6.51220515203812        3.20811474894279       -4.79445056004325
H            5.35544708812110        4.29936813278082       -2.90565456857801
H            4.78980413737788        3.00426780506227       -0.89066910309696
H            3.02918382558579        0.51194704340034       -1.89049325117973
H            0.73700890436183        0.89463622647163       -1.11455165593262
H           -0.99315606585864       -0.15613107770583        0.08616314867563
H           -6.25537386732606       -2.55720757794037       -2.15805589227164
H           -6.63626218860759       -4.90279153728113       -2.76994471767516
H           -5.49669022174165       -6.71189478113806       -1.53593691807133
H           -3.95203496774552       -6.15275792564442        0.30865796333467
H           -3.58171391580374       -3.78632543122773        0.93038457451829
H           -6.27209582099357        1.25332286738490       -2.15970835773354
H           -8.53826718778176        1.51995309929968       -3.06887410806818
H          -10.36943220785705        0.05959404508224       -2.28706570173381
H           -9.91667520654381       -1.67162511836334       -0.58522625978402
H           -7.64574196616290       -1.93303744036621        0.33568275772693
H           -3.29409819193433        2.56888928199907       -0.63714321961779
H           -3.95334584052712        4.94296474147541       -0.57309557444418
H           -6.15706582744388        5.59073315208798        0.33309996306627
H           -7.69030393909338        3.85607763080277        1.19181630427657
H           -7.01724608675626        1.48551498452176        1.15659209238055

          :  Hamiltonian                  GFN2-xTB          :
         :: gradient norm              0.000034174339 Eh/a0 ::
         :: HOMO-LUMO gap              2.597328639748 eV    ::
         :: SCC energy              -145.509620433381 Eh    ::
         :: -> dispersion             -0.135505834757 Eh    ::
         :: -> Gsolv                  -0.060661584976 Eh    ::
         :: repulsion energy           2.680783672584 Eh    ::

    * Orbital Energies and Occupations

         #    Occupation            Energy/Eh            Energy/eV
      -------------------------------------------------------------
         1        2.0000           -0.7205610             -19.6075
       ...           ...                  ...                  ...
       121        2.0000           -0.4057633             -11.0414
       122        2.0000           -0.4051309             -11.0242
       123        2.0000           -0.4038229             -10.9886
       124        2.0000           -0.4016516             -10.9295
       125        2.0000           -0.4003172             -10.8932
       126        2.0000           -0.3993315             -10.8664
       127        2.0000           -0.3990349             -10.8583
       128        2.0000           -0.3966929             -10.7946
       129        2.0000           -0.3938230             -10.7165
       130        2.0000           -0.3825826             -10.4106
       131        2.0000           -0.3762459             -10.2382
       132        2.0000           -0.3619424              -9.8490
       133        2.0000           -0.3601756              -9.8009 (HOMO)
       134                         -0.2647256              -7.2035 (LUMO)
       135                         -0.2524855              -6.8705
       136                         -0.2418694              -6.5816
       137                         -0.2388161              -6.4985
       138                         -0.2347873              -6.3889
       139                         -0.2331066              -6.3432
       140                         -0.2264818              -6.1629
       141                         -0.2250231              -6.1232
       142                         -0.2239130              -6.0930
       143                         -0.2211524              -6.0179
       144                         -0.2192884              -5.9671
       ...                                ...                  ...
       262                          0.7068951              19.2356
      -------------------------------------------------------------
                  HL-Gap            0.0954501 Eh            2.5973 eV

     #   Z          covCN         q      C6AA      α(0)
     1   8 O        1.659    -0.410    21.041     6.192
     2   6 C        2.848     0.137    24.997     8.194
     3   6 C        2.916    -0.071    29.769     8.947
     4   6 C        2.925    -0.036    28.890     8.815
     5   6 C        2.973     0.002    27.967     8.675
     6   6 C        2.976     0.009    27.811     8.651
     7   6 C        2.923    -0.035    28.878     8.813
     8   6 C        2.922    -0.033    28.821     8.804
     9   6 C        2.978     0.014    27.702     8.634
    10   6 C        2.966    -0.006    28.162     8.705
    11   6 C        2.967    -0.006    28.166     8.705
    12   6 C        2.978     0.015    27.668     8.628
    13   6 C        2.924    -0.033    28.812     8.803
    14   6 C        2.918    -0.031    28.762     8.795
    15   6 C        2.920    -0.032    28.804     8.801
    16   6 C        2.918    -0.031    28.768     8.795
    17   6 C        2.925    -0.033    28.817     8.803
    18   6 C        2.978     0.015    27.671     8.629
    19   6 C        2.924    -0.032    28.805     8.801
    20   6 C        2.918    -0.030    28.754     8.793
    21   6 C        2.920    -0.032    28.799     8.800
    22   6 C        2.918    -0.031    28.770     8.796
    23   6 C        2.925    -0.033    28.822     8.804
    24   6 C        2.978     0.015    27.669     8.628
    25   6 C        2.924    -0.032    28.808     8.802
    26   6 C        2.918    -0.030    28.760     8.794
    27   6 C        2.920    -0.032    28.805     8.801
    28   6 C        2.918    -0.031    28.771     8.796
    29   6 C        2.925    -0.033    28.822     8.804
    30   6 C        2.923    -0.033    28.823     8.804
    31   6 C        2.923    -0.035    28.877     8.812
    32   6 C        2.933    -0.037    28.929     8.821
    33   6 C        2.971    -0.022    28.540     8.763
    34   6 C        3.167     0.142    24.586     8.102
    35   7 N        1.911    -0.322    29.198     8.012
    36   6 C        3.169     0.053    26.455     8.403
    37   6 C        2.972     0.006    27.888     8.662
    38   6 C        2.923    -0.040    28.984     8.829
    39   6 C        2.919    -0.032    28.792     8.799
    40   6 C        2.919    -0.034    28.850     8.808
    41   6 C        2.918    -0.031    28.786     8.798
    42   6 C        2.927    -0.032    28.794     8.800
    43   6 C        3.071     0.015    27.601     8.614
    44   6 C        2.971     0.006    27.874     8.660
    45   6 C        2.924    -0.034    28.852     8.809
    46   6 C        2.918    -0.030    28.742     8.792
    47   6 C        2.920    -0.031    28.782     8.798
    48   6 C        2.918    -0.029    28.717     8.788
    49   6 C        2.925    -0.033    28.825     8.804
    50   7 N        2.851    -0.039    21.989     6.964
    51   6 C        2.914     0.073    26.358     8.419
    52   6 C        2.922    -0.041    29.012     8.833
    53   6 C        2.920    -0.028    28.697     8.785
    54   6 C        2.919    -0.031    28.779     8.797
    55   6 C        2.920    -0.027    28.676     8.782
    56   6 C        2.922    -0.034    28.854     8.809
    57   1 H        0.805     0.316     0.674     1.290
    58   1 H        0.925     0.042     2.423     2.434
    59   1 H        0.926     0.047     2.358     2.402
    60   1 H        0.926     0.035     2.521     2.483
    61   1 H        0.926     0.031     2.571     2.507
    62   1 H        0.926     0.028     2.608     2.525
    63   1 H        0.926     0.030     2.584     2.514
    64   1 H        0.926     0.030     2.579     2.511
    65   1 H        0.926     0.030     2.583     2.513
    66   1 H        0.925     0.028     2.621     2.532
    67   1 H        0.926     0.028     2.612     2.527
    68   1 H        0.926     0.030     2.581     2.512
    69   1 H        0.926     0.031     2.578     2.511
    70   1 H        0.926     0.030     2.580     2.512
    71   1 H        0.925     0.028     2.617     2.530
    72   1 H        0.926     0.028     2.615     2.529
    73   1 H        0.926     0.030     2.587     2.515
    74   1 H        0.926     0.030     2.580     2.512
    75   1 H        0.926     0.030     2.579     2.511
    76   1 H        0.926     0.028     2.611     2.527
    77   1 H        0.926     0.029     2.594     2.518
    78   1 H        0.926     0.031     2.567     2.505
    79   1 H        0.926     0.047     2.354     2.399
    80   1 H        0.926     0.024     2.679     2.559
    81   1 H        0.926     0.029     2.595     2.519
    82   1 H        0.926     0.031     2.577     2.510
    83   1 H        0.926     0.031     2.571     2.507
    84   1 H        0.926     0.042     2.427     2.436
    85   1 H        0.926     0.024     2.671     2.556
    86   1 H        0.926     0.035     2.522     2.483
    87   1 H        0.926     0.036     2.503     2.474
    88   1 H        0.926     0.036     2.508     2.476
    89   1 H        0.926     0.029     2.600     2.522
    90   1 H        0.926     0.034     2.533     2.489
    91   1 H        0.926     0.044     2.396     2.420
    92   1 H        0.926     0.045     2.382     2.413
    93   1 H        0.926     0.045     2.386     2.416
    94   1 H        0.926     0.040     2.452     2.449

molecular dipole:
                 x           y           z       tot (Debye)
 q only:       -0.186       1.700       0.434
   full:       -0.419       2.028       0.504       5.416

 projected vibrational frequencies (cm⁻¹)
eigval :       -0.00    -0.00    -0.00    -0.00    -0.00     0.00
eigval :        6.39     7.51    14.23    19.27    22.45    27.49
eigval :       30.68    40.87    44.74    46.98    51.37    53.97
eigval :       56.69    57.82    66.47    68.86    72.58    75.12
eigval :       77.82    79.57    90.84   113.27   123.47   127.99
eigval :      134.47   153.31   166.70   184.70   196.29   211.64
eigval :      224.76   226.73   232.02   237.96   243.16   247.49
eigval :      253.34   263.25   268.91   287.94   310.95   344.02
eigval :      349.49   362.03   368.61   370.41   370.58   374.75
eigval :      375.36   375.59   378.94   381.12   398.40   407.74
eigval :      421.76   427.45   448.97   459.42   467.72   473.73
eigval :      481.72   494.88   506.64   512.18   538.02   544.38
eigval :      556.61   572.31   580.51   585.08   586.63   587.92
eigval :      589.40   590.29   594.89   604.94   612.73   626.84
eigval :      637.78   643.53   647.25   655.78   663.73   664.89
eigval :      670.36   672.59   674.51   678.04   678.64   688.33
eigval :      698.46   702.00   706.29   726.06   748.98   756.05
eigval :      759.84   761.09   762.19   764.54   784.52   808.51
eigval :      831.08   838.74   857.57   871.48   874.63   875.03
eigval :      875.10   877.33   879.03   880.33   883.35   887.30
eigval :      899.88   900.57   900.88   901.62   902.58   903.36
eigval :      910.29   919.61   927.51   927.68   927.83   928.39
eigval :      929.46   929.67   929.79   929.90   930.27   931.49
eigval :      931.73   931.88   934.84   939.25   942.16   956.05
eigval :      973.89   979.87   990.82   999.39  1010.92  1023.86
eigval :     1031.29  1078.46  1080.79  1082.28  1082.50  1084.23
eigval :     1084.38  1085.85  1091.73  1116.63  1117.30  1119.44
eigval :     1120.79  1121.36  1121.90  1123.63  1142.48  1153.61
eigval :     1163.94  1173.28  1178.64  1179.38  1179.80  1179.90
eigval :     1181.13  1181.15  1190.57  1194.03  1197.96  1198.62
eigval :     1198.90  1200.89  1205.34  1210.62  1234.08  1240.39
eigval :     1261.50  1268.05  1273.23  1275.44  1279.88  1280.95
eigval :     1281.44  1283.09  1283.53  1289.03  1299.95  1310.04
eigval :     1313.34  1314.51  1315.55  1316.19  1316.85  1319.72
eigval :     1320.05  1329.29  1335.12  1362.79  1391.02  1398.39
eigval :     1420.84  1427.75  1428.07  1428.87  1429.90  1433.22
eigval :     1435.66  1452.60  1462.46  1467.28  1473.10  1475.01
eigval :     1480.14  1487.71  1498.73  1537.86  1555.59  1559.83
eigval :     1574.21  1576.30  1576.98  1577.22  1578.37  1579.82
eigval :     1584.51  1585.23  1590.44  1593.13  1594.16  1595.77
eigval :     1596.37  1598.30  1599.86  1613.70  3059.62  3064.33
eigval :     3065.14  3065.27  3065.63  3067.46  3067.59  3067.99
eigval :     3068.39  3068.83  3069.36  3071.47  3073.86  3074.75
eigval :     3075.24  3075.38  3077.73  3078.15  3079.55  3079.91
eigval :     3079.97  3080.94  3081.24  3081.73  3082.23  3087.53
eigval :     3087.70  3087.98  3088.31  3088.59  3088.84  3092.08
eigval :     3092.23  3094.90  3095.75  3096.60  3101.39  3489.82

   temp. (K)  partition function   enthalpy   heat capacity  entropy
                                   cal/mol     cal/K/mol   cal/K/mol   J/K/mol
 298.15  VIB  0.108E+24            27524.386    168.782    175.715
         ROT  0.158E+09              888.752      2.981     40.496
         INT  0.171E+32            28413.138    171.763    216.211
         TR   0.186E+29             1481.254      4.968     45.577
         TOT                       29894.3922   176.7308   261.7882  1095.3216

       T/K    H(0)-H(T)+PV         H(T)/Eh          T*S/Eh         G(T)/Eh
   ------------------------------------------------------------------------
    298.15    0.476397E-01    0.777795E+00    0.124384E+00    0.653411E+00
   ------------------------------------------------------------------------

         :::::::::::::::::::::::::::::::::::::::::::::::::::::
         ::                  THERMODYNAMIC                  ::
         :::::::::::::::::::::::::::::::::::::::::::::::::::::
         :: total free energy        -142.175425746672 Eh   ::
         ::.................................................::
         :: total energy             -142.828836759199 Eh   ::
         :: zero point energy           0.730155265612 Eh   ::
         :: G(RRHO) w/o ZPVE           -0.076744253085 Eh   ::
         :: G(RRHO) contrib.            0.653411012527 Eh   ::
         :::::::::::::::::::::::::::::::::::::::::::::::::::::

           -------------------------------------------------
          | TOTAL ENERGY             -142.828836759199 Eh   |
          | TOTAL ENTHALPY           -142.051041747266 Eh   |
          | TOTAL FREE ENERGY        -142.175425746672 Eh   |
          | GRADIENT NORM               0.000034161659 Eh/α |
          | HOMO-LUMO GAP               2.597328540882 eV   |
           -------------------------------------------------

 * finished run on 2025/07/20 at 20:43:33.748
