   * xtb version 6.7.1 (edcfbbe) compiled by 'albert@albert-system' on 2024-07-22

   ID    Z sym.   atoms
    1    8 O      1
    2    6 C      2-34, 36-49, 51-56
    3    7 N      35, 50
    4    1 H      57-94

          program call               : xtb data2507/toluene/HITPE/HITPE_toluene_T1_crest.xyz --gfn 2 --uhf 2 --gbsa toluene --ohess vtight --parallel 40 --molden --ceasefiles --namespace data2507/toluene/HITPE/HITPE_toluene_T1_finalOpt
      * Solvation model:               GBSA
        Solvent                        toluene
        Solvent mass                       9.2140E+01 g/mol
          :  Hamiltonian                  GFN2-xTB          :
 * total energy  :  -142.7613183 Eh     change       -0.2335582E-08 Eh
 * total energy  :  -142.7613937 Eh     change       -0.7539963E-04 Eh
 * total energy  :  -142.7614321 Eh     change       -0.3836946E-04 Eh
 * total energy  :  -142.7614414 Eh     change       -0.9328187E-05 Eh
 * total energy  :  -142.7614500 Eh     change       -0.8591196E-05 Eh
 * total energy  :  -142.7614555 Eh     change       -0.5489990E-05 Eh
 * total energy  :  -142.7614596 Eh     change       -0.4113354E-05 Eh
 * total energy  :  -142.7614619 Eh     change       -0.2239864E-05 Eh
 * total energy  :  -142.7614636 Eh     change       -0.1694590E-05 Eh
 * total energy  :  -142.7614652 Eh     change       -0.1608270E-05 Eh
 * total energy  :  -142.7614703 Eh     change       -0.7063945E-06 Eh
 * total energy  :  -142.7614708 Eh     change       -0.5043049E-06 Eh
 * total energy  :  -142.7614713 Eh     change       -0.4402839E-06 Eh
 * total energy  :  -142.7614717 Eh     change       -0.3885085E-06 Eh
 * total energy  :  -142.7614720 Eh     change       -0.3048575E-06 Eh
 * total energy  :  -142.7614722 Eh     change       -0.1965633E-06 Eh
 * total energy  :  -142.7614724 Eh     change       -0.1842884E-06 Eh
 * total energy  :  -142.7614725 Eh     change       -0.1810312E-06 Eh
 * total energy  :  -142.7614725 Eh     change       -0.7888900E-08 Eh
   *** GEOMETRY OPTIMIZATION CONVERGED AFTER 22 ITERATIONS ***

 final structure:
================
94
 xtb: 6.7.1 (edcfbbe)
O           -3.83137028795245        2.20320807796943        2.57844241515271
C           -2.58795300361294        1.95015546250312        2.08251944395538
C           -1.47468481369638        2.66217981468641        2.51106445201399
C           -0.21410245652262        2.35232690899522        2.04364119973378
C           -0.02186062905267        1.30821033304102        1.13594861132591
C            1.31641878524471        0.96692716173764        0.65625969423899
C            2.43372278645525        1.07214134852870        1.49619215307549
C            3.69094157721354        0.75456378584261        1.05283280960309
C            3.92127673512396        0.33914282596648       -0.27982401944534
C            5.22822379701914       -0.00149695419038       -0.71425425678161
C            6.24401752479500       -0.35149440612211        0.29713939163702
C            7.43194440484767        0.44164168031870        0.34966891779658
C            7.42091777383807        1.76998013351461       -0.12476202809972
C            8.56132318302107        2.53956807326002       -0.11317968394642
C            9.76101175012349        2.01405459225665        0.35060809514919
C            9.80192061536934        0.69926507029925        0.79569839461178
C            8.66385551965674       -0.07634064844252        0.79941808729903
C            5.99149430731431       -1.46542467784120        1.15342101755347
C            5.08174627179089       -2.47195995038837        0.76482718030938
C            4.80338596441615       -3.53710971013316        1.58985764037022
C            5.40202192850886       -3.63538197508307        2.83995382882494
C            6.27762746200105       -2.64080358314629        3.25632191061791
C            6.57137885483340       -1.57536024456913        2.43506277879600
C            5.63512744362607       -0.02313433940152       -2.08970170537331
C            6.69356973925425       -0.85531319145639       -2.50294090394586
C            7.12356993179454       -0.86312401903302       -3.81069252617427
C            6.53122024230718       -0.02992670658382       -4.75087878944035
C            5.50624347547881        0.81996279369490       -4.35845551293332
C            5.06073407202092        0.82649930370241       -3.05457506579883
C            2.78509996888581        0.21669583862398       -1.11323130837911
C            1.52778256361420        0.51363606150008       -0.65235307501506
C           -1.14588347490141        0.60901372747307        0.69898018943325
C           -2.42347638174189        0.92455233644078        1.14082656042805
C           -3.55475560486668        0.14411765152008        0.65163114224579
N           -3.56352098215484       -1.16281345488987        0.58363023940817
C           -4.78858080165989       -1.52534931996444        0.10149937293359
C           -5.10783054437200       -2.92659633121175       -0.13073498662419
C           -6.02940072064650       -3.32333967300432       -1.09871230801497
C           -6.30589450426126       -4.66404137639863       -1.29171507607731
C           -5.66347700959426       -5.62841513230211       -0.53198450437756
C           -4.73049392703033       -5.24397415817489        0.41795383981087
C           -4.45255424121344       -3.90533670104292        0.61665746298492
C           -5.54735139542285       -0.38958861440862       -0.12471984153708
C           -6.90860955917342       -0.22437810668814       -0.62092262884595
C           -7.18953201481645        0.65106989328206       -1.66865673268399
C           -8.48625069956007        0.80005542193363       -2.12536446033854
C           -9.51757696900419        0.08012926351834       -1.54538806009160
C           -9.24607921409116       -0.79593298626713       -0.50611511457959
C           -7.95242840652965       -0.94782705868582       -0.04448012276828
N           -4.74025950780585        0.67333926734573        0.22002573612039
C           -5.06440922214146        2.03795467246404        0.11983533051561
C           -4.19012476373270        2.90380373948877       -0.52779131738305
C           -4.50067009179060        4.24850745692659       -0.62334433292347
C           -5.68276731157566        4.73109568399010       -0.08667688800238
C           -6.55484249528148        3.86531535992295        0.55339253810105
C           -6.25007882385826        2.52099127954810        0.66146119697985
H           -3.78038175159153        2.91623260992715        3.22933578194410
H           -1.60478568389718        3.46414638714691        3.22572365527229
H            0.62974987389351        2.93711166596689        2.37633285271491
H            2.29794768649943        1.38316350960581        2.52179107949461
H            4.53419543608620        0.84593118035924        1.72171514789034
H            6.48974498176878        2.19026857870611       -0.47587980932811
H            8.52279928069066        3.55977697144227       -0.46835049520170
H           10.65595830127797        2.61845895767744        0.35415504692544
H           10.73739411699678        0.27599173515610        1.13387604050507
H            8.72344379019231       -1.11159474158027        1.10109003263649
H            4.62089529719205       -2.41070760329659       -0.21033090953802
H            4.11342924666601       -4.30197106016326        1.26244258720098
H            5.17916694484673       -4.47082786022701        3.48678166682974
H            6.72632662328719       -2.69748769675555        4.23827407117834
H            7.21408397286262       -0.78500546856462        2.79366394175332
H            7.15237848281246       -1.51475764621333       -1.78040812703536
H            7.92792842938703       -1.52187172381376       -4.10622141386059
H            6.87315197065536       -0.03431676952346       -5.77525821454089
H            5.05812450099952        1.48978927765642       -5.07903672038893
H            4.29632541570546        1.52768711576961       -2.75402042187743
H            2.90618048306482       -0.16708698628061       -2.11526681949888
H            0.68366884975087        0.40885127450320       -1.31859483900152
H           -1.04377990374027       -0.21975277473584        0.01548228247969
H           -6.52167872133431       -2.57967789324396       -1.70791307827389
H           -7.02398348709489       -4.95808887942161       -2.04415845291967
H           -5.88371623083931       -6.67502066554427       -0.68517734837186
H           -4.21868630697722       -5.99221415886822        1.00652239681471
H           -3.72481881939195       -3.59207821375950        1.35004821402402
H           -6.38696471949727        1.20651198538324       -2.13307222652325
H           -8.69072676152471        1.47989116358264       -2.93969380496886
H          -10.52957290779405        0.19913480318887       -1.90325686808460
H          -10.04632371844322       -1.36102618140680       -0.05072935453118
H           -7.73681840981577       -1.62761404001868        0.76743763958261
H           -3.27311955908115        2.51992998887514       -0.95104532668120
H           -3.81715378802665        4.91796850810960       -1.12413498750061
H           -5.92367705437876        5.78046168849542       -0.16637602516287
H           -7.47605099826250        4.23744827890653        0.97606172204284
H           -6.91794547863370        1.84477461339383        1.17273031595231

          :  Hamiltonian                  GFN2-xTB          :
         :: gradient norm              0.000056851123 Eh/a0 ::
         :: HOMO-LUMO gap              1.315888847600 eV    ::
         :: SCC energy              -145.423453973576 Eh    ::
         :: -> dispersion             -0.134281218922 Eh    ::
         :: -> Gsolv                  -0.060818122089 Eh    ::
         :: repulsion energy           2.661981431336 Eh    ::

    * Orbital Energies and Occupations

         #    Occupation            Energy/Eh            Energy/eV
      -------------------------------------------------------------
         1        2.0000           -0.7209943             -19.6193
       ...           ...                  ...                  ...
       122        2.0000           -0.4047360             -11.0134
       123        2.0000           -0.4038400             -10.9890
       124        2.0000           -0.4022969             -10.9471
       125        2.0000           -0.4014995             -10.9254
       126        2.0000           -0.4011316             -10.9153
       127        2.0000           -0.3991205             -10.8606
       128        2.0000           -0.3961055             -10.7786
       129        2.0000           -0.3938199             -10.7164
       130        2.0000           -0.3816413             -10.3850
       131        2.0000           -0.3762024             -10.2370
       132        2.0000           -0.3612912              -9.8312
       133        1.0000           -0.3333119              -9.0699
       134        1.0000           -0.3012632              -8.1978 (HOMO)
       135                         -0.2529050              -6.8819 (LUMO)
       136                         -0.2433393              -6.6216
       137                         -0.2399556              -6.5295
       138                         -0.2350352              -6.3956
       139                         -0.2331774              -6.3451
       140                         -0.2269545              -6.1757
       141                         -0.2264879              -6.1631
       142                         -0.2200493              -5.9878
       143                         -0.2191426              -5.9632
       144                         -0.2191241              -5.9627
       145                         -0.2182697              -5.9394
       ...                                ...                  ...
       262                          0.7069358              19.2367
      -------------------------------------------------------------
                  HL-Gap            0.0483581 Eh            1.3159 eV

     #   Z          covCN         q      C6AA      α(0)
     1   8 O        1.659    -0.409    21.019     6.189
     2   6 C        2.848     0.137    25.000     8.195
     3   6 C        2.915    -0.071    29.764     8.946
     4   6 C        2.925    -0.036    28.898     8.816
     5   6 C        2.972     0.003    27.959     8.673
     6   6 C        2.975     0.008    27.841     8.655
     7   6 C        2.919    -0.035    28.865     8.810
     8   6 C        2.921    -0.035    28.876     8.812
     9   6 C        2.970     0.013    27.719     8.636
    10   6 C        2.970    -0.006    28.156     8.704
    11   6 C        2.971    -0.006    28.175     8.707
    12   6 C        2.971     0.014    27.686     8.631
    13   6 C        2.924    -0.035    28.864     8.810
    14   6 C        2.915    -0.030    28.751     8.793
    15   6 C        2.919    -0.033    28.828     8.805
    16   6 C        2.915    -0.031    28.765     8.795
    17   6 C        2.921    -0.036    28.886     8.814
    18   6 C        2.970     0.015    27.679     8.630
    19   6 C        2.924    -0.034    28.853     8.809
    20   6 C        2.915    -0.030    28.741     8.791
    21   6 C        2.919    -0.033    28.815     8.803
    22   6 C        2.915    -0.030    28.761     8.794
    23   6 C        2.921    -0.036    28.895     8.815
    24   6 C        2.971     0.015    27.682     8.630
    25   6 C        2.924    -0.034    28.853     8.809
    26   6 C        2.915    -0.030    28.751     8.793
    27   6 C        2.919    -0.033    28.823     8.804
    28   6 C        2.915    -0.031    28.766     8.795
    29   6 C        2.922    -0.036    28.884     8.813
    30   6 C        2.919    -0.036    28.906     8.817
    31   6 C        2.919    -0.035    28.869     8.811
    32   6 C        2.933    -0.038    28.940     8.823
    33   6 C        2.970    -0.022    28.539     8.763
    34   6 C        3.166     0.142    24.596     8.105
    35   7 N        1.911    -0.322    29.199     8.012
    36   6 C        3.169     0.053    26.455     8.403
    37   6 C        2.972     0.006    27.889     8.662
    38   6 C        2.923    -0.040    28.985     8.829
    39   6 C        2.919    -0.032    28.792     8.799
    40   6 C        2.919    -0.034    28.850     8.808
    41   6 C        2.918    -0.031    28.785     8.798
    42   6 C        2.927    -0.032    28.794     8.800
    43   6 C        3.071     0.015    27.601     8.614
    44   6 C        2.971     0.006    27.875     8.660
    45   6 C        2.924    -0.034    28.854     8.809
    46   6 C        2.918    -0.030    28.743     8.792
    47   6 C        2.920    -0.031    28.782     8.798
    48   6 C        2.918    -0.029    28.717     8.788
    49   6 C        2.925    -0.033    28.824     8.804
    50   7 N        2.851    -0.039    21.988     6.964
    51   6 C        2.914     0.074    26.354     8.418
    52   6 C        2.922    -0.041    29.013     8.833
    53   6 C        2.920    -0.028    28.696     8.785
    54   6 C        2.919    -0.031    28.779     8.797
    55   6 C        2.921    -0.027    28.676     8.782
    56   6 C        2.921    -0.034    28.849     8.808
    57   1 H        0.805     0.317     0.673     1.289
    58   1 H        0.925     0.042     2.425     2.435
    59   1 H        0.926     0.047     2.355     2.400
    60   1 H        0.926     0.033     2.540     2.492
    61   1 H        0.926     0.031     2.575     2.510
    62   1 H        0.926     0.029     2.604     2.523
    63   1 H        0.926     0.029     2.604     2.523
    64   1 H        0.926     0.029     2.596     2.520
    65   1 H        0.926     0.030     2.584     2.514
    66   1 H        0.926     0.035     2.520     2.482
    67   1 H        0.926     0.029     2.608     2.525
    68   1 H        0.926     0.029     2.602     2.522
    69   1 H        0.926     0.030     2.593     2.518
    70   1 H        0.926     0.030     2.581     2.512
    71   1 H        0.926     0.035     2.514     2.479
    72   1 H        0.926     0.028     2.608     2.525
    73   1 H        0.926     0.029     2.603     2.523
    74   1 H        0.926     0.029     2.594     2.519
    75   1 H        0.926     0.030     2.579     2.512
    76   1 H        0.926     0.035     2.513     2.479
    77   1 H        0.926     0.037     2.495     2.470
    78   1 H        0.926     0.032     2.562     2.503
    79   1 H        0.926     0.048     2.345     2.395
    80   1 H        0.926     0.024     2.677     2.559
    81   1 H        0.926     0.029     2.595     2.519
    82   1 H        0.926     0.031     2.577     2.510
    83   1 H        0.926     0.031     2.571     2.508
    84   1 H        0.926     0.042     2.427     2.436
    85   1 H        0.926     0.024     2.670     2.555
    86   1 H        0.926     0.035     2.522     2.483
    87   1 H        0.926     0.036     2.503     2.474
    88   1 H        0.926     0.036     2.508     2.477
    89   1 H        0.926     0.029     2.600     2.522
    90   1 H        0.926     0.034     2.532     2.489
    91   1 H        0.926     0.044     2.396     2.421
    92   1 H        0.926     0.045     2.382     2.413
    93   1 H        0.926     0.045     2.386     2.415
    94   1 H        0.926     0.040     2.452     2.449

molecular dipole:
                 x           y           z       tot (Debye)
 q only:       -0.133       1.752       0.250
   full:       -0.347       2.097       0.296       5.454

 projected vibrational frequencies (cm⁻¹)
eigval :       -0.00    -0.00    -0.00     0.00     0.00     0.00
eigval :        6.94     7.60    10.59    16.30    20.88    23.47
eigval :       29.80    33.47    41.83    46.50    47.69    51.21
eigval :       54.36    58.06    61.86    67.70    71.98    84.45
eigval :       84.98    92.11    99.97   116.42   122.69   128.36
eigval :      136.55   150.23   180.16   187.48   199.54   210.97
eigval :      213.17   225.42   232.28   236.69   243.71   250.99
eigval :      258.28   270.00   276.31   297.42   316.33   336.56
eigval :      356.57   358.65   364.84   366.49   370.67   371.42
eigval :      376.63   383.55   386.08   387.49   390.26   395.37
eigval :      407.38   418.96   437.10   451.70   455.87   469.82
eigval :      473.25   490.65   495.45   506.82   517.85   533.46
eigval :      540.59   570.38   577.73   583.05   584.90   586.19
eigval :      586.77   589.06   589.78   600.77   611.57   617.43
eigval :      627.73   639.93   645.10   655.52   656.14   658.64
eigval :      660.90   664.10   666.72   672.39   677.29   686.92
eigval :      691.85   698.99   705.97   724.65   742.98   745.30
eigval :      749.80   754.75   762.15   763.57   784.37   806.91
eigval :      826.67   830.86   850.13   851.27   855.17   862.68
eigval :      866.36   874.90   876.20   877.49   879.98   880.39
eigval :      891.24   894.51   899.23   900.33   902.31   903.21
eigval :      906.16   914.01   918.63   919.59   921.68   922.20
eigval :      927.31   927.48   927.62   928.42   929.70   930.23
eigval :      932.68   934.22   942.07   942.19   943.62   954.21
eigval :      969.47   973.91   980.22   987.65   996.34  1009.86
eigval :     1024.47  1078.24  1078.60  1079.23  1079.79  1080.44
eigval :     1080.88  1082.67  1090.88  1104.78  1117.11  1117.58
eigval :     1119.49  1119.86  1121.91  1124.08  1132.34  1147.77
eigval :     1154.52  1171.88  1177.30  1177.57  1178.50  1179.05
eigval :     1179.27  1179.67  1189.26  1190.81  1192.47  1194.40
eigval :     1199.87  1200.13  1208.68  1211.41  1238.64  1251.41
eigval :     1260.45  1267.60  1270.50  1273.61  1276.36  1278.21
eigval :     1281.73  1282.01  1285.76  1303.03  1305.48  1313.11
eigval :     1315.09  1316.82  1319.20  1320.05  1325.26  1327.27
eigval :     1329.48  1330.66  1333.60  1344.59  1363.24  1394.01
eigval :     1410.95  1417.68  1419.65  1426.50  1427.92  1430.00
eigval :     1432.82  1435.25  1435.75  1440.64  1452.11  1454.98
eigval :     1458.24  1477.97  1486.76  1487.98  1501.94  1536.04
eigval :     1536.97  1539.84  1543.45  1558.41  1559.33  1567.20
eigval :     1568.81  1576.98  1577.48  1579.69  1582.18  1585.17
eigval :     1592.91  1594.56  1596.28  1598.50  3059.43  3064.56
eigval :     3064.91  3065.09  3065.11  3065.86  3066.75  3066.86
eigval :     3068.35  3069.43  3071.59  3072.44  3074.14  3077.67
eigval :     3078.03  3078.67  3079.23  3079.82  3080.24  3080.85
eigval :     3082.35  3082.56  3082.65  3083.75  3085.61  3086.81
eigval :     3088.31  3088.47  3089.25  3090.06  3090.75  3092.17
eigval :     3093.73  3094.78  3095.72  3099.96  3101.11  3488.33

   temp. (K)  partition function   enthalpy   heat capacity  entropy
                                   cal/mol     cal/K/mol   cal/K/mol   J/K/mol
 298.15  VIB  0.225E+24            27639.917    169.447    176.091
         ROT  0.159E+09              888.752      2.981     40.513
         INT  0.359E+32            28528.669    172.428    216.604
         TR   0.186E+29             1481.254      4.968     45.577
         TOT                       30009.9229   177.3957   262.1808  1096.9647

       T/K    H(0)-H(T)+PV         H(T)/Eh          T*S/Eh         G(T)/Eh
   ------------------------------------------------------------------------
    298.15    0.478239E-01    0.775515E+00    0.124571E+00    0.650944E+00
   ------------------------------------------------------------------------

         :::::::::::::::::::::::::::::::::::::::::::::::::::::
         ::                  THERMODYNAMIC                  ::
         :::::::::::::::::::::::::::::::::::::::::::::::::::::
         :: total free energy        -142.110528477017 Eh   ::
         ::.................................................::
         :: total energy             -142.761472546643 Eh   ::
         :: zero point energy           0.727690795302 Eh   ::
         :: G(RRHO) w/o ZPVE           -0.076746725676 Eh   ::
         :: G(RRHO) contrib.            0.650944069626 Eh   ::
         :::::::::::::::::::::::::::::::::::::::::::::::::::::

           -------------------------------------------------
          | TOTAL ENERGY             -142.761472546643 Eh   |
          | TOTAL ENTHALPY           -141.985957895134 Eh   |
          | TOTAL FREE ENERGY        -142.110528477017 Eh   |
          | GRADIENT NORM               0.000056832950 Eh/α |
          | HOMO-LUMO GAP               1.315891677301 eV   |
           -------------------------------------------------

 * finished run on 2025/07/20 at 20:48:57.995
