   * xtb version 6.7.1 (edcfbbe) compiled by 'albert@albert-system' on 2024-07-22

   ID    Z sym.   atoms
    1    6 C      1-9, 11-15, 17, 19-22, 24-48
    2    7 N      10, 23
    3    8 O      16, 18
    4    1 H      49-84

          program call               : xtb data2507/gas/DC-ACR/DC-ACR_gas_S0_crest.xyz --gfn 2 --ohess vtight --parallel 40 --molden --ceasefiles --namespace data2507/gas/DC-ACR/DC-ACR_gas_S0_finalOpt
          :  Hamiltonian                  GFN2-xTB          :
 * total energy  :  -126.5907732 Eh     change       -0.1968431E-08 Eh
 * total energy  :  -126.5907738 Eh     change       -0.5971947E-06 Eh
 * total energy  :  -126.5907744 Eh     change       -0.6215941E-06 Eh
 * total energy  :  -126.5907755 Eh     change       -0.1073174E-05 Eh
 * total energy  :  -126.5907756 Eh     change       -0.8781009E-07 Eh
 * total energy  :  -126.5907761 Eh     change       -0.5195793E-06 Eh
 * total energy  :  -126.5907767 Eh     change       -0.6317348E-06 Eh
 * total energy  :  -126.5907773 Eh     change       -0.5871884E-06 Eh
 * total energy  :  -126.5907782 Eh     change       -0.8430319E-06 Eh
 * total energy  :  -126.5907791 Eh     change       -0.9822680E-06 Eh
 * total energy  :  -126.5907815 Eh     change       -0.5486680E-06 Eh
 * total energy  :  -126.5907819 Eh     change       -0.3987263E-06 Eh
 * total energy  :  -126.5907821 Eh     change       -0.2094888E-06 Eh
 * total energy  :  -126.5907822 Eh     change       -0.1417571E-06 Eh
 * total energy  :  -126.5907824 Eh     change       -0.1421136E-06 Eh
 * total energy  :  -126.5907826 Eh     change       -0.2027875E-06 Eh
 * total energy  :  -126.5907827 Eh     change       -0.1851144E-06 Eh
 * total energy  :  -126.5907829 Eh     change       -0.1473094E-06 Eh
 * total energy  :  -126.5907829 Eh     change       -0.1637446E-08 Eh
   *** GEOMETRY OPTIMIZATION CONVERGED AFTER 22 ITERATIONS ***

 final structure:
================
84
 xtb: 6.7.1 (edcfbbe)
C            3.52390424907603       -3.77888247150902       -0.87504848355165
C            3.75584140751362       -2.83531333699707        0.31861792264537
C            4.51312023861202       -3.57069936328927        1.43966056086098
C            4.59979654552041       -1.66425796992273       -0.14566352182022
C            5.86359714344035       -1.89715389722627       -0.67156621619934
C            6.68705318447075       -0.86768613308902       -1.08745581110163
C            6.25165620064010        0.43925620829313       -0.96300001791198
C            5.00128740345704        0.69890607362509       -0.44293342867945
C            4.15676508018932       -0.34223475158273       -0.04736049712161
N            2.90571800538793       -0.04583453523856        0.47662180646216
C            2.45165522907674        1.29370394312565        0.46799887334947
C            2.34185756941693        2.00652146125607        1.65857343069374
C            1.80002018377432        3.27605286333327        1.65556840165045
C            1.33601414310553        3.83802778863872        0.46700897539410
C            0.51798111618373        5.07250147154809        0.53253298396369
O            0.61419430583908        5.92405116082169        1.38089378427299
C           -0.58164015776375        5.06479660347005       -0.54495423124674
O           -0.68859603003450        5.91350479782593       -1.39482237910180
C           -1.38420280241994        3.82026026602811       -0.47684425314795
C           -1.55570073417379        3.13287671194174        0.72598466203044
C           -2.10441014952234        1.86864565744858        0.72924522850963
C           -2.46628770153677        1.26169190049104       -0.47191540272321
N           -2.90268962090717       -0.08385557739346       -0.47695042507729
C           -2.02051939121326       -1.06870165848162       -0.90675870206958
C           -0.75387766877402       -0.71269026499895       -1.37774758972753
C            0.14077890902842       -1.67080235095304       -1.80400650273599
C           -0.20899947921917       -3.00693415308674       -1.76114632817040
C           -1.45363022007888       -3.36242223201379       -1.27841229215042
C           -2.37442057823105       -2.41972619300541       -0.84278298839276
C           -3.71605515364549       -2.88348568143385       -0.30804862860344
C           -3.47662597296909       -3.81320075985254        0.89499077470720
C           -4.45592770870251       -3.63959151226467       -1.42690398458136
C           -4.57972350382124       -1.72116408579226        0.14174872119497
C           -5.84453686391094       -1.96782584866532        0.65882251508547
C           -6.68470911485499       -0.94702169843715        1.06250989815783
C           -6.26516964951929        0.36482832434224        0.93522655374706
C           -5.01415437835982        0.63811823348079        0.42376932656334
C           -4.15341293524005       -0.39395064401984        0.03959050877461
C           -2.36398704184417        1.97220194203264       -1.66448470012211
C           -1.83894458662359        3.24879433378330       -1.66443748280739
C            1.51476611544229        3.14927972871021       -0.73402121037626
C            2.07987833828300        1.89232739130702       -0.73438761235827
C            2.03880696823190       -1.04028153813774        0.91558297803671
C            0.76924645005940       -0.69897307988277        1.38964484837653
C           -0.11056436042449       -1.66671536424160        1.82488474758486
C            0.25742820733463       -2.99815427131976        1.78872076276291
C            1.50484279083811       -3.33935114585281        1.30286588317385
C            2.41059846998545       -2.38674910601068        0.85725967157999
H            3.01143185054962       -3.24506475972241       -1.67260712308589
H            4.46750641594354       -4.15240659278824       -1.26307003716823
H            2.91503132153789       -4.63039335579128       -0.58510407675859
H            5.48022424167883       -3.92136526175433        1.09018154107836
H            3.94620106286074       -4.42799564440216        1.79183332416712
H            4.67533058937540       -2.89779438629323        2.27961151939537
H            6.22273537811431       -2.91124655077128       -0.75966484757395
H            7.66272183148643       -1.08469702620460       -1.49431536264914
H            6.88527810372737        1.25967414636967       -1.26461265195238
H            4.67524684678855        1.72195716513304       -0.33232735085069
H            2.66279573981804        1.54669826942331        2.58131822859904
H            1.69023422580169        3.83363546330176        2.57375495218038
H           -1.25476877748795        3.59108204349638        1.65659031151724
H           -2.22920383985822        1.32552667152793        1.65415315189759
H           -0.46153607581130        0.32608807508574       -1.39929552414168
H            1.11302387411771       -1.36916548613990       -2.16513235032692
H            0.47973651779346       -3.76785744452334       -2.09347420666869
H           -1.70999785873027       -4.41018460736937       -1.24093680415379
H           -4.41698585841452       -4.19415679418223        1.28370754406035
H           -2.85675385868248       -4.65998556651960        0.61460645248530
H           -2.97278983033729       -3.26604982481843        1.68903294589368
H           -4.62472440372174       -2.97585483819471       -2.27282845670758
H           -5.41896280010474       -4.00317866434619       -1.07946567328498
H           -3.87370879972584       -4.49037890672944       -1.76972996637993
H           -6.19102153740670       -2.98607699176652        0.74969419763338
H           -7.66084390170553       -1.17463087987843        1.46240589123106
H           -6.91165314007648        1.17841641232406        1.22792342305712
H           -4.70016162123954        1.66471452140481        0.31104754813698
H           -2.67731461041774        1.50536651436537       -2.58632183092556
H           -1.73498865964241        3.80501518899793       -2.58413089886401
H            1.20653221493207        3.60065726730950       -1.66556880208939
H            2.21019676944798        1.34816252475767       -1.65792279874073
H            0.46260088649346        0.33574780046572        1.40631014628691
H           -1.08549659882731       -1.37626457526814        2.18790339292467
H           -0.41949614163883       -3.76636456018332        2.12854081492406
H            1.77564473554722       -4.38366436432581        1.27093619005730

          :  Hamiltonian                  GFN2-xTB          :
         :: gradient norm              0.000029373089 Eh/a0 ::
         :: HOMO-LUMO gap              1.132079293065 eV    ::
         :: SCC energy              -128.794701649181 Eh    ::
         :: -> dispersion             -0.133115552430 Eh    ::
         :: repulsion energy           2.203918750641 Eh    ::

    * Orbital Energies and Occupations

         #    Occupation            Energy/Eh            Energy/eV
      -------------------------------------------------------------
         1        2.0000           -0.7309928             -19.8913
       ...           ...                  ...                  ...
       105        2.0000           -0.4148005             -11.2873
       106        2.0000           -0.4138724             -11.2620
       107        2.0000           -0.4129309             -11.2364
       108        2.0000           -0.4125267             -11.2254
       109        2.0000           -0.4100364             -11.1577
       110        2.0000           -0.4089127             -11.1271
       111        2.0000           -0.4032627             -10.9733
       112        2.0000           -0.4019148             -10.9367
       113        2.0000           -0.3985414             -10.8449
       114        2.0000           -0.3956172             -10.7653
       115        2.0000           -0.3874831             -10.5440
       116        2.0000           -0.3532874              -9.6134
       117        2.0000           -0.3529720              -9.6049 (HOMO)
       118                         -0.3113688              -8.4728 (LUMO)
       119                         -0.2896630              -7.8821
       120                         -0.2548276              -6.9342
       121                         -0.2536632              -6.9025
       122                         -0.2413459              -6.5674
       123                         -0.2297684              -6.2523
       124                         -0.2290184              -6.2319
       125                         -0.2262944              -6.1578
       126                         -0.2235961              -6.0844
       127                         -0.2234449              -6.0802
       128                         -0.2213213              -6.0225
       ...                                ...                  ...
       228                          0.6847004              18.6316
      -------------------------------------------------------------
                  HL-Gap            0.0416031 Eh            1.1321 eV

     #   Z          covCN         q      C6AA      α(0)
     1   6 C        3.761    -0.102    22.500     6.762
     2   6 C        3.909     0.022    20.151     6.380
     3   6 C        3.761    -0.104    22.528     6.766
     4   6 C        2.980    -0.013    28.329     8.731
     5   6 C        2.928    -0.036    28.887     8.814
     6   6 C        2.917    -0.043    29.075     8.842
     7   6 C        2.920    -0.032    28.803     8.801
     8   6 C        2.924    -0.058    29.450     8.899
     9   6 C        2.928     0.057    26.713     8.476
    10   7 N        2.754    -0.069    22.577     7.057
    11   6 C        2.929     0.080    26.215     8.397
    12   6 C        2.920    -0.036    28.901     8.816
    13   6 C        2.923    -0.017    28.442     8.746
    14   6 C        2.975    -0.016    28.400     8.741
    15   6 C        2.821     0.214    23.472     7.938
    16   8 O        0.857    -0.320    20.154     6.019
    17   6 C        2.821     0.215    23.471     7.938
    18   8 O        0.857    -0.320    20.152     6.019
    19   6 C        2.975    -0.016    28.398     8.741
    20   6 C        2.921    -0.027    28.682     8.782
    21   6 C        2.920    -0.035    28.866     8.811
    22   6 C        2.929     0.080    26.214     8.397
    23   7 N        2.754    -0.069    22.580     7.057
    24   6 C        2.929     0.058    26.695     8.473
    25   6 C        2.924    -0.057    29.424     8.896
    26   6 C        2.920    -0.030    28.738     8.791
    27   6 C        2.918    -0.042    29.052     8.839
    28   6 C        2.929    -0.035    28.870     8.812
    29   6 C        2.980    -0.012    28.299     8.726
    30   6 C        3.909     0.022    20.151     6.381
    31   6 C        3.761    -0.102    22.499     6.762
    32   6 C        3.761    -0.104    22.528     6.766
    33   6 C        2.980    -0.013    28.329     8.731
    34   6 C        2.928    -0.036    28.887     8.814
    35   6 C        2.917    -0.043    29.076     8.842
    36   6 C        2.920    -0.032    28.803     8.801
    37   6 C        2.924    -0.058    29.450     8.900
    38   6 C        2.928     0.057    26.713     8.476
    39   6 C        2.920    -0.036    28.901     8.816
    40   6 C        2.923    -0.017    28.442     8.746
    41   6 C        2.921    -0.027    28.682     8.783
    42   6 C        2.920    -0.035    28.866     8.811
    43   6 C        2.929     0.058    26.694     8.473
    44   6 C        2.924    -0.057    29.423     8.895
    45   6 C        2.920    -0.030    28.738     8.791
    46   6 C        2.918    -0.042    29.050     8.839
    47   6 C        2.929    -0.035    28.869     8.812
    48   6 C        2.980    -0.012    28.298     8.726
    49   1 H        0.925     0.033     2.549     2.497
    50   1 H        0.925     0.040     2.451     2.448
    51   1 H        0.925     0.039     2.458     2.452
    52   1 H        0.925     0.041     2.442     2.444
    53   1 H        0.925     0.040     2.447     2.446
    54   1 H        0.925     0.032     2.560     2.502
    55   1 H        0.926     0.032     2.560     2.502
    56   1 H        0.926     0.029     2.604     2.524
    57   1 H        0.926     0.030     2.585     2.514
    58   1 H        0.926     0.024     2.677     2.559
    59   1 H        0.926     0.055     2.259     2.350
    60   1 H        0.926     0.064     2.158     2.297
    61   1 H        0.926     0.044     2.397     2.421
    62   1 H        0.926     0.051     2.302     2.373
    63   1 H        0.926     0.017     2.780     2.607
    64   1 H        0.926     0.022     2.707     2.573
    65   1 H        0.926     0.029     2.600     2.521
    66   1 H        0.926     0.033     2.548     2.496
    67   1 H        0.925     0.040     2.451     2.448
    68   1 H        0.925     0.039     2.458     2.452
    69   1 H        0.925     0.033     2.550     2.497
    70   1 H        0.925     0.032     2.560     2.502
    71   1 H        0.925     0.041     2.442     2.444
    72   1 H        0.925     0.040     2.447     2.446
    73   1 H        0.926     0.032     2.561     2.502
    74   1 H        0.926     0.029     2.605     2.524
    75   1 H        0.926     0.030     2.586     2.515
    76   1 H        0.926     0.024     2.678     2.559
    77   1 H        0.926     0.055     2.259     2.350
    78   1 H        0.926     0.063     2.158     2.297
    79   1 H        0.926     0.044     2.398     2.422
    80   1 H        0.926     0.051     2.302     2.373
    81   1 H        0.926     0.017     2.779     2.607
    82   1 H        0.926     0.022     2.706     2.572
    83   1 H        0.926     0.029     2.600     2.521
    84   1 H        0.926     0.033     2.547     2.496

molecular dipole:
                 x           y           z       tot (Debye)
 q only:        0.019      -2.446       0.004
   full:        0.019      -2.448       0.004       6.223

 projected vibrational frequencies (cm⁻¹)
eigval :       -0.00    -0.00    -0.00     0.00     0.00     0.00
eigval :       17.28    18.72    29.08    30.04    34.15    37.53
eigval :       46.36    59.59    60.56    64.87    74.14    85.82
eigval :       94.49   102.43   102.83   105.66   125.30   129.17
eigval :      132.68   135.73   156.59   164.20   174.22   193.21
eigval :      193.62   198.50   204.98   220.24   220.61   228.76
eigval :      235.25   242.23   274.10   282.45   302.35   309.95
eigval :      315.47   331.75   332.55   342.62   343.44   350.83
eigval :      356.42   363.53   370.39   370.85   379.59   380.22
eigval :      391.47   403.21   410.09   412.30   451.21   452.53
eigval :      473.18   475.26   486.04   492.88   494.53   501.73
eigval :      515.51   515.83   547.33   548.33   557.43   565.02
eigval :      570.93   580.17   588.31   591.44   603.41   604.76
eigval :      623.05   640.82   649.66   678.07   682.04   682.33
eigval :      684.45   693.47   693.53   698.95   715.15   741.52
eigval :      752.88   757.96   773.05   778.29   778.69   779.26
eigval :      817.28   817.38   828.18   828.86   863.54   868.80
eigval :      868.88   869.24   871.76   871.92   873.48   911.88
eigval :      912.07   913.67   914.16   914.39   915.68   916.71
eigval :      919.59   919.99   922.07   922.17   923.19   924.50
eigval :      929.98   930.43   935.80   939.18   941.08   957.55
eigval :      957.62   984.30  1014.54  1014.54  1018.22  1027.57
eigval :     1076.91  1077.62  1085.58  1085.99  1114.60  1115.04
eigval :     1121.55  1121.72  1126.42  1128.19  1142.24  1142.83
eigval :     1160.80  1160.83  1172.31  1173.36  1176.56  1180.00
eigval :     1187.17  1187.33  1190.38  1191.54  1194.39  1195.14
eigval :     1219.04  1220.41  1247.24  1247.45  1250.91  1251.38
eigval :     1258.45  1259.19  1271.36  1271.51  1295.10  1295.66
eigval :     1312.66  1315.28  1316.95  1321.87  1327.04  1327.35
eigval :     1335.89  1336.04  1340.57  1342.18  1400.60  1402.02
eigval :     1402.68  1402.91  1420.55  1420.90  1437.05  1437.11
eigval :     1442.65  1443.78  1469.49  1469.62  1480.28  1480.62
eigval :     1489.32  1489.38  1490.60  1490.63  1496.98  1497.37
eigval :     1499.70  1499.91  1504.96  1505.86  1553.96  1555.78
eigval :     1577.42  1577.48  1579.49  1582.67  1592.73  1592.82
eigval :     1593.95  1594.18  1603.62  1603.80  1727.06  1757.32
eigval :     3028.30  3028.32  3033.49  3033.71  3040.28  3040.29
eigval :     3042.84  3043.10  3049.24  3049.28  3053.05  3053.14
eigval :     3073.75  3074.07  3080.74  3080.79  3083.82  3083.93
eigval :     3084.43  3084.82  3084.89  3084.95  3088.91  3088.95
eigval :     3092.30  3093.68  3093.79  3095.45  3096.10  3096.89
eigval :     3098.54  3098.64  3100.08  3100.31  3100.91  3101.12

   temp. (K)  partition function   enthalpy   heat capacity  entropy
                                   cal/mol     cal/K/mol   cal/K/mol   J/K/mol
 298.15  VIB  0.321E+18            24208.175    152.998    148.931
         ROT  0.283E+08              888.752      2.981     37.079
         INT  0.908E+25            25096.927    155.979    186.010
         TR   0.151E+29             1481.254      4.968     45.159
         TOT                       26578.1812   160.9469   231.1692   967.2119

       T/K    H(0)-H(T)+PV         H(T)/Eh          T*S/Eh         G(T)/Eh
   ------------------------------------------------------------------------
    298.15    0.423550E-01    0.706253E+00    0.109836E+00    0.596418E+00
   ------------------------------------------------------------------------

         :::::::::::::::::::::::::::::::::::::::::::::::::::::
         ::                  THERMODYNAMIC                  ::
         :::::::::::::::::::::::::::::::::::::::::::::::::::::
         :: total free energy        -125.994365396935 Eh   ::
         ::.................................................::
         :: total energy             -126.590782898561 Eh   ::
         :: zero point energy           0.663898414926 Eh   ::
         :: G(RRHO) w/o ZPVE           -0.067480913300 Eh   ::
         :: G(RRHO) contrib.            0.596417501625 Eh   ::
         :::::::::::::::::::::::::::::::::::::::::::::::::::::

           -------------------------------------------------
          | TOTAL ENERGY             -126.590782898561 Eh   |
          | TOTAL ENTHALPY           -125.884529455855 Eh   |
          | TOTAL FREE ENERGY        -125.994365396935 Eh   |
          | GRADIENT NORM               0.000029355633 Eh/α |
          | HOMO-LUMO GAP               1.132078255510 eV   |
           -------------------------------------------------

 * finished run on 2025/09/12 at 11:30:52.081
