   * xtb version 6.7.1 (edcfbbe) compiled by 'albert@albert-system' on 2024-07-22

   ID    Z sym.   atoms
    1    6 C      1-9, 11-15, 17, 19-22, 24-48
    2    7 N      10, 23
    3    8 O      16, 18
    4    1 H      49-84

          program call               : xtb data2507/gas/DC-ACR/DC-ACR_gas_S0_finalOpt.xtbopt.xyz --gfn 2 --spinpol --tblite --uhf 2 --ohess vtight --parallel 40 --molden --ceasefiles --namespace data2507/gas/DC-ACR/DC-ACR_gas_T1_preOpt
 * total energy  :  -126.5286101 Eh     change        0.7935851E-07 Eh
 * total energy  :  -126.5327201 Eh     change       -0.4109992E-02 Eh
 * total energy  :  -126.5343108 Eh     change       -0.1590736E-02 Eh
 * total energy  :  -126.5349449 Eh     change       -0.6340558E-03 Eh
 * total energy  :  -126.5360342 Eh     change       -0.1089358E-02 Eh
 * total energy  :  -126.5367594 Eh     change       -0.7251426E-03 Eh
 * total energy  :  -126.5374094 Eh     change       -0.6500534E-03 Eh
 * total energy  :  -126.5377248 Eh     change       -0.3154178E-03 Eh
 * total energy  :  -126.5379987 Eh     change       -0.2738194E-03 Eh
 * total energy  :  -126.5381097 Eh     change       -0.1110335E-03 Eh
 * total energy  :  -126.5387588 Eh     change       -0.6394518E-06 Eh
 * total energy  :  -126.5387592 Eh     change       -0.3521466E-06 Eh
 * total energy  :  -126.5387595 Eh     change       -0.3624738E-06 Eh
 * total energy  :  -126.5387600 Eh     change       -0.4305228E-06 Eh
 * total energy  :  -126.5387605 Eh     change       -0.4927102E-06 Eh
 * total energy  :  -126.5387609 Eh     change       -0.4522277E-06 Eh
 * total energy  :  -126.5387613 Eh     change       -0.3787900E-06 Eh
 * total energy  :  -126.5387616 Eh     change       -0.3124794E-06 Eh
 * total energy  :  -126.5387616 Eh     change       -0.1516116E-07 Eh
   *** GEOMETRY OPTIMIZATION CONVERGED AFTER 44 ITERATIONS ***

 final structure:
================
84
 xtb: 6.7.1 (edcfbbe)
C            3.68355259537573       -3.74042561929861       -0.88118454164516
C            3.86052766629761       -2.83792029999322        0.35390336771570
C            4.55504828350112       -3.61615347961677        1.48686329623188
C            4.73097079320593       -1.65796702234342       -0.03077164868035
C            6.02581545090768       -1.87511878755776       -0.48110900681082
C            6.85668677198990       -0.83387000231833       -0.85223326173189
C            6.39168323025007        0.46854967407643       -0.77828592571905
C            5.11032133723628        0.71427297527682       -0.33626641988898
C            4.26871503849202       -0.33787642758823        0.04243627436544
N            2.99189307564987       -0.05701586311259        0.48912559557455
C            2.50451002853351        1.27999262563700        0.42043585229971
C            2.63013982698551        2.14579843676766        1.50199151283992
C            2.06356439583586        3.40336895546150        1.44748432398045
C            1.33299578885874        3.79799063704631        0.32465578173451
C            0.63389903293997        5.09821308494208        0.32205143082379
O            1.11522358470272        6.12548332406346        0.80826470843486
C           -0.69763455142881        5.08815498256509       -0.34451820721302
O           -1.19223186926772        6.10714623564774       -0.83502638828674
C           -1.37984745837894        3.77903413366439       -0.34171660301234
C           -1.32855752524214        2.94428238558833        0.77815604396223
C           -1.89415833079602        1.68846486056547        0.73410685666557
C           -2.51876461314362        1.24573681403191       -0.42693134875761
N           -2.98896138242082       -0.09768935512440       -0.48993736998632
C           -2.10376260189842       -1.08242260519328       -0.88767879117243
C           -0.83683059531633       -0.72157428992042       -1.36011023597828
C            0.07063103977086       -1.68045576973554       -1.75224300543321
C           -0.26639933590363       -3.02008653943054       -1.67738432965167
C           -1.52104375245059       -3.37886631746853       -1.22108491005182
C           -2.45874436954066       -2.43570693019129       -0.82611383770533
C           -3.82182559929817       -2.88889231784176       -0.34227675184902
C           -3.63360753938172       -3.78295501805714        0.89728054346683
C           -4.50574560478602       -3.68163944876493       -1.47160833565622
C           -4.70763786472112       -1.71845845232594        0.03636108033770
C           -5.99985333708347       -1.95017098271953        0.48699473952196
C           -6.84427005443373       -0.91799564869844        0.85285558391165
C           -6.39599164593247        0.38993798560246        0.77319935834927
C           -5.11761567140579        0.65008087415178        0.33077858806215
C           -4.26234352131715       -0.39288648128376       -0.04265499922188
C           -2.65539967221844        2.10526232954282       -1.51215931182004
C           -2.10512231779822        3.37026214921011       -1.46292572598176
C            1.29243926894958        2.95794437598818       -0.79168544664374
C            1.87418501522566        1.70971538470835       -0.74239562601577
C            2.11952154351485       -1.05121756072351        0.89160931822586
C            0.84815154867009       -0.70454672183103        1.36274851090758
C           -0.04682098571995       -1.67321980464274        1.75948213268702
C            0.30739770791249       -3.00873367322983        1.69065464499453
C            1.56645332576096       -3.35342356408079        1.23564597712748
C            2.49184508907052       -2.40009987960110        0.83607144589562
H            3.19659730369331       -3.18385719762140       -1.67958192462371
H            4.64508967110213       -4.09164403811277       -1.24500539694053
H            3.07198202283865       -4.60603611795691       -0.64270620586967
H            5.53500159245058       -3.96518128132459        1.17427207204570
H            3.96513115719533       -4.47899929955418        1.78256794061823
H            4.68046792841297       -2.97201878917532        2.35504162236510
H            6.40278664728884       -2.88427051976964       -0.54857298161152
H            7.85838496883754       -1.03850017625536       -1.19733343254281
H            7.02628277959852        1.29327386546832       -1.06459213143354
H            4.74785806346374        1.72896216580225       -0.27884185090163
H            3.15663135553616        1.81877704236467        2.38637817424598
H            2.14345698122984        4.07991123582478        2.28471559719250
H           -0.84822316531919        3.28384467949483        1.68274526291744
H           -1.85077271348232        1.03598936070371        1.59332876845273
H           -0.57103120846480        0.32238845957964       -1.41322863965349
H            1.04305000869053       -1.38291996947634       -2.11553802404050
H            0.43846164998972       -3.78046365958462       -1.97556163835079
H           -1.77047742843767       -4.42786549255239       -1.17371766628015
H           -4.59065344103869       -4.14473080035666        1.26259964077463
H           -3.01084406591679       -4.64176826928309        0.66321814939419
H           -3.15410815588488       -3.21622205080353        1.69303187152934
H           -4.63904349170423       -3.04349607834734       -2.34302630746199
H           -5.48126652569745       -4.04171294183465       -1.15768839142888
H           -3.90464414311523       -4.53828218141886       -1.76278468677184
H           -6.36384862794348       -2.96376649223611        0.55894324530249
H           -7.84347100533120       -1.13390072071717        1.19832096939967
H           -7.04131400150856        1.20774466028629        1.05534731762468
H           -4.76818088790563        1.66907176430739        0.26893830936785
H           -3.17754804856317        1.76774975932599       -2.39517651518416
H           -2.19366459347081        4.04219012342053       -2.30299396269150
H            0.80774477507909        3.28745818415122       -1.69766563898299
H            1.83917866908076        1.05311763287704       -1.59885643766144
H            0.56894805328781        0.33613852167530        1.41117980194395
H           -1.02291765618566       -1.38656279036949        2.12166130339672
H           -0.38756565905915       -3.77673966591346        1.99249610098091
H            1.82936081551913       -4.39933195083989        1.19302539126548

 projected vibrational frequencies (cm⁻¹)
eigval :       -0.00    -0.00    -0.00    -0.00     0.00     0.00
eigval :       14.98    18.62    29.30    29.76    33.75    38.92
eigval :       49.08    57.36    60.69    69.38    84.52    85.37
eigval :       96.48    98.78   100.84   107.52   121.85   131.90
eigval :      132.35   133.13   155.19   167.71   183.62   194.07
eigval :      194.13   208.98   209.13   220.17   220.73   233.56
eigval :      233.70   251.86   271.50   302.22   302.28   307.46
eigval :      314.69   328.90   329.53   342.86   342.92   349.99
eigval :      373.67   375.98   380.55   380.76   387.22   388.37
eigval :      401.56   405.56   409.50   414.80   448.94   450.72
eigval :      453.39   475.90   484.66   498.22   502.13   507.49
eigval :      510.74   511.47   545.44   545.64   546.79   552.67
eigval :      562.35   578.79   584.80   590.31   598.76   600.72
eigval :      606.84   630.20   637.70   652.34   670.46   684.28
eigval :      684.34   693.64   696.68   696.68   698.95   699.95
eigval :      734.61   756.47   770.15   775.85   777.02   777.38
eigval :      809.65   810.64   826.30   827.28   857.17   860.88
eigval :      862.95   863.33   867.83   869.17   869.18   908.99
eigval :      910.72   911.00   911.62   911.86   915.11   915.14
eigval :      916.78   917.65   918.77   919.21   921.73   922.70
eigval :      922.81   922.81   929.67   938.31   939.07   957.75
eigval :      957.81   979.23  1013.70  1013.70  1014.17  1025.83
eigval :     1076.42  1077.12  1085.90  1086.44  1109.81  1110.55
eigval :     1118.38  1118.45  1126.19  1127.52  1140.37  1140.61
eigval :     1154.46  1156.59  1156.66  1168.80  1170.25  1171.24
eigval :     1185.36  1185.41  1186.25  1187.56  1190.21  1190.33
eigval :     1213.45  1214.18  1243.75  1243.89  1247.57  1247.82
eigval :     1257.32  1258.12  1266.09  1266.33  1294.50  1294.83
eigval :     1307.28  1312.69  1315.12  1315.93  1325.07  1325.23
eigval :     1335.66  1336.19  1336.71  1336.78  1396.19  1398.17
eigval :     1401.71  1401.74  1419.49  1419.76  1432.98  1434.24
eigval :     1435.26  1435.46  1447.76  1457.80  1466.44  1466.71
eigval :     1478.77  1487.98  1488.32  1488.58  1489.39  1489.49
eigval :     1491.19  1498.79  1498.94  1503.07  1503.46  1539.06
eigval :     1540.47  1565.85  1566.15  1571.65  1575.87  1580.44
eigval :     1580.58  1585.49  1585.69  1596.60  1596.81  1615.87
eigval :     3028.79  3028.83  3030.96  3031.02  3041.58  3041.67
eigval :     3044.69  3044.87  3050.16  3050.18  3054.23  3054.37
eigval :     3077.17  3077.41  3083.86  3083.89  3085.60  3085.89
eigval :     3086.06  3086.10  3087.01  3087.14  3088.67  3088.70
eigval :     3098.02  3098.09  3098.32  3098.56  3099.09  3099.99
eigval :     3100.27  3100.95  3104.53  3104.73  3105.81  3107.26

   temp. (K)  partition function   enthalpy   heat capacity  entropy
                                   cal/mol     cal/K/mol   cal/K/mol   J/K/mol
 298.15  VIB  0.274E+18            24198.266    153.741    148.650
         ROT  0.292E+08              888.752      2.981     37.143
         INT  0.800E+25            25087.018    156.722    185.793
         TR   0.151E+29             1481.254      4.968     45.159
         TOT                       26568.2722   161.6901   230.9519   966.3029

       T/K    H(0)-H(T)+PV         H(T)/Eh          T*S/Eh         G(T)/Eh
   ------------------------------------------------------------------------
    298.15    0.423392E-01    0.704133E+00    0.109733E+00    0.594400E+00
   ------------------------------------------------------------------------

         :::::::::::::::::::::::::::::::::::::::::::::::::::::
         ::                  THERMODYNAMIC                  ::
         :::::::::::::::::::::::::::::::::::::::::::::::::::::
         :: total free energy        -125.944361346967 Eh   ::
         ::.................................................::
         :: total energy             -126.538761524916 Eh   ::
         :: zero point energy           0.661793654207 Eh   ::
         :: G(RRHO) w/o ZPVE           -0.067393476259 Eh   ::
         :: G(RRHO) contrib.            0.594400177948 Eh   ::
         :::::::::::::::::::::::::::::::::::::::::::::::::::::

           -------------------------------------------------
          | TOTAL ENERGY             -126.538761524916 Eh   |
          | TOTAL ENTHALPY           -125.834628633900 Eh   |
          | TOTAL FREE ENERGY        -125.944361346967 Eh   |
          | GRADIENT NORM               0.000096002774 Eh/α |
           -------------------------------------------------

 * finished run on 2025/09/12 at 11:31:06.422
