   * xtb version 6.7.1 (edcfbbe) compiled by 'albert@albert-system' on 2024-07-22

   ID    Z sym.   atoms
    1    6 C      1-9, 11-15, 17, 19-22, 24-48
    2    7 N      10, 23
    3    8 O      16, 18
    4    1 H      49-84

          program call               : xtb data2507/gas/DC-ACR/DC-ACR_gas_T1_crest.xyz --gfn 2 --spinpol --tblite --uhf 2 --ohess vtight --parallel 40 --molden --ceasefiles --namespace data2507/gas/DC-ACR/DC-ACR_gas_T1_finalOpt
 * total energy  :  -126.5430532 Eh     change        0.1522906E-08 Eh
 * total energy  :  -126.5430701 Eh     change       -0.1684421E-04 Eh
 * total energy  :  -126.5430770 Eh     change       -0.6881568E-05 Eh
 * total energy  :  -126.5430797 Eh     change       -0.2704803E-05 Eh
 * total energy  :  -126.5430833 Eh     change       -0.3652074E-05 Eh
 * total energy  :  -126.5430884 Eh     change       -0.5131341E-05 Eh
 * total energy  :  -126.5430943 Eh     change       -0.5819484E-05 Eh
 * total energy  :  -126.5431003 Eh     change       -0.6064481E-05 Eh
 * total energy  :  -126.5431068 Eh     change       -0.6515520E-05 Eh
 * total energy  :  -126.5431145 Eh     change       -0.7686375E-05 Eh
 * total energy  :  -126.5434102 Eh     change       -0.5124226E-06 Eh
 * total energy  :  -126.5434108 Eh     change       -0.6297700E-06 Eh
 * total energy  :  -126.5434114 Eh     change       -0.5822979E-06 Eh
 * total energy  :  -126.5434121 Eh     change       -0.7004282E-06 Eh
 * total energy  :  -126.5434129 Eh     change       -0.7509696E-06 Eh
 * total energy  :  -126.5434136 Eh     change       -0.7176943E-06 Eh
 * total energy  :  -126.5434142 Eh     change       -0.6249879E-06 Eh
 * total energy  :  -126.5434149 Eh     change       -0.6908237E-06 Eh
 * total energy  :  -126.5434149 Eh     change       -0.5222731E-08 Eh
   *** GEOMETRY OPTIMIZATION CONVERGED AFTER 94 ITERATIONS ***

 final structure:
================
84
 xtb: 6.7.1 (edcfbbe)
C            9.78681205365766       -0.40333619571581        1.42045479646642
C            9.01529161862367       -0.08861500815228        0.12524775133594
C            9.99895610180461        0.19798620032446       -1.02453541233425
C            8.17515608719195       -1.29544878343065       -0.24184232931691
C            8.79416333205385       -2.51331817044102       -0.48743759931795
C            8.07544599617017       -3.64823846534464       -0.81456332510703
C            6.69488018610131       -3.57884627760753       -0.89475767161647
C            6.05333122086804       -2.38323550124263       -0.65686955921664
C            6.77923879564654       -1.22961759964607       -0.33742789163994
N            6.10777913460300       -0.04182163608429       -0.11572380076169
C            4.68866788325470       -0.02492367979596       -0.21239626742642
C            4.06611520669022        0.09922264309803       -1.45141681402433
C            2.69306144804601        0.10579201282274       -1.53142439069523
C            1.90265543505855        0.00082833331153       -0.37626556134149
C            0.44329246108786        0.00653268292222       -0.58803666619072
O            0.00390708351360        0.01007392437259       -1.75410700806852
C           -0.44283325179916        0.02501015197831        0.58518918697110
O           -0.00255863748361        0.06149893768074        1.75036840026369
C           -1.90222586327016        0.01595055553568        0.37426701777080
C           -2.54031467066314       -0.12331676779164       -0.85644667118613
C           -3.91768344248570       -0.14131019128869       -0.93784058293091
C           -4.68845830804635       -0.01453250550217        0.21281191871568
N           -6.10753042061565       -0.03639311763025        0.11730092524887
C           -6.77397776598913        1.12147558884983       -0.23812355375750
C           -6.04584627863201        2.29758412901269       -0.45299436645830
C           -6.68075597572698        3.46609146811455       -0.81226724301154
C           -8.05733745940778        3.48507973605144       -0.96076285510481
C           -8.78024544277068        2.32799227448988       -0.73706378103989
C           -8.16796219638068        1.13645682022196       -0.37349450683365
C           -9.01453880485765       -0.09632960155515       -0.12736810351354
C           -9.78249799706295       -0.43462824254910       -1.41876635142365
C          -10.00135454825489        0.20537213733132        1.01580643112462
C           -8.17118036270985       -1.29441820227316        0.26035130208131
C           -8.78678409718306       -2.51021430004310        0.52409881650853
C           -8.06498267928287       -3.63777973791770        0.86935207331383
C           -6.68472066183551       -3.56296138443970        0.94976164092916
C           -6.04655390306739       -2.36915948675818        0.69431733278427
C           -6.77559712092989       -1.22277695781136        0.35652116783498
C           -4.06508911207119        0.12699399534338        1.44957489309946
C           -2.69199852728553        0.13628461093559        1.52842133624464
C            2.53985054211614       -0.12268181364725        0.85658657156963
C            3.91722067589424       -0.13824671170497        0.93917520999568
C            6.77105387164615        1.12377286263941        0.21980473557866
C            6.03952427390212        2.30091343924131        0.41674967318252
C            6.67132776701043        3.47715005521543        0.75568866119114
C            8.04806726897839        3.50286695815146        0.90169091466153
C            8.77426791888483        2.34448575809495        0.69604190206761
C            8.16518613094051        1.14529512022261        0.35287751240899
H            9.08654566845388       -0.60243915183293        2.22948177382401
H           10.41963142735947       -1.27693640764236        1.29201676490584
H           10.41624378415184        0.43349653941768        1.70967393274094
H           10.63695561208224       -0.66096275382347       -1.21226990324584
H           10.63317905271220        1.04798396693317       -0.78922517127961
H            9.44784623283804        0.42249859401159       -1.93582052562708
H            9.86918395581368       -2.58536794807829       -0.42190139628456
H            8.58906029734278       -4.57895621015506       -1.00057920211581
H            6.11610799469478       -4.45602884999583       -1.14128121885581
H            4.97722860979463       -2.33453185593006       -0.71426255590250
H            4.67018156513085        0.18663914623559       -2.34247635490323
H            2.19151762456796        0.19613610242942       -2.48342831794754
H           -1.94864835505532       -0.21687382675894       -1.75458295352372
H           -4.40788620866574       -0.25209464183054       -1.89397862659542
H           -4.97365503346110        2.28713764254976       -0.33441946381743
H           -6.10022364065056        4.36135573588515       -0.97546492916435
H           -8.56535051863512        4.39393169106397       -1.24458377902064
H           -9.85322217042737        2.36073236053032       -0.85026088198978
H           -9.07997340018638       -0.64948813801285       -2.22178839414140
H          -10.41645294815982       -1.30515163356196       -1.27581258111467
H          -10.41030940094799        0.39712782029663       -1.72558620648986
H           -9.45281345744400        0.44272137620452        1.92538313915289
H          -10.63929253443472       -0.65137219937483        1.21359404426063
H          -10.63553911598582        1.05160402794224        0.76723561233168
H           -9.86149174027233       -2.58651786145159        0.45846595746411
H           -8.57594527379156       -4.56712265688267        1.06902868690223
H           -6.10350383172468       -4.43452859705801        1.21006241028916
H           -4.97066089175391       -2.31643911142508        0.75191364825762
H           -4.66855199970815        0.22534073561959        2.33990542351979
H           -2.18972693592206        0.24010742466189        2.47867777938434
H            1.94781321033727       -0.20514991759361        1.75550679912814
H            4.40680693893734       -0.23660105816618        1.89698577201334
H            4.96716647980268        2.28514198026327        0.30031918957743
H            6.08822753421777        4.37316902614699        0.90500168662841
H            8.55364889814708        4.41787532004446        1.16962638122750
H            9.84728415017910        2.38235722427717        0.80714257747200

 projected vibrational frequencies (cm⁻¹)
eigval :       -0.00    -0.00    -0.00     0.00     0.00     0.00
eigval :        3.28     6.07    13.60    15.09    20.62    25.64
eigval :       28.73    38.46    42.45    43.83    53.38    84.11
eigval :       85.85    96.40    96.53   101.22   107.09   128.78
eigval :      128.94   129.12   137.84   172.09   181.57   191.15
eigval :      191.22   207.63   218.10   218.52   230.72   237.28
eigval :      253.01   285.80   295.80   297.07   308.81   312.93
eigval :      323.17   328.83   328.85   342.57   343.08   353.71
eigval :      370.97   372.08   375.04   380.83   382.50   398.69
eigval :      405.63   408.46   409.78   432.93   444.53   450.33
eigval :      450.44   475.86   495.91   501.70   506.50   510.79
eigval :      510.85   532.45   545.40   545.40   548.93   559.11
eigval :      574.41   581.14   589.09   592.85   599.74   607.03
eigval :      619.40   627.84   638.55   657.65   665.67   684.79
eigval :      684.88   691.23   697.08   697.09   701.52   706.30
eigval :      729.69   761.74   775.40   775.45   776.83   777.00
eigval :      811.75   812.89   826.74   826.97   835.54   857.19
eigval :      857.74   867.73   867.74   868.37   868.40   907.40
eigval :      907.94   914.06   914.07   914.60   914.84   914.86
eigval :      916.73   916.78   920.68   920.82   921.88   921.88
eigval :      922.04   922.05   927.87   938.18   938.58   957.36
eigval :      957.36   998.26  1009.94  1013.63  1013.64  1070.66
eigval :     1076.70  1076.71  1085.98  1086.31  1109.77  1110.06
eigval :     1116.37  1116.39  1124.92  1127.76  1139.77  1139.78
eigval :     1149.11  1152.55  1156.42  1156.43  1169.40  1170.46
eigval :     1185.39  1185.44  1185.62  1185.67  1189.84  1191.05
eigval :     1214.42  1216.64  1243.28  1243.52  1246.36  1246.39
eigval :     1252.18  1252.36  1262.91  1263.23  1294.52  1294.54
eigval :     1307.91  1308.06  1319.87  1320.16  1324.03  1324.20
eigval :     1334.80  1334.89  1335.49  1335.64  1397.32  1397.43
eigval :     1401.64  1401.68  1419.01  1419.02  1433.33  1433.57
eigval :     1434.50  1434.62  1450.30  1454.49  1465.89  1465.95
eigval :     1470.58  1486.06  1487.48  1487.92  1487.93  1488.57
eigval :     1488.59  1498.26  1498.29  1502.50  1502.51  1540.67
eigval :     1541.22  1549.96  1565.70  1565.73  1573.25  1573.69
eigval :     1580.78  1581.03  1585.51  1585.54  1595.99  1596.34
eigval :     3028.22  3028.23  3029.96  3029.98  3041.63  3041.64
eigval :     3044.14  3044.15  3049.91  3049.91  3053.52  3053.77
eigval :     3078.91  3080.99  3082.30  3082.32  3082.46  3082.54
eigval :     3082.84  3082.89  3087.46  3087.52  3087.66  3087.70
eigval :     3088.59  3090.41  3094.84  3094.91  3097.59  3097.63
eigval :     3097.68  3098.42  3105.71  3105.96  3106.15  3106.39

   temp. (K)  partition function   enthalpy   heat capacity  entropy
                                   cal/mol     cal/K/mol   cal/K/mol   J/K/mol
 298.15  VIB  0.284E+21            24398.723    150.935    153.739
         ROT  0.572E+08              888.752      2.981     38.477
         INT  0.162E+29            25287.475    153.916    192.215
         TR   0.151E+29             1481.254      4.968     45.159
         TOT                       26768.7293   158.8838   237.3741   993.1733

       T/K    H(0)-H(T)+PV         H(T)/Eh          T*S/Eh         G(T)/Eh
   ------------------------------------------------------------------------
    298.15    0.426587E-01    0.704022E+00    0.112784E+00    0.591237E+00
   ------------------------------------------------------------------------

         :::::::::::::::::::::::::::::::::::::::::::::::::::::
         ::                  THERMODYNAMIC                  ::
         :::::::::::::::::::::::::::::::::::::::::::::::::::::
         :: total free energy        -125.952177499014 Eh   ::
         ::.................................................::
         :: total energy             -126.543414924345 Eh   ::
         :: zero point energy           0.661362846434 Eh   ::
         :: G(RRHO) w/o ZPVE           -0.070125421103 Eh   ::
         :: G(RRHO) contrib.            0.591237425331 Eh   ::
         :::::::::::::::::::::::::::::::::::::::::::::::::::::

           -------------------------------------------------
          | TOTAL ENERGY             -126.543414924345 Eh   |
          | TOTAL ENTHALPY           -125.839393392397 Eh   |
          | TOTAL FREE ENERGY        -125.952177499014 Eh   |
          | GRADIENT NORM               0.000143453295 Eh/α |
           -------------------------------------------------

 * finished run on 2025/09/12 at 11:38:19.656
