   * xtb version 6.7.1 (edcfbbe) compiled by 'albert@albert-system' on 2024-07-22

   ID    Z sym.   atoms
    1    6 C      1-9, 11-15, 17, 19-22, 24-48
    2    7 N      10, 23
    3    8 O      16, 18
    4    1 H      49-84

          program call               : xtb data2507/gas/DC-ACR/DC-ACR.xyz --gfn 2 --ohess vtight --parallel 40 --molden --ceasefiles --namespace data2507/gas/DC-ACR/DC-ACR_gas_S0_preOpt
          :  Hamiltonian                  GFN2-xTB          :
 * total energy  :  -126.5575335 Eh     change       -0.9381353E-08 Eh
 * total energy  :  -126.5761725 Eh     change       -0.1863894E-01 Eh
 * total energy  :  -126.5824046 Eh     change       -0.6232145E-02 Eh
 * total energy  :  -126.5835850 Eh     change       -0.1180431E-02 Eh
 * total energy  :  -126.5843300 Eh     change       -0.7449326E-03 Eh
 * total energy  :  -126.5846011 Eh     change       -0.2711507E-03 Eh
 * total energy  :  -126.5847204 Eh     change       -0.1192500E-03 Eh
 * total energy  :  -126.5847765 Eh     change       -0.5617626E-04 Eh
 * total energy  :  -126.5848092 Eh     change       -0.3265076E-04 Eh
 * total energy  :  -126.5848299 Eh     change       -0.2074086E-04 Eh
 * total energy  :  -126.5865624 Eh     change       -0.6318025E-06 Eh
 * total energy  :  -126.5865629 Eh     change       -0.4092355E-06 Eh
 * total energy  :  -126.5865632 Eh     change       -0.2966881E-06 Eh
 * total energy  :  -126.5865635 Eh     change       -0.3924940E-06 Eh
 * total energy  :  -126.5865641 Eh     change       -0.5868189E-06 Eh
 * total energy  :  -126.5865648 Eh     change       -0.6945435E-06 Eh
 * total energy  :  -126.5865654 Eh     change       -0.5633756E-06 Eh
 * total energy  :  -126.5865658 Eh     change       -0.4399437E-06 Eh
 * total energy  :  -126.5865658 Eh     change       -0.4966864E-08 Eh
   *** GEOMETRY OPTIMIZATION CONVERGED AFTER 152 ITERATIONS ***

 final structure:
================
84
 xtb: 6.7.1 (edcfbbe)
C            8.10596132932406        1.92534350108246        1.45024312827593
C            7.55127910797635        1.36495906487243        0.12773202094985
C            8.44855558532303        1.78740863076696       -1.04996040560532
C            7.53851045028773       -0.14849725114266        0.21590596320248
C            8.73220199785317       -0.82599095298927        0.42829145537207
C            8.78318750460549       -2.20014907493963        0.56373438534231
C            7.60729098027266       -2.92641368704728        0.51356092665932
C            6.40861441179086       -2.27880681876706        0.30176942194425
C            6.35918302066665       -0.89333508235629        0.12140749815485
N            5.13649413003787       -0.26839509007054       -0.10473561512204
C            3.97229477412855       -1.05856061777053       -0.22199980826250
C            3.81213591585889       -1.91219649108506       -1.31320836669268
C            2.67477556521936       -2.68118330449716       -1.42402744190670
C            1.67961506814333       -2.62033239461594       -0.44526523169943
C            0.47947929326908       -3.46286655356498       -0.59725362169562
O            0.25172795622363       -4.13911498607611       -1.57696940892171
C           -0.47750933285811       -3.46318135893224        0.59584933042751
O           -0.24980753481462       -4.13979744391148        1.57532157774930
C           -1.67783833030535       -2.62094275315436        0.44390577061268
C           -1.83882575001370       -1.76184587007686       -0.64475983702008
C           -2.97499270934557       -0.98774477340081       -0.75276415401997
C           -3.97134295515414       -1.06031715688480        0.22034599705587
N           -5.13594240474735       -0.27081837133632        0.10304677060694
C           -5.03502039217060        1.11076017833893        0.22452293194574
C           -3.79942573467920        1.69495068195405        0.51960639839310
C           -3.66730862254764        3.06263989937422        0.63441044163321
C           -4.77232188486086        3.87761259918125        0.46973170826286
C           -6.00259588839326        3.30064915919145        0.21866835709057
C           -6.16416321002838        1.92641060716414        0.10056786933655
C           -7.55238851830908        1.36073664820549       -0.12551779233309
C           -8.10961228269741        1.92356587662351       -1.44590678373409
C           -8.44829956347023        1.77957869862159        1.05451627704693
C           -7.53817450585943       -0.15248837722425       -0.21698558243301
C           -8.73128683669335       -0.83062821249307       -0.43057111271282
C           -8.78107105923962       -2.20454333492081       -0.56878025003998
C           -7.60451021454552       -2.92983217901862       -0.52012900823242
C           -6.40640488531081       -2.28157141610023       -0.30715020658350
C           -6.35816071022503       -0.89641416796120       -0.12402610343970
C           -3.81226386539573       -1.91622985090436        1.30995044763916
C           -2.67451599233849       -2.68460123740890        1.42094070101885
C            1.84173009305796       -1.76352202028084        0.64502900641865
C            2.97751486723251       -0.98884324183115        0.75289723455446
C            5.03438353193826        1.11322569019538       -0.22427208446280
C            3.79829333581577        1.69661759521708       -0.51885888565602
C            3.66500210960097        3.06431702171283       -0.63216811104568
C            4.76925123433992        3.88007433966658       -0.46622955765944
C            5.99994832056815        3.30395182370916       -0.21525634170275
C            6.16274688370737        1.92971638394020       -0.09885393259552
H            7.47144225192649        1.61510525394053        2.27842865300663
H            9.11246498462788        1.56075634019483        1.63504103504252
H            8.13619741773677        3.01115057285419        1.42946195150155
H            9.45883962372783        1.40867456251339       -0.92326277845369
H            8.49950046557732        2.86947027815451       -1.13183836473996
H            8.04758630963332        1.39139872301992       -1.98115991653478
H            9.65349358448015       -0.26751069150633        0.49449224988673
H            9.72883979600207       -2.69524483430029        0.72242142392609
H            7.61781589741885       -3.99794612335930        0.64442957871764
H            5.49692284694511       -2.85537977826292        0.28644334649425
H            4.58595730991593       -1.95973213898077       -2.06501158861338
H            2.52933118836129       -3.34268013644035       -2.26496599746501
H           -1.07798506546212       -1.70724952644659       -1.40914604921625
H           -3.10774941028895       -0.32302075654528       -1.59347483199781
H           -2.93305185451109        1.06982753844330        0.67099986186117
H           -2.70031489256034        3.48769294333043        0.85821060980971
H           -4.68187065238570        4.94990753966826        0.55095018108899
H           -6.86204226787999        3.94545426868836        0.11591122728858
H           -9.11579003706495        1.55793705673269       -1.63036515140086
H           -8.14155137798138        3.00926210424988       -1.42237811072423
H           -7.47566741583896        1.61639924837780       -2.27567374954037
H           -8.04444108124026        1.38347707998785        1.98443447491509
H           -9.45788398121765        1.39844929810514        0.92943828425092
H           -8.50170064073820        2.86142331659261        1.13774485814699
H           -9.65309665703607       -0.27285066197624       -0.49546399108729
H           -9.72629232060134       -2.70015562078411       -0.72840110398745
H           -7.61408956216818       -4.00110942544532       -0.65310035466716
H           -5.49421301889403       -2.85737279136826       -0.29307234332911
H           -4.58724858400454       -1.96601677959948        2.06040976156586
H           -2.52994968598505       -3.34781040488440        2.26067811880994
H            1.08216498834785       -1.71127184835810        1.41083373714490
H            3.11118180393044       -0.32584486305047        1.59482242175652
H            2.93251620660220        1.07082391068812       -0.67096042842868
H            2.69768848795498        3.48879364222969       -0.85569175489859
H            4.67788408847472        4.95238132962776       -0.54630476361853
H            6.85871697103291        3.94945904462622       -0.11118547262868

          :  Hamiltonian                  GFN2-xTB          :
         :: gradient norm              0.000054853078 Eh/a0 ::
         :: HOMO-LUMO gap              1.392093474748 eV    ::
         :: SCC energy              -128.786205991565 Eh    ::
         :: -> dispersion             -0.115047737562 Eh    ::
         :: repulsion energy           2.199640158006 Eh    ::

    * Orbital Energies and Occupations

         #    Occupation            Energy/Eh            Energy/eV
      -------------------------------------------------------------
         1        2.0000           -0.7224117             -19.6578
       ...           ...                  ...                  ...
       105        2.0000           -0.4133173             -11.2469
       106        2.0000           -0.4132444             -11.2450
       107        2.0000           -0.4117321             -11.2038
       108        2.0000           -0.4116295             -11.2010
       109        2.0000           -0.4080228             -11.1029
       110        2.0000           -0.4079957             -11.1021
       111        2.0000           -0.4021467             -10.9430
       112        2.0000           -0.4021274             -10.9424
       113        2.0000           -0.3967020             -10.7948
       114        2.0000           -0.3966858             -10.7944
       115        2.0000           -0.3816171             -10.3843
       116        2.0000           -0.3530989              -9.6083
       117        2.0000           -0.3528275              -9.6009 (HOMO)
       118                         -0.3016690              -8.2088 (LUMO)
       119                         -0.2950155              -8.0278
       120                         -0.2492033              -6.7812
       121                         -0.2488173              -6.7707
       122                         -0.2288265              -6.2267
       123                         -0.2288091              -6.2262
       124                         -0.2244955              -6.1088
       125                         -0.2240603              -6.0970
       126                         -0.2222609              -6.0480
       127                         -0.2221532              -6.0451
       128                         -0.2199328              -5.9847
       ...                                ...                  ...
       228                          0.6747816              18.3617
      -------------------------------------------------------------
                  HL-Gap            0.0511585 Eh            1.3921 eV

     #   Z          covCN         q      C6AA      α(0)
     1   6 C        3.761    -0.104    22.525     6.766
     2   6 C        3.909     0.022    20.155     6.381
     3   6 C        3.761    -0.104    22.526     6.766
     4   6 C        2.980    -0.012    28.316     8.729
     5   6 C        2.928    -0.036    28.888     8.814
     6   6 C        2.917    -0.043    29.058     8.840
     7   6 C        2.920    -0.032    28.796     8.800
     8   6 C        2.924    -0.058    29.438     8.898
     9   6 C        2.927     0.057    26.720     8.477
    10   7 N        2.753    -0.066    22.524     7.049
    11   6 C        2.928     0.080    26.210     8.396
    12   6 C        2.919    -0.036    28.905     8.816
    13   6 C        2.923    -0.015    28.394     8.738
    14   6 C        2.972    -0.013    28.331     8.731
    15   6 C        2.821     0.213    23.502     7.943
    16   8 O        0.857    -0.346    20.622     6.088
    17   6 C        2.821     0.213    23.502     7.943
    18   8 O        0.857    -0.346    20.623     6.089
    19   6 C        2.972    -0.013    28.332     8.731
    20   6 C        2.919    -0.022    28.559     8.764
    21   6 C        2.920    -0.036    28.890     8.814
    22   6 C        2.928     0.080    26.210     8.396
    23   7 N        2.753    -0.066    22.523     7.049
    24   6 C        2.927     0.057    26.714     8.476
    25   6 C        2.924    -0.059    29.457     8.900
    26   6 C        2.920    -0.033    28.812     8.802
    27   6 C        2.917    -0.043    29.070     8.842
    28   6 C        2.928    -0.036    28.886     8.814
    29   6 C        2.980    -0.012    28.309     8.728
    30   6 C        3.909     0.022    20.155     6.381
    31   6 C        3.761    -0.104    22.525     6.766
    32   6 C        3.761    -0.104    22.526     6.766
    33   6 C        2.980    -0.012    28.315     8.729
    34   6 C        2.928    -0.036    28.888     8.814
    35   6 C        2.917    -0.043    29.058     8.840
    36   6 C        2.920    -0.032    28.796     8.800
    37   6 C        2.924    -0.058    29.437     8.898
    38   6 C        2.927     0.057    26.720     8.477
    39   6 C        2.919    -0.036    28.905     8.816
    40   6 C        2.923    -0.015    28.394     8.738
    41   6 C        2.919    -0.022    28.559     8.764
    42   6 C        2.920    -0.036    28.890     8.814
    43   6 C        2.927     0.057    26.714     8.476
    44   6 C        2.924    -0.059    29.457     8.900
    45   6 C        2.920    -0.033    28.812     8.802
    46   6 C        2.917    -0.043    29.071     8.842
    47   6 C        2.928    -0.036    28.886     8.814
    48   6 C        2.980    -0.012    28.309     8.728
    49   1 H        0.925     0.032     2.559     2.502
    50   1 H        0.925     0.040     2.442     2.444
    51   1 H        0.925     0.040     2.447     2.446
    52   1 H        0.925     0.041     2.442     2.444
    53   1 H        0.925     0.040     2.447     2.446
    54   1 H        0.925     0.032     2.559     2.501
    55   1 H        0.926     0.032     2.558     2.501
    56   1 H        0.926     0.029     2.600     2.522
    57   1 H        0.926     0.031     2.571     2.507
    58   1 H        0.926     0.027     2.631     2.537
    59   1 H        0.926     0.053     2.285     2.364
    60   1 H        0.926     0.069     2.093     2.262
    61   1 H        0.926     0.044     2.390     2.417
    62   1 H        0.926     0.051     2.304     2.374
    63   1 H        0.926     0.023     2.685     2.562
    64   1 H        0.926     0.029     2.607     2.525
    65   1 H        0.926     0.028     2.608     2.525
    66   1 H        0.926     0.032     2.554     2.499
    67   1 H        0.925     0.040     2.442     2.444
    68   1 H        0.925     0.040     2.447     2.446
    69   1 H        0.925     0.032     2.559     2.501
    70   1 H        0.925     0.032     2.559     2.501
    71   1 H        0.925     0.041     2.441     2.443
    72   1 H        0.925     0.040     2.447     2.446
    73   1 H        0.926     0.032     2.557     2.501
    74   1 H        0.926     0.029     2.600     2.522
    75   1 H        0.926     0.031     2.571     2.507
    76   1 H        0.926     0.027     2.631     2.536
    77   1 H        0.926     0.053     2.285     2.364
    78   1 H        0.926     0.069     2.093     2.262
    79   1 H        0.926     0.045     2.389     2.417
    80   1 H        0.926     0.051     2.304     2.374
    81   1 H        0.926     0.023     2.686     2.563
    82   1 H        0.926     0.029     2.607     2.525
    83   1 H        0.926     0.028     2.608     2.525
    84   1 H        0.926     0.032     2.554     2.499

molecular dipole:
                 x           y           z       tot (Debye)
 q only:       -0.002       1.794       0.001
   full:       -0.002       1.845       0.001       4.690

 projected vibrational frequencies (cm⁻¹)
eigval :       -0.00    -0.00    -0.00    -0.00    -0.00     0.00
eigval :        2.57     6.84     7.13    18.57    19.77    30.84
eigval :       31.69    48.69    55.60    56.81    57.69    92.58
eigval :       96.38   102.52   102.72   104.93   108.61   127.37
eigval :      127.43   131.37   137.12   157.19   172.09   189.10
eigval :      189.16   204.85   205.21   219.61   219.62   236.54
eigval :      237.02   250.01   256.37   291.25   299.78   308.87
eigval :      318.76   332.22   332.24   338.73   342.86   352.79
eigval :      354.21   354.38   369.30   369.44   379.55   380.28
eigval :      391.58   402.44   410.32   410.39   453.30   453.63
eigval :      474.74   480.29   488.45   494.12   497.68   498.83
eigval :      514.78   514.86   547.47   547.47   557.98   563.04
eigval :      578.38   578.67   589.85   590.63   604.16   607.38
eigval :      628.89   646.66   661.02   673.18   678.22   683.29
eigval :      683.38   694.50   694.53   697.19   718.70   737.21
eigval :      748.32   760.41   777.80   777.82   778.95   778.98
eigval :      816.12   821.69   827.63   830.61   863.59   867.88
eigval :      868.01   869.29   869.54   873.60   873.68   913.89
eigval :      913.90   914.73   914.77   915.25   915.27   916.14
eigval :      921.18   921.23   922.40   922.40   925.05   925.13
eigval :      932.52   932.89   933.17   938.96   939.84   957.52
eigval :      957.53  1000.26  1014.61  1014.62  1017.02  1047.76
eigval :     1076.92  1076.93  1085.28  1085.30  1115.60  1115.63
eigval :     1120.57  1120.61  1129.18  1129.34  1141.42  1141.45
eigval :     1160.25  1160.26  1172.45  1173.55  1176.29  1181.74
eigval :     1187.35  1187.71  1188.80  1189.18  1195.82  1201.78
eigval :     1222.18  1236.06  1246.91  1249.61  1250.44  1250.80
eigval :     1260.45  1260.77  1269.35  1269.75  1295.29  1295.33
eigval :     1315.73  1316.82  1317.18  1320.80  1328.25  1328.51
eigval :     1333.99  1334.19  1337.19  1337.73  1403.43  1403.44
eigval :     1405.60  1406.12  1421.36  1421.36  1435.56  1435.67
eigval :     1441.06  1441.41  1469.18  1469.23  1477.96  1478.37
eigval :     1489.55  1489.56  1490.66  1490.66  1494.63  1495.28
eigval :     1500.24  1500.24  1504.83  1504.89  1553.31  1553.79
eigval :     1575.96  1576.05  1576.86  1579.16  1591.13  1591.15
eigval :     1592.89  1593.08  1602.07  1602.18  1701.96  1717.90
eigval :     3027.14  3027.16  3029.26  3029.29  3041.11  3041.14
eigval :     3043.76  3043.80  3049.93  3049.97  3053.66  3053.73
eigval :     3079.94  3080.04  3081.59  3081.62  3084.89  3085.15
eigval :     3085.29  3085.82  3086.27  3086.30  3088.79  3088.80
eigval :     3095.51  3095.70  3096.52  3096.82  3096.88  3097.02
eigval :     3099.16  3099.18  3101.48  3101.61  3104.33  3104.41

   temp. (K)  partition function   enthalpy   heat capacity  entropy
                                   cal/mol     cal/K/mol   cal/K/mol   J/K/mol
 298.15  VIB  0.213E+21            24435.787    151.614    154.725
         ROT  0.515E+08              888.752      2.981     38.269
         INT  0.109E+29            25324.539    154.594    192.993
         TR   0.151E+29             1481.254      4.968     45.159
         TOT                       26805.7928   159.5626   238.1524   996.4296

       T/K    H(0)-H(T)+PV         H(T)/Eh          T*S/Eh         G(T)/Eh
   ------------------------------------------------------------------------
    298.15    0.427177E-01    0.706278E+00    0.113154E+00    0.593124E+00
   ------------------------------------------------------------------------

         :::::::::::::::::::::::::::::::::::::::::::::::::::::
         ::                  THERMODYNAMIC                  ::
         :::::::::::::::::::::::::::::::::::::::::::::::::::::
         :: total free energy        -125.993441446776 Eh   ::
         ::.................................................::
         :: total energy             -126.586565833559 Eh   ::
         :: zero point energy           0.663560518461 Eh   ::
         :: G(RRHO) w/o ZPVE           -0.070436131678 Eh   ::
         :: G(RRHO) contrib.            0.593124386783 Eh   ::
         :::::::::::::::::::::::::::::::::::::::::::::::::::::

           -------------------------------------------------
          | TOTAL ENERGY             -126.586565833559 Eh   |
          | TOTAL ENTHALPY           -125.880287565145 Eh   |
          | TOTAL FREE ENERGY        -125.993441446776 Eh   |
          | GRADIENT NORM               0.000054843956 Eh/α |
          | HOMO-LUMO GAP               1.392092598221 eV   |
           -------------------------------------------------

 * finished run on 2025/09/12 at 11:25:28.677
