   * xtb version 6.7.1 (edcfbbe) compiled by 'albert@albert-system' on 2024-07-22

   ID    Z sym.   atoms
    1    6 C      1-9, 11-17, 19-31
    2    7 N      10, 18
    3    1 H      32-55

          program call               : xtb data2507/toluene/BCN/BCN_toluene_S0_crest.xyz --gfn 2 --gbsa toluene --ohess vtight --parallel 40 --molden --ceasefiles --namespace data2507/toluene/BCN/BCN_toluene_S0_finalOpt
      * Solvation model:               GBSA
        Solvent                        toluene
        Solvent mass                       9.2140E+01 g/mol
          :  Hamiltonian                  GFN2-xTB          :
 * total energy  :   -80.2421845 Eh     change       -0.1265335E-08 Eh
 * total energy  :   -80.2422172 Eh     change       -0.3274287E-04 Eh
 * total energy  :   -80.2422240 Eh     change       -0.6789233E-05 Eh
 * total energy  :   -80.2422197 Eh     change        0.4296758E-05 Eh
 * total energy  :   -80.2422272 Eh     change       -0.7518367E-05 Eh
 * total energy  :   -80.2422280 Eh     change       -0.8007160E-06 Eh
 * total energy  :   -80.2422284 Eh     change       -0.4326913E-06 Eh
 * total energy  :   -80.2422288 Eh     change       -0.3107063E-06 Eh
 * total energy  :   -80.2422288 Eh     change       -0.8272204E-07 Eh
   *** GEOMETRY OPTIMIZATION CONVERGED AFTER 9 ITERATIONS ***

 final structure:
================
55
 xtb: 6.7.1 (edcfbbe)
C           -5.28285494617228        0.09448069460497       -0.87645936657189
C           -3.76669761070355       -0.09966698767353       -0.86900018669016
C           -3.30814525627257       -0.36398944187032       -2.31951776107990
C           -3.33025060083521       -1.26936248941201       -0.00913011017932
C           -4.18570143157800       -2.25959855537902        0.44857062861055
C           -3.71545067016442       -3.32065235159451        1.20392025643388
C           -2.37391709341159       -3.39026510757173        1.53683383416248
C           -1.50698091352803       -2.40420734244926        1.10939981214252
C           -1.97167758766897       -1.35656740548876        0.31730534177209
N           -1.12019355581153       -0.31754875109508       -0.07318742434985
C            0.24687243954141       -0.48650410151637       -0.21421993801879
C            0.68573465611880       -1.71785713462031       -0.75918492388769
C            2.00734930592017       -1.97710043428710       -0.91876366320615
C            2.96906175600208       -1.03152127000356       -0.49965248123165
C            4.33456094453837       -1.33934751372360       -0.59152471311199
C            5.29276220730688       -0.44504901890763       -0.16340521927920
C            6.66283799719909       -0.75621075106549       -0.25755554227226
N            7.78238855681556       -1.00505322435582       -0.33387176255050
C            4.88365322411929        0.78918728140140        0.38742804429746
C            3.55949936278918        1.10702363455635        0.46496718727584
C            2.53913836588067        0.22972455319769        0.01244382810126
C            1.14805045884137        0.52454343513690        0.08750493334345
C            0.63762828218137        1.89526103575216        0.51809166898604
C            1.36551148954960        3.01437673850478       -0.27202972250249
C            0.81298706604229        2.04071968006220        2.04511515437555
C           -0.85351674360514        2.04961867358114        0.25660661889192
C           -1.45333062614745        3.29739152199277        0.37495234066277
C           -2.80776206390645        3.45714015353452        0.15713959147808
C           -3.58595953178612        2.37792238825963       -0.22771558916858
C           -3.02273750304264        1.12086174464791       -0.35841845636156
C           -1.66245264294865        0.96612714817506       -0.06212697963187
H           -5.54933202415843        0.93140154692295       -1.51676918127518
H           -5.65811426988054        0.28084524392527        0.12751818046830
H           -5.77209749097299       -0.78796413551481       -1.28074469956095
H           -3.57661575113494        0.47921102149804       -2.95273212668411
H           -2.23122782387708       -0.50258367890602       -2.37314398505167
H           -3.79099919838554       -1.26026651729024       -2.70386093806182
H           -5.23687069529380       -2.21809856010803        0.21453197513626
H           -4.39890632564044       -4.08697047934850        1.53802832053368
H           -2.00238722618436       -4.20304746125620        2.14331760139860
H           -0.46698299533574       -2.43687754270257        1.39902980895377
H           -0.05825995048099       -2.43679270224626       -1.06793825708920
H            2.34071634736493       -2.90650177076267       -1.35585624335490
H            4.63053127765312       -2.29698346459755       -0.99680264805563
H            5.63536536920412        1.47652693467642        0.74790850608424
H            3.30159839068255        2.05345655043470        0.90411155510791
H            2.14979013005014        2.61010687943698       -0.90480210681878
H            0.66543000085276        3.52564941167337       -0.92903684176834
H            1.80127067453859        3.75424010274662        0.39511450878653
H            0.48601259041793        3.02629455033377        2.36803023430110
H            0.19916907121206        1.29700688633381        2.55227914661311
H            1.84239873187718        1.89219178586335        2.35580369431739
H           -0.86009549883763        4.15401235161056        0.65576569852937
H           -3.25986556323118        4.43126124277984        0.27127838406330
H           -4.63348748650333        2.53421644660377       -0.42524259121294

          :  Hamiltonian                  GFN2-xTB          :
         :: gradient norm              0.000075637523 Eh/a0 ::
         :: HOMO-LUMO gap              1.958813095019 eV    ::
         :: SCC energy               -81.715363656437 Eh    ::
         :: -> dispersion             -0.077029086336 Eh    ::
         :: -> Gsolv                  -0.032962256219 Eh    ::
         :: repulsion energy           1.473134817774 Eh    ::

    * Orbital Energies and Occupations

         #    Occupation            Energy/Eh            Energy/eV
      -------------------------------------------------------------
         1        2.0000           -0.6743201             -18.3492
       ...           ...                  ...                  ...
        63        2.0000           -0.4362436             -11.8708
        64        2.0000           -0.4294394             -11.6856
        65        2.0000           -0.4284719             -11.6593
        66        2.0000           -0.4225024             -11.4969
        67        2.0000           -0.4189553             -11.4004
        68        2.0000           -0.4137735             -11.2593
        69        2.0000           -0.4113551             -11.1935
        70        2.0000           -0.4065355             -11.0624
        71        2.0000           -0.4021599             -10.9433
        72        2.0000           -0.3984006             -10.8410
        73        2.0000           -0.3943259             -10.7302
        74        2.0000           -0.3887191             -10.5776
        75        2.0000           -0.3505466              -9.5389 (HOMO)
        76                         -0.2785616              -7.5800 (LUMO)
        77                         -0.2549558              -6.9377
        78                         -0.2258391              -6.1454
        79                         -0.2242783              -6.1029
        80                         -0.2192501              -5.9661
        81                         -0.2179105              -5.9296
        82                         -0.2086094              -5.6765
        83                         -0.1958564              -5.3295
        84                         -0.1835546              -4.9948
        85                         -0.1242721              -3.3816
        86                         -0.0937512              -2.5511
       ...                                ...                  ...
       148                          1.1627030              31.6388
      -------------------------------------------------------------
                  HL-Gap            0.0719850 Eh            1.9588 eV

     #   Z          covCN         q      C6AA      α(0)
     1   6 C        3.758    -0.107    22.599     6.777
     2   6 C        3.911     0.022    20.140     6.379
     3   6 C        3.763    -0.100    22.451     6.754
     4   6 C        2.986    -0.009    28.240     8.717
     5   6 C        2.923    -0.040    28.984     8.829
     6   6 C        2.918    -0.041    29.019     8.834
     7   6 C        2.919    -0.035    28.864     8.810
     8   6 C        2.921    -0.051    29.268     8.872
     9   6 C        2.940     0.055    26.757     8.484
    10   7 N        2.761    -0.057    22.350     7.021
    11   6 C        2.926     0.061    26.632     8.463
    12   6 C        2.920    -0.045    29.118     8.849
    13   6 C        2.919    -0.038    28.937     8.821
    14   6 C        2.989     0.006    27.874     8.660
    15   6 C        2.931    -0.024    28.613     8.772
    16   6 C        2.968     0.007    27.872     8.660
    17   6 C        1.912     0.116    28.239     8.582
    18   7 N        0.911    -0.289    27.459     7.579
    19   6 C        2.920    -0.027    28.686     8.783
    20   6 C        2.917    -0.039    28.960     8.825
    21   6 C        2.979     0.013    27.726     8.637
    22   6 C        2.968    -0.020    28.511     8.758
    23   6 C        3.904     0.023    20.125     6.377
    24   6 C        3.756    -0.111    22.684     6.791
    25   6 C        3.762    -0.101    22.477     6.758
    26   6 C        2.983    -0.013    28.323     8.730
    27   6 C        2.927    -0.043    29.068     8.842
    28   6 C        2.917    -0.044    29.101     8.846
    29   6 C        2.923    -0.044    29.086     8.844
    30   6 C        2.986    -0.012    28.317     8.729
    31   6 C        2.955     0.048    26.917     8.510
    32   1 H        0.925     0.043     2.408     2.427
    33   1 H        0.925     0.038     2.473     2.459
    34   1 H        0.925     0.043     2.413     2.429
    35   1 H        0.925     0.040     2.451     2.448
    36   1 H        0.925     0.034     2.525     2.485
    37   1 H        0.925     0.040     2.449     2.447
    38   1 H        0.926     0.042     2.426     2.435
    39   1 H        0.926     0.031     2.575     2.509
    40   1 H        0.926     0.031     2.573     2.508
    41   1 H        0.926     0.031     2.575     2.509
    42   1 H        0.926     0.043     2.413     2.429
    43   1 H        0.926     0.040     2.453     2.449
    44   1 H        0.926     0.037     2.492     2.469
    45   1 H        0.926     0.034     2.526     2.486
    46   1 H        0.926     0.061     2.189     2.313
    47   1 H        0.925     0.043     2.409     2.427
    48   1 H        0.925     0.042     2.424     2.435
    49   1 H        0.925     0.043     2.414     2.430
    50   1 H        0.925     0.043     2.403     2.424
    51   1 H        0.925     0.031     2.574     2.509
    52   1 H        0.925     0.044     2.393     2.419
    53   1 H        0.926     0.038     2.474     2.460
    54   1 H        0.926     0.029     2.596     2.519
    55   1 H        0.926     0.039     2.461     2.453

molecular dipole:
                 x           y           z       tot (Debye)
 q only:       -2.585       0.587       0.006
   full:       -2.878       0.576       0.065       7.462

 projected vibrational frequencies (cm⁻¹)
eigval :       -0.00    -0.00    -0.00    -0.00     0.00     0.00
eigval :       30.44    43.12    57.47    69.99    92.36   102.23
eigval :      115.25   126.77   142.52   148.07   171.04   173.18
eigval :      179.69   201.88   206.43   213.01   239.59   271.64
eigval :      279.91   281.56   291.74   303.82   316.19   332.95
eigval :      345.76   356.87   371.84   382.20   399.12   406.31
eigval :      422.22   433.48   454.06   463.74   467.88   486.00
eigval :      502.30   507.63   526.13   528.77   540.90   555.84
eigval :      564.98   590.15   599.51   608.63   613.32   629.98
eigval :      651.67   681.01   694.79   705.79   722.53   726.59
eigval :      736.70   777.47   787.41   802.17   817.89   832.20
eigval :      843.84   860.61   875.49   881.34   896.56   907.69
eigval :      913.99   922.88   923.99   929.62   930.94   935.36
eigval :      953.72   962.31   970.60   975.99   977.60  1007.62
eigval :     1032.18  1045.64  1090.51  1103.96  1112.94  1133.26
eigval :     1142.97  1146.43  1150.28  1159.52  1173.27  1181.32
eigval :     1184.62  1188.54  1201.32  1212.13  1224.94  1239.43
eigval :     1250.29  1253.31  1258.84  1271.28  1282.36  1311.24
eigval :     1317.37  1326.67  1329.67  1335.60  1370.69  1394.74
eigval :     1399.05  1406.19  1408.80  1411.23  1424.13  1440.45
eigval :     1444.48  1457.02  1466.68  1476.55  1480.00  1487.22
eigval :     1490.99  1491.74  1497.79  1504.14  1504.66  1520.03
eigval :     1522.48  1539.39  1577.21  1581.94  1584.59  1592.78
eigval :     1595.19  1604.73  2350.86  3016.46  3023.88  3026.06
eigval :     3026.79  3031.15  3031.26  3032.46  3035.20  3043.02
eigval :     3046.88  3056.13  3058.09  3073.28  3074.13  3076.35
eigval :     3079.99  3081.59  3082.02  3090.67  3093.77  3094.27
eigval :     3112.55  3114.16  3151.16

   temp. (K)  partition function   enthalpy   heat capacity  entropy
                                   cal/mol     cal/K/mol   cal/K/mol   J/K/mol
 298.15  VIB  0.466E+09            14368.210     97.914     84.670
         ROT  0.174E+08              888.752      2.981     36.113
         INT  0.812E+16            15256.962    100.895    120.783
         TR   0.776E+28             1481.254      4.968     43.834
         TOT                       16738.2161   105.8628   164.6175   688.7598

       T/K    H(0)-H(T)+PV         H(T)/Eh          T*S/Eh         G(T)/Eh
   ------------------------------------------------------------------------
    298.15    0.266740E-01    0.466342E+00    0.782151E-01    0.388127E+00
   ------------------------------------------------------------------------

         :::::::::::::::::::::::::::::::::::::::::::::::::::::
         ::                  THERMODYNAMIC                  ::
         :::::::::::::::::::::::::::::::::::::::::::::::::::::
         :: total free energy         -79.854102176327 Eh   ::
         ::.................................................::
         :: total energy              -80.242228838929 Eh   ::
         :: zero point energy           0.439667726510 Eh   ::
         :: G(RRHO) w/o ZPVE           -0.051541063908 Eh   ::
         :: G(RRHO) contrib.            0.388126662602 Eh   ::
         :::::::::::::::::::::::::::::::::::::::::::::::::::::

           -------------------------------------------------
          | TOTAL ENERGY              -80.242228838929 Eh   |
          | TOTAL ENTHALPY            -79.775887067230 Eh   |
          | TOTAL FREE ENERGY         -79.854102176327 Eh   |
          | GRADIENT NORM               0.000075630427 Eh/α |
          | HOMO-LUMO GAP               1.958812496703 eV   |
           -------------------------------------------------

 * finished run on 2025/07/18 at 07:56:11.746
