   * xtb version 6.7.1 (edcfbbe) compiled by 'albert@albert-system' on 2024-07-22

   ID    Z sym.   atoms
    1    6 C      1-9, 11-17, 19-31
    2    7 N      10, 18
    3    1 H      32-55

          program call               : xtb data2507/toluene/BCN/BCN_toluene_S0_finalOpt.xtbopt.xyz --gfn 2 --uhf 2 --gbsa toluene --ohess vtight --parallel 40 --molden --ceasefiles --namespace data2507/toluene/BCN/BCN_toluene_T1_preOpt
      * Solvation model:               GBSA
        Solvent                        toluene
        Solvent mass                       9.2140E+01 g/mol
          :  Hamiltonian                  GFN2-xTB          :
 * total energy  :   -80.1542970 Eh     change       -0.4847351E-08 Eh
 * total energy  :   -80.1593933 Eh     change       -0.5096289E-02 Eh
 * total energy  :   -80.1604463 Eh     change       -0.1053025E-02 Eh
 * total energy  :   -80.1601061 Eh     change        0.3402109E-03 Eh
 * total energy  :   -80.1606280 Eh     change       -0.5219258E-03 Eh
 * total energy  :   -80.1606507 Eh     change       -0.2270401E-04 Eh
 * total energy  :   -80.1606773 Eh     change       -0.2657916E-04 Eh
 * total energy  :   -80.1606956 Eh     change       -0.1832626E-04 Eh
 * total energy  :   -80.1607349 Eh     change       -0.3932787E-04 Eh
 * total energy  :   -80.1607546 Eh     change       -0.1964224E-04 Eh
 * total energy  :   -80.1608247 Eh     change       -0.3212161E-05 Eh
 * total energy  :   -80.1608282 Eh     change       -0.3522115E-05 Eh
 * total energy  :   -80.1608302 Eh     change       -0.1971511E-05 Eh
 * total energy  :   -80.1608316 Eh     change       -0.1383407E-05 Eh
 * total energy  :   -80.1608324 Eh     change       -0.7951336E-06 Eh
 * total energy  :   -80.1608328 Eh     change       -0.4168817E-06 Eh
 * total energy  :   -80.1608329 Eh     change       -0.1336156E-06 Eh
 * total energy  :   -80.1608331 Eh     change       -0.2039178E-06 Eh
 * total energy  :   -80.1608332 Eh     change       -0.6801069E-07 Eh
   *** GEOMETRY OPTIMIZATION CONVERGED AFTER 24 ITERATIONS ***

 final structure:
================
55
 xtb: 6.7.1 (edcfbbe)
C           -5.31149239470960        0.10406027208121       -0.77405867465799
C           -3.79567847252083       -0.09156184691991       -0.82147352009429
C           -3.38885227749547       -0.35120865994967       -2.29047325642707
C           -3.33165371729024       -1.26805333782411        0.00950208081711
C           -4.16462631060813       -2.28507016688614        0.44660649389548
C           -3.66979881219101       -3.35804634286579        1.17051953750579
C           -2.32129548499255       -3.41755801366298        1.48950332240723
C           -1.47215304895861       -2.41652498790876        1.07049146885805
C           -1.96253633227128       -1.34925938370786        0.31182719258941
N           -1.11993712100470       -0.30368432723810       -0.05867770381159
C            0.22924981380144       -0.49839086407830       -0.27185941631511
C            0.66537890176532       -1.70661965173875       -0.81797136730863
C            1.99860486585377       -1.96354245495469       -0.96914275313654
C            2.97623188473220       -1.03714979495809       -0.49140354184212
C            4.31977253191494       -1.34178595550207       -0.58360056861323
C            5.31890232473097       -0.43584819095044       -0.11397082530201
C            6.66869662934965       -0.74975779270302       -0.21152240287289
N            7.79496440804094       -1.00886294582411       -0.29409334018898
C            4.89911764847000        0.76629775463451        0.46323738869282
C            3.56767212679500        1.08332262967170        0.55393927902250
C            2.53526143338686        0.21667893185425        0.05951541769935
C            1.17347311074435        0.53781520553094        0.07088847062057
C            0.64422959331270        1.89340620977540        0.48668937571370
C            1.38469593906746        3.02053566125762       -0.28009015605471
C            0.78125051718182        2.03876461579475        2.02252980544653
C           -0.83475693826812        2.06129887348535        0.20642899601214
C           -1.42392422290706        3.31597271206140        0.29461013551731
C           -2.77931539308516        3.47918098863689        0.08531485917325
C           -3.57601282957329        2.39272738283341       -0.25131471612372
C           -3.03259977606454        1.12702444702538       -0.34246348983655
C           -1.66067012157910        0.96844719196195       -0.07029805240253
H           -5.60074391513036        0.94178662520488       -1.40238817179595
H           -5.64881695547940        0.28743543385842        0.24351102758549
H           -5.81565983054825       -0.77588011786719       -1.16377185864465
H           -3.67593556482132        0.49607793969784       -2.90923769013602
H           -2.31508767002235       -0.49593896762900       -2.38414243837772
H           -3.89020205752135       -1.24289334720698       -2.66035849376863
H           -5.21838416802851       -2.25379261443183        0.22540300573784
H           -4.33841338422399       -4.14108335723624        1.49408089327778
H           -1.93391811491917       -4.23735748637647        2.07514487020738
H           -0.42845059918523       -2.43749057455107        1.34494856862759
H           -0.06757831370101       -2.43073048913773       -1.14345988766253
H            2.33661953015883       -2.87778041240211       -1.43197444317336
H            4.63259386229054       -2.28087245545001       -1.01746234944404
H            5.64314516449238        1.45001870044297        0.85038644497930
H            3.31448990786677        2.01011864344307        1.03595030883422
H            2.31367223954580        2.66432332925308       -0.71209079535728
H            0.76652927773997        3.37801798860199       -1.10104434433513
H            1.60694490844931        3.85845121751474        0.37540211484906
H            0.44144722521486        3.02228298130740        2.33747351517574
H            0.16258573886505        1.28910930013539        2.51426271304223
H            1.80463502217692        1.89528174051504        2.35204314673648
H           -0.82005587217390        4.17610989748826        0.53489811425406
H           -3.22128167502020        4.46053597906222        0.16735341184723
H           -4.62284239204036        2.55599492473904       -0.44374764995240

          :  Hamiltonian                  GFN2-xTB          :
         :: gradient norm              0.000128007746 Eh/a0 ::
         :: HOMO-LUMO gap              0.834269117132 eV    ::
         :: SCC energy               -81.616182214316 Eh    ::
         :: -> dispersion             -0.076782602038 Eh    ::
         :: -> Gsolv                  -0.039861373404 Eh    ::
         :: repulsion energy           1.455349035060 Eh    ::

    * Orbital Energies and Occupations

         #    Occupation            Energy/Eh            Energy/eV
      -------------------------------------------------------------
         1        2.0000           -0.6897535             -18.7691
       ...           ...                  ...                  ...
        64        2.0000           -0.4322713             -11.7627
        65        2.0000           -0.4246314             -11.5548
        66        2.0000           -0.4189558             -11.4004
        67        2.0000           -0.4163209             -11.3287
        68        2.0000           -0.4153730             -11.3029
        69        2.0000           -0.4104708             -11.1695
        70        2.0000           -0.4075446             -11.0899
        71        2.0000           -0.4044103             -11.0046
        72        2.0000           -0.4022860             -10.9468
        73        2.0000           -0.4002654             -10.8918
        74        2.0000           -0.3786671             -10.3041
        75        1.0000           -0.3547150              -9.6523
        76        1.0000           -0.2721208              -7.4048 (HOMO)
        77                         -0.2414618              -6.5705 (LUMO)
        78                         -0.2382424              -6.4829
        79                         -0.2358909              -6.4189
        80                         -0.2308841              -6.2827
        81                         -0.2228609              -6.0644
        82                         -0.1921460              -5.2286
        83                         -0.1894720              -5.1558
        84                         -0.1742991              -4.7429
        85                         -0.1142430              -3.1087
        86                         -0.1073221              -2.9204
        87                         -0.1018067              -2.7703
       ...                                ...                  ...
       148                          1.1656298              31.7184
      -------------------------------------------------------------
                  HL-Gap            0.0306589 Eh            0.8343 eV

     #   Z          covCN         q      C6AA      α(0)
     1   6 C        3.758    -0.112    22.686     6.790
     2   6 C        3.911     0.024    20.111     6.374
     3   6 C        3.764    -0.101    22.470     6.757
     4   6 C        2.984    -0.001    28.043     8.687
     5   6 C        2.922    -0.036    28.887     8.814
     6   6 C        2.918    -0.032    28.799     8.800
     7   6 C        2.918    -0.030    28.753     8.793
     8   6 C        2.920    -0.041    29.017     8.834
     9   6 C        2.944     0.052    26.834     8.496
    10   7 N        2.760     0.005    21.168     6.833
    11   6 C        2.926     0.032    27.292     8.567
    12   6 C        2.911    -0.051    29.257     8.869
    13   6 C        2.919    -0.060    29.503     8.907
    14   6 C        2.977     0.008    27.828     8.653
    15   6 C        2.924    -0.060    29.482     8.904
    16   6 C        2.963    -0.008    28.226     8.714
    17   6 C        1.911     0.101    28.601     8.637
    18   7 N        0.911    -0.347    28.923     7.778
    19   6 C        2.917    -0.027    28.683     8.782
    20   6 C        2.914    -0.054    29.335     8.882
    21   6 C        2.972     0.005    27.896     8.664
    22   6 C        2.966    -0.012    28.304     8.726
    23   6 C        3.905     0.026    20.073     6.368
    24   6 C        3.758    -0.110    22.656     6.786
    25   6 C        3.764    -0.100    22.445     6.753
    26   6 C        2.986    -0.002    28.059     8.689
    27   6 C        2.925    -0.039    28.965     8.826
    28   6 C        2.917    -0.035    28.861     8.810
    29   6 C        2.922    -0.039    28.972     8.827
    30   6 C        2.984    -0.004    28.118     8.698
    31   6 C        2.955     0.046    26.973     8.518
    32   1 H        0.925     0.050     2.325     2.384
    33   1 H        0.925     0.044     2.392     2.419
    34   1 H        0.925     0.049     2.330     2.387
    35   1 H        0.925     0.047     2.358     2.401
    36   1 H        0.925     0.035     2.514     2.479
    37   1 H        0.925     0.047     2.358     2.401
    38   1 H        0.926     0.054     2.270     2.356
    39   1 H        0.926     0.043     2.409     2.427
    40   1 H        0.926     0.042     2.426     2.436
    41   1 H        0.926     0.043     2.409     2.427
    42   1 H        0.926     0.030     2.581     2.512
    43   1 H        0.926     0.020     2.739     2.588
    44   1 H        0.926     0.007     2.937     2.680
    45   1 H        0.925     0.018     2.762     2.599
    46   1 H        0.926     0.046     2.371     2.408
    47   1 H        0.925     0.051     2.312     2.378
    48   1 H        0.925     0.044     2.390     2.417
    49   1 H        0.925     0.049     2.336     2.390
    50   1 H        0.925     0.049     2.329     2.386
    51   1 H        0.925     0.036     2.510     2.477
    52   1 H        0.925     0.051     2.306     2.375
    53   1 H        0.926     0.050     2.324     2.384
    54   1 H        0.926     0.042     2.417     2.431
    55   1 H        0.926     0.052     2.295     2.369

molecular dipole:
                 x           y           z       tot (Debye)
 q only:       -6.021       1.244       0.356
   full:       -6.234       1.233       0.407      16.185

 projected vibrational frequencies (cm⁻¹)
eigval :       -0.00    -0.00    -0.00     0.00     0.00     0.00
eigval :       26.17    34.30    53.22    68.90    83.41    93.63
eigval :      108.08   118.35   134.81   147.34   166.00   171.59
eigval :      175.24   201.59   206.11   212.10   240.34   267.40
eigval :      273.74   278.01   289.51   299.79   314.15   333.10
eigval :      339.63   349.69   364.12   370.83   382.06   396.31
eigval :      405.32   425.28   442.20   450.42   467.68   480.03
eigval :      497.65   501.99   507.85   520.87   531.95   552.83
eigval :      554.97   562.53   590.45   600.70   609.24   617.13
eigval :      631.86   676.39   691.21   697.95   704.16   720.14
eigval :      725.45   759.71   774.82   784.68   789.54   797.55
eigval :      804.43   823.64   861.22   875.45   893.67   896.57
eigval :      901.31   909.62   914.24   919.31   926.73   927.35
eigval :      942.63   949.69   963.68   974.10   977.17  1008.61
eigval :     1024.94  1039.99  1082.90  1096.37  1107.53  1121.10
eigval :     1125.05  1131.27  1142.74  1150.28  1156.59  1175.84
eigval :     1181.72  1184.45  1196.66  1203.99  1210.20  1223.86
eigval :     1246.37  1253.33  1268.65  1273.44  1280.99  1295.81
eigval :     1297.95  1318.22  1330.14  1337.28  1339.77  1386.58
eigval :     1393.85  1398.73  1400.64  1406.11  1410.96  1411.88
eigval :     1421.60  1428.18  1434.00  1455.82  1464.12  1467.08
eigval :     1481.12  1486.01  1488.55  1492.16  1496.80  1500.32
eigval :     1504.12  1513.16  1521.01  1525.85  1551.32  1555.45
eigval :     1567.32  1580.09  2255.03  3018.57  3028.59  3030.50
eigval :     3031.19  3035.05  3036.06  3037.55  3039.01  3040.01
eigval :     3054.93  3059.55  3067.87  3068.54  3070.69  3072.21
eigval :     3083.43  3087.08  3089.65  3091.35  3099.16  3108.91
eigval :     3120.42  3122.19  3140.95

   temp. (K)  partition function   enthalpy   heat capacity  entropy
                                   cal/mol     cal/K/mol   cal/K/mol   J/K/mol
 298.15  VIB  0.124E+10            14671.992     99.039     86.778
         ROT  0.174E+08              888.752      2.981     36.118
         INT  0.217E+17            15560.745    102.020    122.896
         TR   0.776E+28             1481.254      4.968     43.834
         TOT                       17041.9985   106.9883   166.7298   697.5975

       T/K    H(0)-H(T)+PV         H(T)/Eh          T*S/Eh         G(T)/Eh
   ------------------------------------------------------------------------
    298.15    0.271582E-01    0.463360E+00    0.792187E-01    0.384141E+00
   ------------------------------------------------------------------------

         :::::::::::::::::::::::::::::::::::::::::::::::::::::
         ::                  THERMODYNAMIC                  ::
         :::::::::::::::::::::::::::::::::::::::::::::::::::::
         :: total free energy         -79.776692359452 Eh   ::
         ::.................................................::
         :: total energy              -80.160833181994 Eh   ::
         :: zero point energy           0.436201377305 Eh   ::
         :: G(RRHO) w/o ZPVE           -0.052060554764 Eh   ::
         :: G(RRHO) contrib.            0.384140822542 Eh   ::
         :::::::::::::::::::::::::::::::::::::::::::::::::::::

           -------------------------------------------------
          | TOTAL ENERGY              -80.160833181994 Eh   |
          | TOTAL ENTHALPY            -79.697473651428 Eh   |
          | TOTAL FREE ENERGY         -79.776692359452 Eh   |
          | GRADIENT NORM               0.000128048897 Eh/α |
          | HOMO-LUMO GAP               0.834271533217 eV   |
           -------------------------------------------------

 * finished run on 2025/07/18 at 07:56:14.581
