   * xtb version 6.7.1 (edcfbbe) compiled by 'albert@albert-system' on 2024-07-22

   ID    Z sym.   atoms
    1    6 C      1-9, 11-17, 19-31
    2    7 N      10, 18
    3    1 H      32-55

          program call               : xtb data2507/toluene/BCN/BCN_toluene_T1_crest.xyz --gfn 2 --uhf 2 --gbsa toluene --ohess vtight --parallel 40 --molden --ceasefiles --namespace data2507/toluene/BCN/BCN_toluene_T1_finalOpt
      * Solvation model:               GBSA
        Solvent                        toluene
        Solvent mass                       9.2140E+01 g/mol
          :  Hamiltonian                  GFN2-xTB          :
 * total energy  :   -80.1607342 Eh     change       -0.3104049E-08 Eh
 * total energy  :   -80.1608018 Eh     change       -0.6762323E-04 Eh
 * total energy  :   -80.1608172 Eh     change       -0.1538779E-04 Eh
 * total energy  :   -80.1608145 Eh     change        0.2716965E-05 Eh
 * total energy  :   -80.1608230 Eh     change       -0.8494623E-05 Eh
 * total energy  :   -80.1608256 Eh     change       -0.2600591E-05 Eh
 * total energy  :   -80.1608271 Eh     change       -0.1536814E-05 Eh
 * total energy  :   -80.1608298 Eh     change       -0.2634267E-05 Eh
 * total energy  :   -80.1608310 Eh     change       -0.1245312E-05 Eh
 * total energy  :   -80.1608319 Eh     change       -0.8596327E-06 Eh
 * total energy  :   -80.1608326 Eh     change       -0.6844439E-06 Eh
 * total energy  :   -80.1608326 Eh     change       -0.2467590E-07 Eh
 * total energy  :   -80.1608329 Eh     change       -0.3646055E-06 Eh
 * total energy  :   -80.1608332 Eh     change       -0.2150616E-06 Eh
 * total energy  :   -80.1608333 Eh     change       -0.1761268E-06 Eh
 * total energy  :   -80.1608335 Eh     change       -0.2039636E-06 Eh
 * total energy  :   -80.1608338 Eh     change       -0.2138976E-06 Eh
 * total energy  :   -80.1608339 Eh     change       -0.1463477E-06 Eh
 * total energy  :   -80.1608339 Eh     change       -0.3109588E-07 Eh
   *** GEOMETRY OPTIMIZATION CONVERGED AFTER 19 ITERATIONS ***

 final structure:
================
55
 xtb: 6.7.1 (edcfbbe)
C           -5.31751527416593        0.09871251750739       -0.75430866754084
C           -3.80167846956142       -0.09525524923459       -0.80705505979158
C           -3.39943982986761       -0.35194881059669       -2.27785334633166
C           -3.33348741351546       -1.27282356428337        0.02005224948878
C           -4.16381195832900       -2.29100425825879        0.45938299053699
C           -3.66457414917753       -3.36592645269205        1.17743565861876
C           -2.31413989183121       -3.42647624543054        1.48786525277115
C           -1.46765574323648       -2.42378457002672        1.06734122298358
C           -1.96279463552462       -1.35402986811746        0.31537173913019
N           -1.12318705757112       -0.30610586371794       -0.05491584436234
C            0.22557105055582       -0.49785245617537       -0.27387703898936
C            0.66166284641160       -1.70189444584970       -0.82888846564219
C            1.99487797989085       -1.95485996913982       -0.98774260460737
C            2.97257053042347       -1.02998758949250       -0.50721450437816
C            4.31650074815918       -1.33037511367815       -0.60813429551110
C            5.31541084647602       -0.42667426897616       -0.13373405351666
C            6.66565687965899       -0.73582363682458       -0.24063446598707
N            7.79211378150833       -0.99122614997037       -0.33149092899236
C            4.89523385737271        0.76790894097006        0.45855303792772
C            3.56341129758843        1.08114377659903        0.55724976116393
C            2.53131772493124        0.21804946053276        0.05631983072077
C            1.16918675035936        0.53759693381925        0.07264281557353
C            0.63905083837764        1.89007079304597        0.49714417643806
C            1.37921348105661        3.02260361285522       -0.26165839905739
C            0.77499342351778        2.02560318753342        2.03406019677472
C           -0.84008750586479        2.05829669703295        0.21777327151755
C           -1.43015725801068        3.31226620121204        0.30982900114505
C           -2.78596898691636        3.47484348810460        0.10273680699919
C           -3.58251488347536        2.38836843286344       -0.23407258309856
C           -3.03824483079879        1.12325586002633       -0.32851407231992
C           -1.66550530349860        0.96545016489533       -0.06036543483893
H           -5.60978177137250        0.93655236395832       -1.38110352349828
H           -5.65157037638720        0.28108826538816        0.26451762469210
H           -5.82203191932652       -0.78153315718044       -1.14289135051853
H           -3.68841661015567        0.49659656962635       -2.89398475113745
H           -2.32598513608061       -0.49648811400621       -2.37517174849962
H           -3.90194686884146       -1.24288187530550       -2.64795076663220
H           -5.21885219193858       -2.25928547553449        0.24442676576034
H           -4.33124526217120       -4.14982067019915        1.50293063901180
H           -1.92313731156302       -4.24818689477484        2.06838438664828
H           -0.42238371391390       -2.44538511739898        1.33571934480556
H           -0.07127590414663       -2.42554328856035       -1.15547215100287
H            2.33284198372023       -2.86523192583254       -1.45815289066089
H            4.62973565135887       -2.26451610632074       -1.05221981049952
H            5.63917991164674        1.44887466866389        0.85066035624250
H            3.30973538924064        2.00159147167091        1.05108099815117
H            1.59730051301907        3.85782554569437        0.39855128144605
H            2.31049645646688        2.67089114636921       -0.69236436604544
H            0.76290474192824        3.38241318982896       -1.08300683346157
H            0.43609614552505        3.00758761846037        2.35471281825023
H            0.15495875988881        1.27370008489624        2.52058656356643
H            1.79790851139277        1.87877043426807        2.36354347602748
H           -0.82673066009484        4.17236086832915        0.55129818711273
H           -3.22847672027020        4.45575530125678        0.18712245431523
H           -4.62990387056809        2.55103629536900       -0.42396174579778

          :  Hamiltonian                  GFN2-xTB          :
         :: gradient norm              0.000082021166 Eh/a0 ::
         :: HOMO-LUMO gap              0.834187723344 eV    ::
         :: SCC energy               -81.616222318794 Eh    ::
         :: -> dispersion             -0.076785095190 Eh    ::
         :: -> Gsolv                  -0.039854041060 Eh    ::
         :: repulsion energy           1.455388381980 Eh    ::

    * Orbital Energies and Occupations

         #    Occupation            Energy/Eh            Energy/eV
      -------------------------------------------------------------
         1        2.0000           -0.6897490             -18.7690
       ...           ...                  ...                  ...
        64        2.0000           -0.4322811             -11.7630
        65        2.0000           -0.4246575             -11.5555
        66        2.0000           -0.4189447             -11.4001
        67        2.0000           -0.4162962             -11.3280
        68        2.0000           -0.4153787             -11.3030
        69        2.0000           -0.4104695             -11.1694
        70        2.0000           -0.4075829             -11.0909
        71        2.0000           -0.4044310             -11.0051
        72        2.0000           -0.4023031             -10.9472
        73        2.0000           -0.4002527             -10.8914
        74        2.0000           -0.3786442             -10.3034
        75        1.0000           -0.3547218              -9.6525
        76        1.0000           -0.2721356              -7.4052 (HOMO)
        77                         -0.2414798              -6.5710 (LUMO)
        78                         -0.2382439              -6.4829
        79                         -0.2358917              -6.4189
        80                         -0.2308922              -6.2829
        81                         -0.2228325              -6.0636
        82                         -0.1921941              -5.2299
        83                         -0.1894900              -5.1563
        84                         -0.1743312              -4.7438
        85                         -0.1142640              -3.1093
        86                         -0.1072950              -2.9196
        87                         -0.1018485              -2.7714
       ...                                ...                  ...
       148                          1.1656066              31.7178
      -------------------------------------------------------------
                  HL-Gap            0.0306558 Eh            0.8342 eV

     #   Z          covCN         q      C6AA      α(0)
     1   6 C        3.758    -0.112    22.686     6.790
     2   6 C        3.911     0.024    20.111     6.374
     3   6 C        3.764    -0.101    22.470     6.757
     4   6 C        2.984    -0.001    28.044     8.687
     5   6 C        2.922    -0.036    28.887     8.814
     6   6 C        2.918    -0.032    28.799     8.800
     7   6 C        2.918    -0.030    28.753     8.793
     8   6 C        2.920    -0.041    29.018     8.834
     9   6 C        2.944     0.052    26.833     8.496
    10   7 N        2.760     0.005    21.169     6.833
    11   6 C        2.926     0.032    27.292     8.567
    12   6 C        2.911    -0.051    29.257     8.869
    13   6 C        2.919    -0.060    29.504     8.907
    14   6 C        2.977     0.008    27.828     8.653
    15   6 C        2.924    -0.060    29.482     8.904
    16   6 C        2.963    -0.008    28.226     8.714
    17   6 C        1.911     0.101    28.601     8.637
    18   7 N        0.911    -0.347    28.921     7.778
    19   6 C        2.917    -0.027    28.683     8.782
    20   6 C        2.914    -0.054    29.335     8.881
    21   6 C        2.972     0.005    27.896     8.663
    22   6 C        2.966    -0.012    28.305     8.727
    23   6 C        3.905     0.026    20.073     6.368
    24   6 C        3.758    -0.110    22.657     6.786
    25   6 C        3.764    -0.100    22.444     6.753
    26   6 C        2.986    -0.002    28.059     8.689
    27   6 C        2.925    -0.039    28.965     8.826
    28   6 C        2.917    -0.035    28.861     8.810
    29   6 C        2.922    -0.039    28.972     8.827
    30   6 C        2.984    -0.004    28.117     8.698
    31   6 C        2.955     0.046    26.972     8.518
    32   1 H        0.925     0.050     2.325     2.384
    33   1 H        0.925     0.044     2.392     2.419
    34   1 H        0.925     0.049     2.330     2.387
    35   1 H        0.925     0.047     2.358     2.402
    36   1 H        0.925     0.035     2.514     2.479
    37   1 H        0.925     0.047     2.358     2.401
    38   1 H        0.926     0.054     2.270     2.356
    39   1 H        0.926     0.043     2.409     2.427
    40   1 H        0.926     0.042     2.426     2.436
    41   1 H        0.926     0.043     2.410     2.427
    42   1 H        0.926     0.030     2.581     2.513
    43   1 H        0.926     0.020     2.739     2.588
    44   1 H        0.926     0.007     2.937     2.680
    45   1 H        0.925     0.018     2.761     2.599
    46   1 H        0.926     0.046     2.372     2.408
    47   1 H        0.925     0.049     2.336     2.390
    48   1 H        0.925     0.051     2.312     2.378
    49   1 H        0.925     0.044     2.390     2.418
    50   1 H        0.925     0.049     2.329     2.387
    51   1 H        0.925     0.036     2.509     2.477
    52   1 H        0.925     0.051     2.307     2.375
    53   1 H        0.926     0.050     2.323     2.384
    54   1 H        0.926     0.042     2.417     2.431
    55   1 H        0.926     0.052     2.295     2.369

molecular dipole:
                 x           y           z       tot (Debye)
 q only:       -6.021       1.230       0.389
   full:       -6.233       1.217       0.442      16.182

 projected vibrational frequencies (cm⁻¹)
eigval :       -0.00    -0.00    -0.00     0.00     0.00     0.00
eigval :       26.81    35.27    53.26    68.86    83.64    94.34
eigval :      108.29   118.67   135.11   147.11   166.23   171.71
eigval :      174.87   200.95   205.97   210.78   240.35   267.29
eigval :      273.81   277.93   289.53   299.71   314.09   333.13
eigval :      339.48   349.90   364.60   370.76   382.16   396.27
eigval :      405.40   425.49   442.35   450.27   467.69   479.95
eigval :      497.71   502.03   507.68   520.82   531.81   553.18
eigval :      555.08   562.58   590.27   600.80   609.25   617.17
eigval :      631.91   676.34   691.09   697.85   704.20   720.21
eigval :      725.42   760.35   774.51   785.10   789.91   797.97
eigval :      805.26   823.72   861.31   874.45   894.06   894.83
eigval :      903.32   909.36   913.75   919.11   926.80   927.44
eigval :      942.65   949.94   964.37   974.12   978.01  1009.22
eigval :     1024.69  1040.22  1083.35  1096.38  1107.45  1121.17
eigval :     1125.18  1131.31  1142.74  1150.22  1156.33  1175.84
eigval :     1181.66  1184.50  1196.58  1204.02  1210.19  1223.99
eigval :     1246.36  1253.38  1268.71  1273.17  1281.01  1295.86
eigval :     1297.98  1318.25  1330.13  1337.21  1339.70  1386.58
eigval :     1393.95  1398.64  1400.60  1405.98  1411.00  1411.91
eigval :     1421.68  1428.25  1433.92  1455.83  1464.18  1467.10
eigval :     1480.98  1486.48  1488.44  1492.16  1496.61  1500.73
eigval :     1504.06  1513.09  1520.98  1525.63  1551.37  1555.61
eigval :     1567.41  1580.14  2255.19  3018.82  3028.60  3030.71
eigval :     3031.32  3035.11  3036.09  3037.93  3039.00  3040.70
eigval :     3054.91  3059.91  3067.69  3068.43  3070.74  3072.28
eigval :     3083.49  3087.06  3091.08  3091.37  3099.16  3109.03
eigval :     3120.32  3122.29  3140.52

   temp. (K)  partition function   enthalpy   heat capacity  entropy
                                   cal/mol     cal/K/mol   cal/K/mol   J/K/mol
 298.15  VIB  0.118E+10            14669.101     99.062     86.747
         ROT  0.174E+08              888.752      2.981     36.118
         INT  0.205E+17            15557.853    102.042    122.865
         TR   0.776E+28             1481.254      4.968     43.834
         TOT                       17039.1072   107.0106   166.6989   697.4682

       T/K    H(0)-H(T)+PV         H(T)/Eh          T*S/Eh         G(T)/Eh
   ------------------------------------------------------------------------
    298.15    0.271535E-01    0.463376E+00    0.792040E-01    0.384172E+00
   ------------------------------------------------------------------------

         :::::::::::::::::::::::::::::::::::::::::::::::::::::
         ::                  THERMODYNAMIC                  ::
         :::::::::::::::::::::::::::::::::::::::::::::::::::::
         :: total free energy         -79.776661817990 Eh   ::
         ::.................................................::
         :: total energy              -80.160833938861 Eh   ::
         :: zero point energy           0.436222601218 Eh   ::
         :: G(RRHO) w/o ZPVE           -0.052050480347 Eh   ::
         :: G(RRHO) contrib.            0.384172120871 Eh   ::
         :::::::::::::::::::::::::::::::::::::::::::::::::::::

           -------------------------------------------------
          | TOTAL ENERGY              -80.160833938861 Eh   |
          | TOTAL ENTHALPY            -79.697457791877 Eh   |
          | TOTAL FREE ENERGY         -79.776661817990 Eh   |
          | GRADIENT NORM               0.000081813616 Eh/α |
          | HOMO-LUMO GAP               0.834186069149 eV   |
           -------------------------------------------------

 * finished run on 2025/07/18 at 07:58:07.173
