   * xtb version 6.7.1 (edcfbbe) compiled by 'albert@albert-system' on 2024-07-22

   ID    Z sym.   atoms
    1    6 C      1-9, 11-17, 19-31
    2    7 N      10, 18
    3    1 H      32-55

          program call               : xtb data2507/toluene/BCN/BCN.xyz --gfn 2 --gbsa toluene --ohess vtight --parallel 40 --molden --ceasefiles --namespace data2507/toluene/BCN/BCN_toluene_S0_preOpt
      * Solvation model:               GBSA
        Solvent                        toluene
        Solvent mass                       9.2140E+01 g/mol
          :  Hamiltonian                  GFN2-xTB          :
 * total energy  :   -80.2195822 Eh     change       -0.1953552E-08 Eh
 * total energy  :   -80.2338685 Eh     change       -0.1428632E-01 Eh
 * total energy  :   -80.2387280 Eh     change       -0.4859490E-02 Eh
 * total energy  :   -80.2396204 Eh     change       -0.8924551E-03 Eh
 * total energy  :   -80.2400430 Eh     change       -0.4226017E-03 Eh
 * total energy  :   -80.2402785 Eh     change       -0.2354397E-03 Eh
 * total energy  :   -80.2404695 Eh     change       -0.1910543E-03 Eh
 * total energy  :   -80.2406796 Eh     change       -0.2100263E-03 Eh
 * total energy  :   -80.2409281 Eh     change       -0.2485002E-03 Eh
 * total energy  :   -80.2411512 Eh     change       -0.2231595E-03 Eh
 * total energy  :   -80.2421989 Eh     change       -0.4478787E-05 Eh
 * total energy  :   -80.2422010 Eh     change       -0.2060103E-05 Eh
 * total energy  :   -80.2422026 Eh     change       -0.1632620E-05 Eh
 * total energy  :   -80.2422034 Eh     change       -0.7861352E-06 Eh
 * total energy  :   -80.2422037 Eh     change       -0.3348201E-06 Eh
 * total energy  :   -80.2422039 Eh     change       -0.1420895E-06 Eh
 * total energy  :   -80.2422039 Eh     change       -0.2642220E-07 Eh
 * total energy  :   -80.2422040 Eh     change       -0.1124600E-06 Eh
 * total energy  :   -80.2422040 Eh     change       -0.1009568E-08 Eh
   *** GEOMETRY OPTIMIZATION CONVERGED AFTER 44 ITERATIONS ***

 final structure:
================
55
 xtb: 6.7.1 (edcfbbe)
C           -4.89394899186835        0.29651895667676       -0.55426842267888
C           -3.39991313849334       -0.01592000669804       -0.63756183552841
C           -3.06027194530958       -0.35627435525039       -2.10495562178433
C           -2.99776044428799       -1.19229084778585        0.22989128845203
C           -3.89357316758290       -2.09960682954885        0.77413768853229
C           -3.45555092310817       -3.17535261404941        1.52815598918542
C           -2.10355567476485       -3.34332805289537        1.77165609381413
C           -1.19463049711243       -2.43969386162541        1.25787344412767
C           -1.63073744713766       -1.37807311393878        0.46809642072609
N           -0.73078569667118       -0.41905777360382       -0.00837735739700
C            0.60708070873192       -0.69821810281084       -0.23122969926492
C            0.91364558053079       -1.97128496395506       -0.77070082802405
C            2.19860230725841       -2.33746090736084       -1.00368633254356
C            3.25531799272641       -1.46412142276995       -0.66376482789809
C            4.58443577813574       -1.88371552355324       -0.82252694411734
C            5.63383512757205       -1.06325092400256       -0.46628833783053
C            6.96711908450863       -1.48908425182083       -0.62158844000636
N            8.05706445672113       -1.83212928875063       -0.74617727151226
C            5.35647557904975        0.21130585165638        0.07479731882577
C            4.06859182825116        0.63815153035998        0.21474300303266
C            2.95752693834100       -0.16240945486444       -0.15925918474395
C            1.60095761598398        0.24468125255638       -0.01217687996393
C            1.22600666181292        1.66187357750448        0.40665423394420
C            1.99283182772740        2.69826928632776       -0.45592556493026
C            1.50088157770562        1.83102307199027        1.91655882098569
C           -0.26151129710757        1.92793104519946        0.22644525593288
C           -0.75393032111940        3.22258968562847        0.33655430511820
C           -2.10340876824158        3.48277220233244        0.19923930395508
C           -2.98654820713045        2.45738542997722       -0.09575604728825
C           -2.53192486920075        1.15622097331221       -0.21727356344818
C           -1.17092827152307        0.90312866913493       -0.00364663982492
H           -5.13772714486478        1.13288140209557       -1.20434525340058
H           -5.18634850822874        0.54091935819426        0.46471396921486
H           -5.47528820025082       -0.55605864277303       -0.89604307734341
H           -3.30813660452597        0.48585148353601       -2.74792772490859
H           -2.00246245660009       -0.57718687237024       -2.22346552969639
H           -3.63219471284997       -1.22442502320571       -2.42639932236472
H           -4.95211307279420       -1.98065674690673        0.61023993001609
H           -4.17160987671394       -3.87591172459671        1.93123241223247
H           -1.75491731838502       -4.16799892302295        2.37565646949947
H           -0.14273001966477       -2.54742896404921        1.47807671587455
H            0.09802532110388       -2.63496177188472       -1.01565761267488
H            2.43063186709453       -3.29877020337363       -1.43728368679431
H            4.77906933449182       -2.86992044879713       -1.22053679245642
H            6.17953865945226        0.84218905524963        0.37799359176838
H            3.91221847779640        1.61162384058144        0.64261117617178
H            2.70733818249322        2.21656868812980       -1.11651310311169
H            1.29900101932588        3.24491383833562       -1.09065402612776
H            2.52086177376155        3.41922985633086        0.16356978695495
H            2.53041548164141        1.60294850814936        2.17419195267945
H            1.27719863929489        2.84898563178173        2.22683991370912
H            0.85712790670381        1.15612929802688        2.47991290878301
H           -0.07940430496929        4.03773613506307        0.54904531768241
H           -2.47003748409233        4.49297003668228        0.30600656002953
H           -4.02984836361662        2.68979495145569       -0.23090394359037

          :  Hamiltonian                  GFN2-xTB          :
         :: gradient norm              0.000125618804 Eh/a0 ::
         :: HOMO-LUMO gap              1.957206934823 eV    ::
         :: SCC energy               -81.715254545784 Eh    ::
         :: -> dispersion             -0.077034864364 Eh    ::
         :: -> Gsolv                  -0.032935271709 Eh    ::
         :: repulsion energy           1.473050544507 Eh    ::

    * Orbital Energies and Occupations

         #    Occupation            Energy/Eh            Energy/eV
      -------------------------------------------------------------
         1        2.0000           -0.6743236             -18.3493
       ...           ...                  ...                  ...
        63        2.0000           -0.4362615             -11.8713
        64        2.0000           -0.4294405             -11.6857
        65        2.0000           -0.4284476             -11.6587
        66        2.0000           -0.4225347             -11.4978
        67        2.0000           -0.4189768             -11.4009
        68        2.0000           -0.4137622             -11.2590
        69        2.0000           -0.4113702             -11.1940
        70        2.0000           -0.4065354             -11.0624
        71        2.0000           -0.4021818             -10.9439
        72        2.0000           -0.3983703             -10.8402
        73        2.0000           -0.3943375             -10.7305
        74        2.0000           -0.3887063             -10.5772
        75        2.0000           -0.3505232              -9.5382 (HOMO)
        76                         -0.2785972              -7.5810 (LUMO)
        77                         -0.2550046              -6.9390
        78                         -0.2257845              -6.1439
        79                         -0.2242769              -6.1029
        80                         -0.2192655              -5.9665
        81                         -0.2178777              -5.9288
        82                         -0.2086580              -5.6779
        83                         -0.1959289              -5.3315
        84                         -0.1835935              -4.9958
        85                         -0.1244097              -3.3854
        86                         -0.0937489              -2.5510
       ...                                ...                  ...
       148                          1.1624645              31.6323
      -------------------------------------------------------------
                  HL-Gap            0.0719260 Eh            1.9572 eV

     #   Z          covCN         q      C6AA      α(0)
     1   6 C        3.758    -0.107    22.599     6.777
     2   6 C        3.911     0.022    20.140     6.379
     3   6 C        3.763    -0.100    22.451     6.754
     4   6 C        2.986    -0.009    28.241     8.717
     5   6 C        2.923    -0.040    28.984     8.829
     6   6 C        2.918    -0.041    29.020     8.834
     7   6 C        2.919    -0.035    28.864     8.810
     8   6 C        2.921    -0.051    29.270     8.872
     9   6 C        2.940     0.055    26.757     8.484
    10   7 N        2.761    -0.057    22.351     7.022
    11   6 C        2.926     0.061    26.632     8.463
    12   6 C        2.920    -0.045    29.116     8.849
    13   6 C        2.919    -0.038    28.937     8.821
    14   6 C        2.989     0.006    27.874     8.660
    15   6 C        2.931    -0.024    28.613     8.772
    16   6 C        2.968     0.007    27.871     8.660
    17   6 C        1.912     0.116    28.239     8.582
    18   7 N        0.911    -0.289    27.457     7.578
    19   6 C        2.920    -0.027    28.685     8.783
    20   6 C        2.917    -0.039    28.959     8.825
    21   6 C        2.979     0.013    27.726     8.637
    22   6 C        2.968    -0.020    28.509     8.758
    23   6 C        3.904     0.023    20.125     6.377
    24   6 C        3.756    -0.111    22.685     6.791
    25   6 C        3.762    -0.101    22.476     6.758
    26   6 C        2.983    -0.013    28.324     8.730
    27   6 C        2.927    -0.043    29.068     8.842
    28   6 C        2.917    -0.044    29.101     8.846
    29   6 C        2.923    -0.044    29.086     8.844
    30   6 C        2.986    -0.012    28.317     8.729
    31   6 C        2.955     0.048    26.918     8.510
    32   1 H        0.925     0.043     2.408     2.427
    33   1 H        0.925     0.038     2.473     2.459
    34   1 H        0.925     0.043     2.413     2.429
    35   1 H        0.925     0.040     2.451     2.448
    36   1 H        0.925     0.034     2.524     2.485
    37   1 H        0.925     0.040     2.450     2.448
    38   1 H        0.926     0.042     2.426     2.436
    39   1 H        0.926     0.031     2.575     2.510
    40   1 H        0.926     0.031     2.573     2.509
    41   1 H        0.926     0.031     2.576     2.510
    42   1 H        0.926     0.043     2.413     2.429
    43   1 H        0.926     0.040     2.452     2.449
    44   1 H        0.926     0.037     2.491     2.468
    45   1 H        0.926     0.034     2.526     2.485
    46   1 H        0.926     0.061     2.189     2.313
    47   1 H        0.925     0.043     2.408     2.427
    48   1 H        0.925     0.042     2.424     2.435
    49   1 H        0.925     0.043     2.414     2.430
    50   1 H        0.925     0.044     2.393     2.419
    51   1 H        0.925     0.043     2.403     2.424
    52   1 H        0.925     0.031     2.574     2.509
    53   1 H        0.926     0.038     2.474     2.460
    54   1 H        0.926     0.029     2.596     2.519
    55   1 H        0.926     0.039     2.461     2.453

molecular dipole:
                 x           y           z       tot (Debye)
 q only:       -2.521       0.796       0.131
   full:       -2.810       0.810       0.204       7.451

 projected vibrational frequencies (cm⁻¹)
eigval :       -0.00    -0.00    -0.00     0.00     0.00     0.00
eigval :       25.54    42.42    56.54    70.65    92.74   105.23
eigval :      116.02   128.13   139.96   143.82   165.09   169.11
eigval :      175.46   192.66   197.77   211.02   238.92   269.97
eigval :      278.18   281.25   290.60   303.20   316.08   333.12
eigval :      346.02   356.47   371.64   381.67   398.30   405.20
eigval :      421.66   433.02   453.62   462.53   467.71   485.23
eigval :      501.68   506.68   525.92   528.21   540.27   554.98
eigval :      564.88   588.24   599.43   608.30   613.19   629.58
eigval :      650.84   680.95   695.07   705.84   722.62   725.07
eigval :      736.52   778.99   787.73   801.21   819.24   832.15
eigval :      846.29   860.74   876.47   880.14   897.11   909.27
eigval :      913.85   920.64   922.81   930.18   932.98   933.45
eigval :      954.14   961.85   970.25   975.96   976.97  1009.32
eigval :     1031.98  1045.50  1090.20  1104.00  1112.72  1133.93
eigval :     1143.18  1146.58  1150.76  1159.76  1173.50  1181.70
eigval :     1185.53  1188.25  1201.76  1212.85  1225.41  1239.49
eigval :     1249.86  1253.47  1259.42  1271.30  1282.37  1311.37
eigval :     1317.39  1326.80  1329.84  1335.40  1370.47  1395.42
eigval :     1399.07  1405.82  1406.85  1412.52  1424.96  1440.74
eigval :     1444.31  1457.21  1467.31  1476.37  1480.09  1483.43
eigval :     1488.88  1491.06  1497.42  1503.32  1503.80  1520.65
eigval :     1522.42  1539.16  1577.37  1581.89  1584.31  1592.80
eigval :     1594.97  1604.49  2350.30  3012.60  3023.78  3025.64
eigval :     3027.84  3030.57  3030.65  3033.43  3035.10  3042.45
eigval :     3046.30  3057.06  3057.53  3073.63  3074.36  3076.31
eigval :     3079.89  3081.57  3081.91  3090.60  3093.96  3094.37
eigval :     3112.48  3114.74  3151.23

   temp. (K)  partition function   enthalpy   heat capacity  entropy
                                   cal/mol     cal/K/mol   cal/K/mol   J/K/mol
 298.15  VIB  0.635E+09            14422.680     97.920     85.160
         ROT  0.174E+08              888.752      2.981     36.113
         INT  0.111E+17            15311.433    100.901    121.273
         TR   0.776E+28             1481.254      4.968     43.834
         TOT                       16792.6867   105.8693   165.1071   690.8080

       T/K    H(0)-H(T)+PV         H(T)/Eh          T*S/Eh         G(T)/Eh
   ------------------------------------------------------------------------
    298.15    0.267608E-01    0.466279E+00    0.784477E-01    0.387832E+00
   ------------------------------------------------------------------------

         :::::::::::::::::::::::::::::::::::::::::::::::::::::
         ::                  THERMODYNAMIC                  ::
         :::::::::::::::::::::::::::::::::::::::::::::::::::::
         :: total free energy         -79.854372480957 Eh   ::
         ::.................................................::
         :: total energy              -80.242203997668 Eh   ::
         :: zero point energy           0.439518367958 Eh   ::
         :: G(RRHO) w/o ZPVE           -0.051686851246 Eh   ::
         :: G(RRHO) contrib.            0.387831516711 Eh   ::
         :::::::::::::::::::::::::::::::::::::::::::::::::::::

           -------------------------------------------------
          | TOTAL ENERGY              -80.242203997668 Eh   |
          | TOTAL ENTHALPY            -79.775924780008 Eh   |
          | TOTAL FREE ENERGY         -79.854372480957 Eh   |
          | GRADIENT NORM               0.000125539494 Eh/α |
          | HOMO-LUMO GAP               1.957207237228 eV   |
           -------------------------------------------------

 * finished run on 2025/07/18 at 07:54:18.021
