   * xtb version 6.7.1 (edcfbbe) compiled by 'albert@albert-system' on 2024-07-22

   ID    Z sym.   atoms
    1    6 C      1-6, 8-13, 15-20, 22-26, 28-33, 35-42, 44-46
    2    8 O      7, 34
    3    7 N      14, 21, 27, 43
    4    1 H      47-72

          program call               : xtb data2507/gas/PxPYM/PxPYM.xyz --gfn 2 --ohess vtight --parallel 40 --molden --ceasefiles --namespace data2507/gas/PxPYM/PxPYM_gas_S0_preOpt
          :  Hamiltonian                  GFN2-xTB          :
 * total energy  :  -118.7666820 Eh     change       -0.2873747E-08 Eh
 * total energy  :  -118.7783024 Eh     change       -0.1162033E-01 Eh
 * total energy  :  -118.7820431 Eh     change       -0.3740704E-02 Eh
 * total energy  :  -118.7835570 Eh     change       -0.1513929E-02 Eh
 * total energy  :  -118.7846253 Eh     change       -0.1068322E-02 Eh
 * total energy  :  -118.7853846 Eh     change       -0.7592577E-03 Eh
 * total energy  :  -118.7859011 Eh     change       -0.5165736E-03 Eh
 * total energy  :  -118.7862357 Eh     change       -0.3345780E-03 Eh
 * total energy  :  -118.7864297 Eh     change       -0.1939878E-03 Eh
 * total energy  :  -118.7865541 Eh     change       -0.1244323E-03 Eh
 * total energy  :  -118.7886777 Eh     change       -0.5903036E-06 Eh
 * total energy  :  -118.7886783 Eh     change       -0.6001301E-06 Eh
 * total energy  :  -118.7886788 Eh     change       -0.5114101E-06 Eh
 * total energy  :  -118.7886794 Eh     change       -0.5943266E-06 Eh
 * total energy  :  -118.7886802 Eh     change       -0.7926476E-06 Eh
 * total energy  :  -118.7886809 Eh     change       -0.7394068E-06 Eh
 * total energy  :  -118.7886813 Eh     change       -0.3741099E-06 Eh
 * total energy  :  -118.7886815 Eh     change       -0.1987896E-06 Eh
 * total energy  :  -118.7886816 Eh     change       -0.9164299E-07 Eh
   *** GEOMETRY OPTIMIZATION CONVERGED AFTER 62 ITERATIONS ***

 final structure:
================
72
 xtb: 6.7.1 (edcfbbe)
C            9.17550494776914       -3.46618274764544       -0.87161939246621
C            7.79702094425380       -3.49460812309698       -0.92290472863234
C            7.06085997635014       -2.35385961441555       -0.63993214484570
C            7.69282167598275       -1.16747746781395       -0.28974806371475
C            9.09388632240188       -1.14075040324145       -0.27339265573182
C            9.82285758672072       -2.28099324642506       -0.55419605967627
O            9.80608881817689        0.00049660365603        0.00040726891538
C            9.09347714352727        1.14154683027452        0.27395718932088
C            9.82203068678515        2.28203501452825        0.55485289069823
C            9.17424083240491        3.46704332128024        0.87206490001381
C            7.79573814280859        3.49503983879903        0.92305800792059
C            7.05999659288561        2.35404299226169        0.63999384828854
C            7.69240316428100        1.16784012688273        0.28999692265232
N            6.98251668070708        0.00006243580894        0.00009242297245
C            5.57218860905444       -0.00011196364255       -0.00002233003687
C            4.86992124327169       -0.78340589275709        0.91179596338443
C            3.49018918735044       -0.78288525749145        0.90971794662979
C            2.77928743322275       -0.00051822057480       -0.00030542958071
C            1.31841799531753       -0.00060209352090       -0.00038166417770
C            0.56027729148482        0.07561986768986       -1.17305985229500
N           -0.75415525919790        0.08299657871622       -1.17599952301988
C           -1.37931225084334       -0.00100782224945       -0.00036244135440
C           -2.83858606838987       -0.00074935036175       -0.00029157458887
C           -3.54344440186546        0.08825676471839       -1.20126246922704
C           -4.92179487932684        0.08851786792864       -1.20176654116839
C           -5.62261277123868       -0.00017405376013       -0.00005676423650
N           -7.03206299968208        0.00012478520572        0.00013562696992
C           -7.74274607148944        1.10433683651436       -0.47732816314342
C           -7.11086787784980        2.26206708093640       -0.91390898585192
C           -7.84713515464416        3.34144799322759       -1.37827796885550
C           -9.22577343582129        3.28745749396892       -1.40350239131665
C           -9.87303445742562        2.15162182993953       -0.93990963294491
C           -9.14382956426468        1.07372343423448       -0.47374171187033
O           -9.85655338226121        0.00059482397947        0.00029382053693
C           -9.14413033383156       -1.07280109276128        0.47417705137967
C           -9.87364437262053       -2.15049776129315        0.94032861714152
C           -9.22671305205010       -3.28657710037500        1.40378807999849
C           -7.84809706461847       -3.34103966346379        1.37836947081918
C           -7.11152072149793       -2.26187642917521        0.91397609691323
C           -7.74305775577713       -1.10387733115733        0.47761934033659
C           -4.92162237733151       -0.08899730845824        1.20153844268622
C           -3.54328168626543       -0.08949836367937        1.20078831712364
N           -0.75413441759696       -0.08467414087613        1.17526469090091
C            0.56028772950277       -0.07681803223095        1.17230586329390
C            3.49014429337704        0.78199454312475       -0.91022593620507
C            4.86987430181687        0.78292685683374       -0.91201610721856
H            9.75276724729742       -4.35156821989923       -1.08614209352062
H            7.27854140737425       -4.40351162538195       -1.18696059679952
H            5.98423772689405       -2.38635679250866       -0.70031263585194
H           10.89890921531623       -2.21876599126677       -0.52421900659694
H           10.89810750803404        2.22014058803832        0.52512206932630
H            9.75117978888258        4.35262309933561        1.08665639550689
H            7.27691833586061        4.40379777824479        1.18694926167602
H            5.98335120431875        2.38620652642930        0.70014593047968
H            5.41419852344326       -1.38912687324508        1.62125398107280
H            2.95619649560943       -1.40626681459152        1.61138899658167
H            1.03332858939559        0.11358645707598       -2.14711109138673
H           -2.98975130408241        0.14864734726728       -2.12475286518734
H           -5.46991205962639        0.14932276353113       -2.13057372880145
H           -6.03450909320124        2.32506849533602       -0.88329770687957
H           -7.32876753930997        4.22568230589472       -1.71597888147342
H           -9.80303937079588        4.12235300385766       -1.76814506138890
H          -10.94910734032259        2.08388813546187       -0.92594312265906
H          -10.94969579490153       -2.08239236665457        0.92650753711266
H           -9.80421932834994       -4.12131921489972        1.76839882765583
H           -7.32999355136413       -4.22548823531876        1.71591299501357
H           -6.03518659856047       -2.32525068426640        0.88320351178878
H           -5.46960572137639       -0.14961060916163        2.13044183989691
H           -2.98945823917064       -0.15011897866154        2.12418605640224
H            1.03336067774945       -0.11531882069766        2.14638144497244
H            2.95611417776392        1.40522212413909       -1.61200725315424
H            5.41411379957223        1.38875116189441       -1.62141305052733

          :  Hamiltonian                  GFN2-xTB          :
         :: gradient norm              0.000113802503 Eh/a0 ::
         :: HOMO-LUMO gap              1.474235400950 eV    ::
         :: SCC energy              -120.845115311519 Eh    ::
         :: -> dispersion             -0.097303198934 Eh    ::
         :: repulsion energy           2.056433704302 Eh    ::

    * Orbital Energies and Occupations

         #    Occupation            Energy/Eh            Energy/eV
      -------------------------------------------------------------
         1        2.0000           -0.7274087             -19.7938
       ...           ...                  ...                  ...
        97        2.0000           -0.4196613             -11.4196
        98        2.0000           -0.4164777             -11.3329
        99        2.0000           -0.4156541             -11.3105
       100        2.0000           -0.4134563             -11.2507
       101        2.0000           -0.4126730             -11.2294
       102        2.0000           -0.4102101             -11.1624
       103        2.0000           -0.4084430             -11.1143
       104        2.0000           -0.4005695             -10.9000
       105        2.0000           -0.3900102             -10.6127
       106        2.0000           -0.3875062             -10.5446
       107        2.0000           -0.3672867              -9.9944
       108        2.0000           -0.3430779              -9.3356
       109        2.0000           -0.3407324              -9.2718 (HOMO)
       110                         -0.2865551              -7.7976 (LUMO)
       111                         -0.2674440              -7.2775
       112                         -0.2461817              -6.6989
       113                         -0.2428357              -6.6079
       114                         -0.2380582              -6.4779
       115                         -0.2362785              -6.4295
       116                         -0.2344575              -6.3799
       117                         -0.2294568              -6.2438
       118                         -0.2270535              -6.1784
       119                         -0.2163427              -5.8870
       120                         -0.2131899              -5.8012
       ...                                ...                  ...
       210                          0.6773958              18.4329
      -------------------------------------------------------------
                  HL-Gap            0.0541773 Eh            1.4742 eV

     #   Z          covCN         q      C6AA      α(0)
     1   6 C        2.919    -0.040    29.003     8.831
     2   6 C        2.919    -0.039    28.966     8.826
     3   6 C        2.924    -0.060    29.501     8.907
     4   6 C        2.922     0.042    27.049     8.529
     5   6 C        2.884     0.125    25.266     8.241
     6   6 C        2.920    -0.056    29.398     8.891
     7   8 O        1.709    -0.255    18.232     5.765
     8   6 C        2.884     0.125    25.266     8.241
     9   6 C        2.920    -0.056    29.398     8.891
    10   6 C        2.919    -0.040    29.003     8.831
    11   6 C        2.919    -0.039    28.966     8.826
    12   6 C        2.924    -0.060    29.501     8.907
    13   6 C        2.922     0.042    27.049     8.529
    14   7 N        2.751    -0.072    22.633     7.066
    15   6 C        2.921     0.066    26.512     8.444
    16   6 C        2.920    -0.040    28.989     8.829
    17   6 C        2.924    -0.033    28.831     8.805
    18   6 C        2.974     0.005    27.917     8.667
    19   6 C        2.965    -0.015    28.380     8.738
    20   6 C        2.926     0.075    26.323     8.414
    21   7 N        1.839    -0.249    27.337     7.748
    22   6 C        2.963     0.178    24.192     8.068
    23   6 C        2.983    -0.001    28.044     8.687
    24   6 C        2.923    -0.027    28.678     8.782
    25   6 C        2.920    -0.040    29.000     8.831
    26   6 C        2.921     0.069    26.459     8.435
    27   7 N        2.751    -0.069    22.571     7.056
    28   6 C        2.922     0.042    27.049     8.529
    29   6 C        2.924    -0.060    29.492     8.906
    30   6 C        2.919    -0.039    28.961     8.825
    31   6 C        2.919    -0.040    29.002     8.831
    32   6 C        2.920    -0.056    29.400     8.892
    33   6 C        2.884     0.125    25.263     8.240
    34   8 O        1.709    -0.255    18.227     5.764
    35   6 C        2.884     0.125    25.263     8.240
    36   6 C        2.920    -0.056    29.400     8.892
    37   6 C        2.919    -0.040    29.002     8.831
    38   6 C        2.919    -0.039    28.961     8.825
    39   6 C        2.924    -0.060    29.492     8.906
    40   6 C        2.922     0.042    27.049     8.529
    41   6 C        2.920    -0.040    29.000     8.831
    42   6 C        2.923    -0.027    28.678     8.782
    43   7 N        1.839    -0.249    27.337     7.748
    44   6 C        2.926     0.075    26.323     8.414
    45   6 C        2.924    -0.033    28.831     8.805
    46   6 C        2.920    -0.040    28.989     8.829
    47   1 H        0.926     0.038     2.477     2.461
    48   1 H        0.926     0.035     2.511     2.478
    49   1 H        0.926     0.033     2.542     2.493
    50   1 H        0.926     0.050     2.316     2.380
    51   1 H        0.926     0.050     2.316     2.380
    52   1 H        0.926     0.038     2.477     2.461
    53   1 H        0.926     0.035     2.511     2.478
    54   1 H        0.926     0.033     2.542     2.493
    55   1 H        0.926     0.044     2.399     2.422
    56   1 H        0.926     0.039     2.462     2.454
    57   1 H        0.925     0.039     2.459     2.452
    58   1 H        0.926     0.063     2.166     2.301
    59   1 H        0.926     0.045     2.380     2.413
    60   1 H        0.926     0.036     2.505     2.475
    61   1 H        0.926     0.036     2.506     2.475
    62   1 H        0.926     0.038     2.480     2.463
    63   1 H        0.926     0.050     2.319     2.381
    64   1 H        0.926     0.050     2.319     2.381
    65   1 H        0.926     0.038     2.480     2.463
    66   1 H        0.926     0.036     2.506     2.475
    67   1 H        0.926     0.036     2.505     2.475
    68   1 H        0.926     0.045     2.380     2.413
    69   1 H        0.926     0.063     2.166     2.301
    70   1 H        0.925     0.039     2.459     2.452
    71   1 H        0.926     0.039     2.462     2.454
    72   1 H        0.926     0.044     2.399     2.422

molecular dipole:
                 x           y           z       tot (Debye)
 q only:        0.031      -0.000      -0.000
   full:        0.489      -0.000      -0.000       1.243

 projected vibrational frequencies (cm⁻¹)
eigval :       -0.00    -0.00    -0.00     0.00     0.00     0.00
eigval :        7.81     8.19    14.53    23.24    25.79    38.80
eigval :       41.16    46.37    52.62    61.90    66.02    83.63
eigval :       87.51   104.98   117.37   118.81   119.09   159.97
eigval :      177.51   190.23   203.02   238.24   240.06   249.84
eigval :      253.53   270.04   273.38   282.13   296.01   343.47
eigval :      355.33   363.95   367.76   375.41   378.83   390.64
eigval :      394.73   405.20   410.37   420.15   429.78   430.70
eigval :      432.83   440.33   449.07   454.06   471.74   478.68
eigval :      506.43   510.14   510.37   521.67   522.68   527.20
eigval :      555.06   561.45   576.09   587.93   590.31   603.26
eigval :      608.42   610.57   632.10   638.35   659.01   660.44
eigval :      661.20   661.70   666.14   688.78   689.42   692.81
eigval :      727.21   756.92   778.68   778.87   779.01   779.37
eigval :      787.66   803.51   814.27   816.73   828.28   855.00
eigval :      855.25   863.18   863.98   864.90   866.21   872.93
eigval :      875.21   878.79   896.55   897.17   897.67   898.16
eigval :      913.31   914.16   914.21   914.63   914.95   916.69
eigval :      917.71   919.52   924.28   924.67   929.21   932.93
eigval :      935.10   998.98  1008.87  1029.59  1084.33  1090.42
eigval :     1090.45  1091.48  1091.61  1107.03  1108.23  1108.31
eigval :     1121.50  1122.18  1122.57  1136.28  1171.31  1171.68
eigval :     1175.70  1175.77  1177.30  1184.06  1188.18  1195.32
eigval :     1201.44  1201.81  1207.12  1222.39  1225.25  1242.90
eigval :     1243.40  1252.58  1256.42  1262.22  1262.54  1268.71
eigval :     1280.96  1303.54  1309.86  1310.84  1311.49  1315.43
eigval :     1320.03  1339.63  1339.90  1340.24  1356.09  1360.07
eigval :     1376.36  1403.12  1412.39  1415.89  1424.33  1425.14
eigval :     1443.14  1443.48  1479.65  1488.29  1489.64  1491.58
eigval :     1505.67  1507.62  1511.28  1556.76  1556.82  1561.51
eigval :     1567.56  1567.62  1580.64  1581.07  1587.30  1589.98
eigval :     1591.71  1595.92  1603.48  1604.14  3036.50  3039.94
eigval :     3082.45  3083.90  3085.60  3086.71  3088.46  3088.58
eigval :     3088.80  3088.92  3093.98  3094.97  3098.46  3098.55
eigval :     3098.82  3098.95  3104.95  3105.56  3106.39  3106.94
eigval :     3110.50  3111.00  3112.52  3112.87  3113.09  3113.42

   temp. (K)  partition function   enthalpy   heat capacity  entropy
                                   cal/mol     cal/K/mol   cal/K/mol   J/K/mol
 298.15  VIB  0.452E+17            20661.801    131.460    128.881
         ROT  0.575E+08              888.752      2.981     38.486
         INT  0.260E+25            21550.553    134.441    167.368
         TR   0.140E+29             1481.254      4.968     45.012
         TOT                       23031.8071   139.4093   212.3794   888.5955

       T/K    H(0)-H(T)+PV         H(T)/Eh          T*S/Eh         G(T)/Eh
   ------------------------------------------------------------------------
    298.15    0.367035E-01    0.577523E+00    0.100908E+00    0.476614E+00
   ------------------------------------------------------------------------

         :::::::::::::::::::::::::::::::::::::::::::::::::::::
         ::                  THERMODYNAMIC                  ::
         :::::::::::::::::::::::::::::::::::::::::::::::::::::
         :: total free energy        -118.312067221161 Eh   ::
         ::.................................................::
         :: total energy             -118.788681607237 Eh   ::
         :: zero point energy           0.540819182620 Eh   ::
         :: G(RRHO) w/o ZPVE           -0.064204796545 Eh   ::
         :: G(RRHO) contrib.            0.476614386076 Eh   ::
         :::::::::::::::::::::::::::::::::::::::::::::::::::::

           -------------------------------------------------
          | TOTAL ENERGY             -118.788681607237 Eh   |
          | TOTAL ENTHALPY           -118.211158903799 Eh   |
          | TOTAL FREE ENERGY        -118.312067221161 Eh   |
          | GRADIENT NORM               0.000113759076 Eh/α |
          | HOMO-LUMO GAP               1.474239254583 eV   |
           -------------------------------------------------

 * finished run on 2025/09/04 at 22:10:51.448
