   * xtb version 6.7.1 (edcfbbe) compiled by 'albert@albert-system' on 2024-07-22

   ID    Z sym.   atoms
    1    6 C      1-6, 8-13, 15-20, 22-26, 28-33, 35-42, 44-46
    2    8 O      7, 34
    3    7 N      14, 21, 27, 43
    4    1 H      47-72

          program call               : xtb data2507/gas/PxPYM/PxPYM_gas_S0_finalOpt.xtbopt.xyz --gfn 2 --spinpol --tblite --uhf 2 --ohess vtight --parallel 40 --molden --ceasefiles --namespace data2507/gas/PxPYM/PxPYM_gas_T1_preOpt
 * total energy  :  -118.7146610 Eh     change        0.9188469E-08 Eh
 * total energy  :  -118.7192614 Eh     change       -0.4600388E-02 Eh
 * total energy  :  -118.7208714 Eh     change       -0.1610009E-02 Eh
 * total energy  :  -118.7210056 Eh     change       -0.1342320E-03 Eh
 * total energy  :  -118.7211665 Eh     change       -0.1609233E-03 Eh
 * total energy  :  -118.7212272 Eh     change       -0.6063089E-04 Eh
 * total energy  :  -118.7212981 Eh     change       -0.7097469E-04 Eh
 * total energy  :  -118.7213289 Eh     change       -0.3072309E-04 Eh
 * total energy  :  -118.7213484 Eh     change       -0.1958253E-04 Eh
 * total energy  :  -118.7213661 Eh     change       -0.1766207E-04 Eh
 * total energy  :  -118.7224707 Eh     change       -0.7191277E-06 Eh
 * total energy  :  -118.7224714 Eh     change       -0.7175132E-06 Eh
 * total energy  :  -118.7224721 Eh     change       -0.7097963E-06 Eh
 * total energy  :  -118.7224728 Eh     change       -0.7068526E-06 Eh
 * total energy  :  -118.7224735 Eh     change       -0.7050656E-06 Eh
 * total energy  :  -118.7224742 Eh     change       -0.6975090E-06 Eh
 * total energy  :  -118.7224749 Eh     change       -0.6946302E-06 Eh
 * total energy  :  -118.7224756 Eh     change       -0.6931012E-06 Eh
 * total energy  :  -118.7224756 Eh     change       -0.2580845E-07 Eh
   *** GEOMETRY OPTIMIZATION CONVERGED AFTER 380 ITERATIONS ***

 final structure:
================
72
 xtb: 6.7.1 (edcfbbe)
C            9.22737353374395        2.26588454171247        2.76356301587543
C            7.84590240575790        2.25533047422016        2.81880853847645
C            7.11276951933628        1.50616345831118        1.91455396978394
C            7.75071324942258        0.75830623764262        0.92893813299664
C            9.15474491628693        0.75227442293887        0.90120171263710
C            9.88073135499953        1.50487703040649        1.80678202982765
O            9.86483705260116        0.00221133108886        0.00128359593088
C            9.15518347573679       -0.74812621580204       -0.89875156257065
C            9.88160951528987       -1.50044351032004       -1.80421640013215
C            9.22870281288962       -2.26170278892102       -2.76110507974341
C            7.84723659176620       -2.25168651509290       -2.81657430343522
C            7.11366569109656       -1.50280847693195       -1.91243566647931
C            7.75115884024185       -0.75470630840561       -0.92671413400009
N            7.04600521247415        0.00166048508086        0.00105635769422
C            5.62911857467899        0.00136456125716        0.00095573360424
C            4.92325492280869        1.16695004006358       -0.29833035110676
C            3.54975339587758        1.16658740286823       -0.29667272799005
C            2.81493217698863        0.00077361377015        0.00076343503548
C            1.38325768625246        0.00047282339973        0.00066846219487
C            0.58354512253628       -1.16289448032691       -0.17550536157224
N           -0.70688185362504       -1.15396559211000       -0.18409367774880
C           -1.39872713051291       -0.00011327661836        0.00048800750940
C           -2.81501575029639       -0.00041176239824        0.00039451905834
C           -3.53987695706240       -1.19176652366747       -0.21892414350736
C           -4.91057716173220       -1.18937641754818       -0.22217915592599
C           -5.61315380209652       -0.00100025929759        0.00020011176132
N           -7.03108407069895       -0.00129659878882        0.00009511918198
C           -7.73496483064921        0.67120773546380       -0.98811903194584
C           -7.09473848887341        1.33546194631467       -2.03173454269841
C           -7.82725799517916        2.00434092598760       -2.99627197388308
C           -9.20977823276660        2.01738185730758       -2.94477444222776
C           -9.86503030098717        1.34032731558655       -1.92849430538390
C           -9.13977579892715        0.66757609127247       -0.96101200196790
O           -9.84896955323442       -0.00188331634080       -0.00011596751395
C           -9.13964092306986       -0.67104954966897        0.96088473536853
C           -9.86476014211116       -1.34410494298141        1.92825684951367
C           -9.20937842210804       -2.02088897796157        2.94463356597977
C           -7.82687145158389       -2.00727258718757        2.99633817266237
C           -7.09448599629982       -1.33808648379118        2.03191193788068
C           -7.73483258349851       -0.67409632051766        0.98820219896128
C           -4.91110784177114        1.18767077816485        0.22267963415593
C           -3.54040834590308        1.19063746424268        0.21961555574984
N           -0.70739201827692        1.15403053385234        0.18515890440105
C            0.58303224251295        1.16350317556283        0.17673778437277
C            3.55020221935388       -1.16473203861888        0.29829808914341
C            4.92370326597202       -1.16451775987514        0.30014331422590
H            9.80012486668410        2.85255229568944        3.46413112504008
H            7.32722844366423        2.82990076387390        3.57056627469754
H            6.03612705772027        1.49281546611922        1.97318048219988
H           10.95699282656900        1.47695974153194        1.74804382116924
H           10.95785050776098       -1.47210814841528       -1.74530340209060
H            9.80179590321277       -2.84814615342811       -3.46158157361556
H            7.32890821821250       -2.82645607701509       -3.56841805857595
H            6.03702750021109       -1.48987984564085       -1.97123541723936
H            5.46863701199082        2.06725819547906       -0.54377842524945
H            3.02620654708860        2.07392099290762       -0.55637433858131
H            1.04758477457876       -2.12390944565952       -0.36001128024600
H           -2.98688101291375       -2.10133905408325       -0.39414812916601
H           -5.46317851500145       -2.10059026135278       -0.40365490106940
H           -6.01791690867404        1.31872767414019       -2.08366165752233
H           -7.30866210687796        2.51507589488627       -3.79275254129591
H           -9.78140401421650        2.54204527589282       -3.69380537909792
H          -10.94140359247963        1.31733524180302       -1.86950462405668
H          -10.94113407434191       -1.32156071468828        1.86910609803883
H           -9.78089793063997       -2.54579212305579        3.69357764504546
H           -7.30818237036960       -2.51779401903499        3.79289495802761
H           -6.01767922125450       -1.32090417880189        2.08399998280944
H           -5.46411774652740        2.09865205427575        0.40407845901819
H           -2.98781939220274        2.10044239672322        0.39491695835966
H            1.04664311718791        2.12471369918301        0.36130298766592
H            3.02700115016937       -2.07228562242348        0.55792766870470
H            5.46943004386218       -2.06459708404105        0.54566453730847

 projected vibrational frequencies (cm⁻¹)
eigval :       -0.00    -0.00     0.00     0.00     0.00     0.00
eigval :        7.92     8.65    15.68    24.37    29.11    39.75
eigval :       41.69    47.10    55.14    66.93    70.48    86.14
eigval :       95.23   100.75   115.66   116.50   122.51   149.56
eigval :      176.93   192.83   207.80   233.89   238.08   247.61
eigval :      250.45   270.51   275.49   281.67   296.55   349.17
eigval :      352.32   364.99   373.31   376.75   379.96   391.58
eigval :      394.50   404.96   406.71   415.45   426.46   430.98
eigval :      431.34   435.61   446.31   459.44   470.49   473.47
eigval :      480.73   496.68   503.80   505.21   525.40   526.89
eigval :      543.06   545.47   562.34   584.56   585.47   601.56
eigval :      603.76   607.23   618.67   627.20   648.37   661.85
eigval :      664.58   666.28   666.58   667.40   668.57   673.33
eigval :      681.85   717.19   760.97   777.59   777.71   778.47
eigval :      778.79   795.11   800.66   801.46   804.08   817.14
eigval :      833.01   847.35   850.17   855.45   855.46   865.55
eigval :      866.02   866.30   866.66   897.93   898.51   898.61
eigval :      898.77   903.79   904.21   906.42   910.43   913.72
eigval :      914.75   915.64   915.80   917.43   917.76   918.49
eigval :      920.24   946.66   993.92  1000.52  1051.74  1071.90
eigval :     1085.94  1087.20  1087.41  1088.39  1096.82  1110.89
eigval :     1111.66  1120.71  1122.10  1127.36  1145.08  1165.33
eigval :     1170.12  1174.52  1174.54  1174.97  1182.39  1188.82
eigval :     1191.99  1197.53  1205.12  1206.14  1219.31  1227.96
eigval :     1238.53  1239.74  1254.49  1256.19  1257.79  1263.45
eigval :     1273.92  1281.80  1302.42  1309.23  1314.65  1315.27
eigval :     1318.27  1319.36  1332.56  1334.85  1345.34  1349.96
eigval :     1377.22  1388.03  1416.21  1418.22  1422.73  1424.66
eigval :     1441.63  1442.71  1455.48  1457.80  1462.62  1472.07
eigval :     1481.74  1483.47  1491.46  1495.75  1503.43  1558.65
eigval :     1559.21  1560.68  1566.99  1569.83  1574.74  1579.29
eigval :     1581.97  1586.10  1591.41  1601.30  3029.89  3033.31
eigval :     3070.33  3071.79  3072.73  3074.21  3092.26  3092.36
eigval :     3092.75  3093.14  3093.21  3094.30  3099.46  3100.37
eigval :     3101.84  3101.98  3102.30  3102.47  3110.92  3111.16
eigval :     3112.51  3112.92  3113.68  3114.09  3114.41  3114.59

   temp. (K)  partition function   enthalpy   heat capacity  entropy
                                   cal/mol     cal/K/mol   cal/K/mol   J/K/mol
 298.15  VIB  0.304E+17            20824.852    133.347    129.377
         ROT  0.577E+08              888.752      2.981     38.495
         INT  0.176E+25            21713.604    136.328    167.873
         TR   0.140E+29             1481.254      4.968     45.012
         TOT                       23194.8583   141.2957   212.8843   890.7081

       T/K    H(0)-H(T)+PV         H(T)/Eh          T*S/Eh         G(T)/Eh
   ------------------------------------------------------------------------
    298.15    0.369634E-01    0.574284E+00    0.101148E+00    0.473136E+00
   ------------------------------------------------------------------------

         :::::::::::::::::::::::::::::::::::::::::::::::::::::
         ::                  THERMODYNAMIC                  ::
         :::::::::::::::::::::::::::::::::::::::::::::::::::::
         :: total free energy        -118.249339774312 Eh   ::
         ::.................................................::
         :: total energy             -118.722475600862 Eh   ::
         :: zero point energy           0.537320687830 Eh   ::
         :: G(RRHO) w/o ZPVE           -0.064184861280 Eh   ::
         :: G(RRHO) contrib.            0.473135826550 Eh   ::
         :::::::::::::::::::::::::::::::::::::::::::::::::::::

           -------------------------------------------------
          | TOTAL ENERGY             -118.722475600862 Eh   |
          | TOTAL ENTHALPY           -118.148191553561 Eh   |
          | TOTAL FREE ENERGY        -118.249339774312 Eh   |
          | GRADIENT NORM               0.000074548533 Eh/α |
           -------------------------------------------------

 * finished run on 2025/09/04 at 22:14:49.338
