   * xtb version 6.7.1 (edcfbbe) compiled by 'albert@albert-system' on 2024-07-22

   ID    Z sym.   atoms
    1    6 C      1-6, 8-13, 15-20, 22-26, 28-33, 35-42, 44-46
    2    8 O      7, 34
    3    7 N      14, 21, 27, 43
    4    1 H      47-72

          program call               : xtb data2507/gas/PxPYM/PxPYM_gas_T1_crest.xyz --gfn 2 --spinpol --tblite --uhf 2 --ohess vtight --parallel 40 --molden --ceasefiles --namespace data2507/gas/PxPYM/PxPYM_gas_T1_finalOpt
 * total energy  :  -118.7229824 Eh     change       -0.1397119E-07 Eh
 * total energy  :  -118.7230003 Eh     change       -0.1795043E-04 Eh
 * total energy  :  -118.7230088 Eh     change       -0.8430155E-05 Eh
 * total energy  :  -118.7230100 Eh     change       -0.1177602E-05 Eh
 * total energy  :  -118.7230113 Eh     change       -0.1324213E-05 Eh
 * total energy  :  -118.7230118 Eh     change       -0.5239874E-06 Eh
 * total energy  :  -118.7230130 Eh     change       -0.1196486E-05 Eh
 * total energy  :  -118.7230140 Eh     change       -0.1035085E-05 Eh
 * total energy  :  -118.7230153 Eh     change       -0.1267261E-05 Eh
 * total energy  :  -118.7230163 Eh     change       -0.1027603E-05 Eh
 * total energy  :  -118.7230169 Eh     change       -0.5980891E-06 Eh
 * total energy  :  -118.7230173 Eh     change       -0.3390121E-06 Eh
 * total energy  :  -118.7230176 Eh     change       -0.3106323E-06 Eh
 * total energy  :  -118.7230179 Eh     change       -0.3304179E-06 Eh
 * total energy  :  -118.7230183 Eh     change       -0.3772190E-06 Eh
 * total energy  :  -118.7230185 Eh     change       -0.2293485E-06 Eh
 * total energy  :  -118.7230186 Eh     change       -0.7567540E-07 Eh
   *** GEOMETRY OPTIMIZATION CONVERGED AFTER 17 ITERATIONS ***

 final structure:
================
72
 xtb: 6.7.1 (edcfbbe)
C            9.18001876923904        3.55539932968100       -0.61408229270926
C            7.79790074870037        3.56740257796226       -0.64948907926440
C            7.08059578652571        2.39985789567216       -0.45268669923329
C            7.73597590319664        1.19660131474050       -0.20741955923172
C            9.14015588579653        1.19064509163189       -0.20064647372849
C            9.85014267492886        2.36157829212899       -0.39660667617718
O            9.86532020002242        0.04289148831210       -0.01728367458506
C            9.17086167384356       -1.12227994590534        0.17486386301264
C            9.91167044947226       -2.27502875240269        0.36433138410194
C            9.27362816076081       -3.48479092435616        0.59007813063204
C            7.89267376249444       -3.53101694555208        0.64011289398332
C            7.14460213294393       -2.38185838921084        0.44972030843319
C            7.76741037060916       -1.16305863866664        0.19654998526997
N            7.04703477755245        0.00787888362582       -0.00223059798854
C            5.63129356330288       -0.00933908771433        0.00416605219832
C            4.92764750226469       -0.67774019196394       -0.99870304452777
C            3.55507415939467       -0.69168473484783       -0.99314862339231
C            2.81352720665391       -0.03625186296748        0.01263640805051
C            1.38373431404625       -0.04497400189287        0.01435505859778
C            0.58068452455760        0.23960928114716        1.15482840534696
N           -0.70927646549857        0.23484969539796        1.14724402064327
C           -1.40054671649305       -0.04708368727576        0.01378517623362
C           -2.81782847321524       -0.04047162603790        0.01155313097359
C           -3.54222934089745        0.27397568785575        1.18092056836142
C           -4.91335760947747        0.28495492662039        1.17554844897452
C           -5.61387941332977       -0.01763509983063        0.00480007185631
N           -7.03307146599272       -0.00150618714653        0.00061719285471
C           -7.74953930450974       -1.18274942724242       -0.11469226402136
C           -7.12114020848040       -2.42262999381811       -0.19869042862946
C           -7.86595580370918       -3.58288599402654       -0.31575396192751
C           -9.24813288926427       -3.52978135706573       -0.34458807606582
C           -9.89117057827933       -2.30616578513731       -0.24245617903857
C           -9.15390505641598       -1.14144449026869       -0.12392001020485
O           -9.84961852562688        0.03233312406026       -0.00654950647228
C           -9.12658428776173        1.18924854510892        0.11299146147138
C           -9.83628877228774        2.37148620684809        0.22640650167751
C           -9.16462974116674        3.57945908499719        0.33044980806577
C           -7.78145604600654        3.59933862382765        0.30860085149630
C           -7.06413225999661        2.42140196124552        0.19666638758767
C           -7.72162739172073        1.19680562898010        0.11094022249311
C           -4.91284281694075       -0.33362492922920       -1.16205552009333
C           -3.54167291717342       -0.34538214056102       -1.16067438272294
N           -0.70833401077554       -0.33304891907963       -1.11822947840230
C            0.58162709645050       -0.33623420070246       -1.12509077635481
C            3.54846933163215        0.63097207827593        1.01552085790752
C            4.92102279170702        0.64349199022078        1.01263057064055
H            9.74050706860622        4.46452104383305       -0.76372686538307
H            7.26645384922861        4.48806996452787       -0.83443523987232
H            6.00316133920944        2.41470824618378       -0.49501738760096
H           10.92724455091729        2.31547726148929       -0.37963888333816
H           10.98705910003734       -2.20230917586053        0.33581998382910
H            9.85804072349087       -4.37954076962532        0.73473315882795
H            7.38626084131423       -4.46435509438216        0.83166515922150
H            6.06834216000401       -2.42314138209375        0.50330397221251
H            5.47599240206049       -1.18162410770219       -1.78198118486316
H            3.03614684701790       -1.22595652992662       -1.77411499680678
H            1.04240288466385        0.43508208080809        2.11488359579890
H           -2.98965917751457        0.49953143827834        2.07959388977300
H           -5.46718459285218        0.52091809426463        2.07338268811591
H           -6.04427078953033       -2.46868818666606       -0.16636596949597
H           -7.35749333577300       -4.53224608212619       -0.38183187190892
H           -9.82940213732430       -4.43336190795720       -0.43831296926935
H          -10.96690776423289       -2.23302449278169       -0.24879203402240
H          -10.91348735466986        2.32419057641289        0.22732391652816
H           -9.72449316367632        4.49685882436429        0.42014690528313
H           -7.25062635483523        4.53627100973849        0.37614950069202
H           -5.98633501122321        2.44174861642008        0.16977859262165
H           -5.46603550757076       -0.56036288420629       -2.06265500358815
H           -2.98854498603490       -0.58007662922208       -2.05665825235670
H            1.04399382988290       -0.53560992750759       -2.08401536455259
H            3.02414144960915        1.15466046280725        1.80003441545323
H            5.46437305362010        1.15757060099140        1.79275640500950

 projected vibrational frequencies (cm⁻¹)
eigval :       -0.00    -0.00    -0.00     0.00     0.00     0.00
eigval :        7.65     9.12    16.80    22.82    29.52    34.75
eigval :       42.33    47.62    54.86    61.74    68.50    85.18
eigval :       91.33   100.94   112.64   114.23   120.96   150.86
eigval :      174.80   190.50   206.76   232.00   238.83   247.32
eigval :      249.84   270.72   275.57   281.58   298.11   344.34
eigval :      353.44   367.47   375.53   377.77   379.05   391.71
eigval :      399.08   405.32   412.58   413.52   426.56   430.24
eigval :      430.66   436.37   445.90   458.72   469.57   473.81
eigval :      480.14   495.51   504.02   505.43   525.56   526.55
eigval :      543.16   546.30   562.81   584.83   585.64   602.05
eigval :      603.72   607.46   620.65   626.96   648.85   662.11
eigval :      664.59   665.76   666.14   666.83   668.24   673.27
eigval :      680.46   717.84   760.67   777.58   777.69   778.56
eigval :      778.60   792.75   800.45   800.61   804.29   813.46
eigval :      833.90   845.91   851.15   855.07   855.20   865.49
eigval :      865.75   865.79   865.88   897.74   897.94   898.40
eigval :      898.74   902.45   902.54   904.13   910.74   913.08
eigval :      914.10   915.82   915.89   916.76   917.13   917.20
eigval :      918.21   947.35   993.57   999.91  1050.51  1073.61
eigval :     1085.32  1086.85  1086.92  1088.20  1100.95  1110.99
eigval :     1111.42  1120.34  1121.88  1127.12  1146.66  1166.56
eigval :     1170.99  1174.50  1174.85  1175.01  1182.73  1188.43
eigval :     1189.82  1199.28  1204.99  1205.05  1220.75  1229.04
eigval :     1238.62  1239.79  1254.30  1255.80  1257.50  1263.17
eigval :     1278.42  1285.57  1303.54  1309.73  1314.56  1315.87
eigval :     1317.45  1320.83  1332.09  1334.12  1345.88  1350.21
eigval :     1372.75  1388.96  1417.71  1418.63  1423.04  1423.70
eigval :     1441.97  1443.06  1456.43  1457.80  1462.84  1473.93
eigval :     1480.95  1482.61  1492.17  1494.55  1504.09  1558.49
eigval :     1559.30  1560.88  1567.69  1569.98  1576.49  1580.02
eigval :     1581.76  1587.04  1592.13  1602.56  3028.35  3031.96
eigval :     3070.93  3072.41  3072.99  3074.59  3092.30  3092.47
eigval :     3092.53  3093.03  3093.12  3094.21  3099.83  3100.87
eigval :     3101.87  3101.98  3102.09  3102.25  3110.66  3110.88
eigval :     3111.68  3111.93  3114.14  3114.29  3114.29  3114.61

   temp. (K)  partition function   enthalpy   heat capacity  entropy
                                   cal/mol     cal/K/mol   cal/K/mol   J/K/mol
 298.15  VIB  0.393E+17            20854.819    133.183    129.673
         ROT  0.115E+09              888.752      2.981     39.872
         INT  0.453E+25            21743.571    136.164    169.545
         TR   0.140E+29             1481.254      4.968     45.012
         TOT                       23224.8250   141.1317   214.5564   897.7042

       T/K    H(0)-H(T)+PV         H(T)/Eh          T*S/Eh         G(T)/Eh
   ------------------------------------------------------------------------
    298.15    0.370111E-01    0.574287E+00    0.101943E+00    0.472344E+00
   ------------------------------------------------------------------------

         :::::::::::::::::::::::::::::::::::::::::::::::::::::
         ::                  THERMODYNAMIC                  ::
         :::::::::::::::::::::::::::::::::::::::::::::::::::::
         :: total free energy        -118.250674247139 Eh   ::
         ::.................................................::
         :: total energy             -118.723018578974 Eh   ::
         :: zero point energy           0.537275908755 Eh   ::
         :: G(RRHO) w/o ZPVE           -0.064931576920 Eh   ::
         :: G(RRHO) contrib.            0.472344331835 Eh   ::
         :::::::::::::::::::::::::::::::::::::::::::::::::::::

           -------------------------------------------------
          | TOTAL ENERGY             -118.723018578974 Eh   |
          | TOTAL ENTHALPY           -118.148731555757 Eh   |
          | TOTAL FREE ENERGY        -118.250674247139 Eh   |
          | GRADIENT NORM               0.000055341734 Eh/α |
           -------------------------------------------------

 * finished run on 2025/09/04 at 22:20:27.991
