   * xtb version 6.7.1 (edcfbbe) compiled by 'albert@albert-system' on 2024-07-22

   ID    Z sym.   atoms
    1    6 C      1-6, 8-13, 15-20, 22-26, 28-33, 35-42, 44-46
    2    8 O      7, 34
    3    7 N      14, 21, 27, 43
    4    1 H      47-72

          program call               : xtb data2507/gas/PxPYM/PxPYM_gas_S0_crest.xyz --gfn 2 --ohess vtight --parallel 40 --molden --ceasefiles --namespace data2507/gas/PxPYM/PxPYM_gas_S0_finalOpt
          :  Hamiltonian                  GFN2-xTB          :
 * total energy  :  -118.7887846 Eh     change       -0.2435442E-08 Eh
 * total energy  :  -118.7887855 Eh     change       -0.9375399E-06 Eh
 * total energy  :  -118.7887863 Eh     change       -0.8313158E-06 Eh
 * total energy  :  -118.7887881 Eh     change       -0.1735203E-05 Eh
 * total energy  :  -118.7887896 Eh     change       -0.1496565E-05 Eh
 * total energy  :  -118.7887913 Eh     change       -0.1728472E-05 Eh
 * total energy  :  -118.7887937 Eh     change       -0.2392141E-05 Eh
 * total energy  :  -118.7887955 Eh     change       -0.1813971E-05 Eh
 * total energy  :  -118.7887965 Eh     change       -0.9644608E-06 Eh
 * total energy  :  -118.7887974 Eh     change       -0.8871588E-06 Eh
 * total energy  :  -118.7887996 Eh     change       -0.3853627E-05 Eh
 * total energy  :  -118.7887999 Eh     change       -0.2992506E-06 Eh
 * total energy  :  -118.7888005 Eh     change       -0.5413371E-06 Eh
 * total energy  :  -118.7888008 Eh     change       -0.2883395E-06 Eh
 * total energy  :  -118.7888012 Eh     change       -0.4404486E-06 Eh
 * total energy  :  -118.7888018 Eh     change       -0.6055503E-06 Eh
 * total energy  :  -118.7888023 Eh     change       -0.4794808E-06 Eh
 * total energy  :  -118.7888026 Eh     change       -0.2807770E-06 Eh
 * total energy  :  -118.7888026 Eh     change       -0.6624333E-08 Eh
   *** GEOMETRY OPTIMIZATION CONVERGED AFTER 22 ITERATIONS ***

 final structure:
================
72
 xtb: 6.7.1 (edcfbbe)
C            9.21042546710545        2.80144455180240        2.22180463838406
C            7.83206545295767        2.80494332803127        2.28344875256911
C            7.09502353866148        1.88217496953700        1.55648515888705
C            7.72560461344979        0.94676213493230        0.74592324307420
C            9.12663817369912        0.92927297065845        0.71838527578880
C            9.85661024414433        1.85273290376320        1.44291251617894
O            9.83820386187180        0.00171918174254       -0.00112064410740
C            9.12503845245782       -0.92442900603445       -0.72082876154485
C            9.85328012452264       -1.84795211887520       -1.44701816689330
C            9.20526807075175       -2.79521672703732       -2.22615910094014
C            7.82684353278785       -2.79711763935708       -2.28652093177659
C            7.09154736498271       -1.87430762766404       -1.55786085735765
C            7.72398000624882       -0.94051197711974       -0.74686937494025
N            7.01427141163822        0.00299842810335        0.00046323767395
C            5.60462363860055        0.00222506542741        0.00241064134691
C            4.90046905820330        1.09833275798704       -0.48923445654130
C            3.52097841364473        1.09859588997612       -0.47966756624031
C            2.81192762846936       -0.00021611787190        0.00555965202412
C            1.35150093449604       -0.00151184884225        0.00661667843488
C            0.59474412165960       -1.13971277726982       -0.28840078659890
N           -0.71972607312704       -1.14515583681634       -0.28465204242252
C           -1.34536192384725       -0.00325379489474        0.00642184715951
C           -2.80451106279716       -0.00371174729310        0.00517353511314
C           -3.50878237104503       -1.14787488989099       -0.37158364379322
C           -4.88706540182759       -1.14782691401245       -0.37645435670695
C           -5.58905674546243       -0.00393813134967        0.00079796238575
N           -6.99805382988896       -0.00349648289436       -0.00204815807578
C           -7.70740111194267        0.87524249785264       -0.82544818498769
C           -7.07467925381016        1.73484901275875       -1.71494631009224
C           -7.80958756522391        2.59303080080768       -2.51877250731512
C           -9.18814542909396        2.59885331329403       -2.45723002612181
C           -9.83650871668081        1.72192109173188       -1.60029211893314
C           -9.10851218803958        0.86258326453816       -0.79862107296906
O           -9.82302293077194        0.00050286066707       -0.00474335765227
C           -9.11245084700762       -0.86271872963846        0.79143458103367
C           -9.84437947001604       -1.71918643633827        1.59258434231674
C           -9.20010928584275       -2.59706450717929        2.45164306384569
C           -7.82166379266772       -2.59500022090055        2.51586313730024
C           -7.08281745912034       -1.73965906689058        1.71262430486884
C           -7.71143713939796       -0.87920844592482        0.82104944856157
C           -4.88828185066754        1.13984854691782        0.38075936836984
C           -3.51003008916832        1.14023260839369        0.38018513192841
N           -0.72121171734676        1.13924844746865        0.29832149800669
C            0.59324325958738        1.13551350262379        0.30230769677020
C            3.52394268336347       -1.09774985131992        0.48932682490386
C            4.90343432926845       -1.09504075988163        0.49575699968076
H            9.78839909089285        3.52005300755288        2.78099925639477
H            7.31444592850915        3.52328624446113        2.90045414800379
H            6.01866845998441        1.88561687915851        1.62818269199252
H           10.93257389686944        1.80853568371479        1.38816487513900
H           10.92934479900575       -1.80502256729101       -1.39328616329410
H            9.78188759348070       -3.51395535300701       -2.78658093771784
H            7.30783693273368       -3.51420989945545       -2.90381554324819
H            6.01510845428442       -1.87648194488455       -1.62841720261360
H            5.44357887776054        1.94485727181945       -0.88273016340349
H            2.98466513004417        1.94620571175558       -0.87989781382868
H            1.06950655502043       -2.07654611723599       -0.55507959236245
H           -2.95457644035607       -2.02467736969708       -0.66682656211938
H           -5.43416163342323       -2.02859068225142       -0.67937139530801
H           -5.99854129610823        1.72878022791473       -1.78741834842165
H           -7.29015588291606        3.25368171827211       -3.19578240717554
H           -9.76434803879012        3.26818963004536       -3.07628434375871
H          -10.91260887875010        1.68436658558505       -1.54269195715158
H          -10.92025739356855       -1.67863356227474        1.53293100917489
H           -9.77937108989389       -3.26410611429443        3.07031376102289
H           -7.30538489559584       -3.25631292443663        3.19463242198090
H           -6.00681332453020       -1.73643742638150        1.78720753131692
H           -5.43648096206686        2.02045280468948        0.68205224233884
H           -2.95687708362396        2.01709654400953        0.67728050654077
H            1.06673936418358        2.07284266143736        0.56949671450622
H            2.99000990591030       -1.94633317943154        0.89067192026041
H            5.44894879956492       -1.94071146409311        0.88776645783486

          :  Hamiltonian                  GFN2-xTB          :
         :: gradient norm              0.000060466551 Eh/a0 ::
         :: HOMO-LUMO gap              1.494605676106 eV    ::
         :: SCC energy              -120.845288247348 Eh    ::
         :: -> dispersion             -0.097369822747 Eh    ::
         :: repulsion energy           2.056485672940 Eh    ::

    * Orbital Energies and Occupations

         #    Occupation            Energy/Eh            Energy/eV
      -------------------------------------------------------------
         1        2.0000           -0.7276073             -19.7992
       ...           ...                  ...                  ...
        97        2.0000           -0.4194785             -11.4146
        98        2.0000           -0.4161816             -11.3249
        99        2.0000           -0.4158134             -11.3149
       100        2.0000           -0.4135357             -11.2529
       101        2.0000           -0.4127566             -11.2317
       102        2.0000           -0.4101700             -11.1613
       103        2.0000           -0.4081962             -11.1076
       104        2.0000           -0.4005941             -10.9007
       105        2.0000           -0.3900354             -10.6134
       106        2.0000           -0.3874886             -10.5441
       107        2.0000           -0.3670243              -9.9872
       108        2.0000           -0.3433395              -9.3427
       109        2.0000           -0.3408458              -9.2749 (HOMO)
       110                         -0.2859200              -7.7803 (LUMO)
       111                         -0.2671643              -7.2699
       112                         -0.2459284              -6.6921
       113                         -0.2425406              -6.5999
       114                         -0.2382221              -6.4824
       115                         -0.2363143              -6.4304
       116                         -0.2342354              -6.3739
       117                         -0.2296039              -6.2478
       118                         -0.2271069              -6.1799
       119                         -0.2166774              -5.8961
       120                         -0.2132171              -5.8019
       ...                                ...                  ...
       210                          0.6773622              18.4320
      -------------------------------------------------------------
                  HL-Gap            0.0549258 Eh            1.4946 eV

     #   Z          covCN         q      C6AA      α(0)
     1   6 C        2.919    -0.040    29.001     8.831
     2   6 C        2.919    -0.039    28.966     8.826
     3   6 C        2.924    -0.060    29.499     8.907
     4   6 C        2.922     0.042    27.050     8.529
     5   6 C        2.884     0.125    25.265     8.240
     6   6 C        2.920    -0.056    29.397     8.891
     7   8 O        1.709    -0.255    18.230     5.765
     8   6 C        2.884     0.125    25.265     8.240
     9   6 C        2.920    -0.056    29.397     8.891
    10   6 C        2.919    -0.040    29.001     8.831
    11   6 C        2.919    -0.039    28.966     8.826
    12   6 C        2.924    -0.060    29.498     8.907
    13   6 C        2.922     0.042    27.050     8.529
    14   7 N        2.751    -0.071    22.624     7.064
    15   6 C        2.921     0.066    26.519     8.445
    16   6 C        2.920    -0.040    28.993     8.830
    17   6 C        2.924    -0.033    28.832     8.806
    18   6 C        2.975     0.004    27.923     8.668
    19   6 C        2.965    -0.015    28.381     8.738
    20   6 C        2.926     0.075    26.323     8.414
    21   7 N        1.839    -0.249    27.338     7.749
    22   6 C        2.963     0.178    24.193     8.068
    23   6 C        2.983    -0.001    28.046     8.687
    24   6 C        2.923    -0.027    28.679     8.782
    25   6 C        2.920    -0.040    29.006     8.832
    26   6 C        2.921     0.069    26.464     8.436
    27   7 N        2.751    -0.068    22.563     7.055
    28   6 C        2.922     0.042    27.051     8.529
    29   6 C        2.924    -0.060    29.491     8.906
    30   6 C        2.919    -0.039    28.961     8.825
    31   6 C        2.919    -0.040    29.000     8.831
    32   6 C        2.920    -0.056    29.400     8.892
    33   6 C        2.884     0.125    25.263     8.240
    34   8 O        1.709    -0.255    18.225     5.764
    35   6 C        2.884     0.125    25.263     8.240
    36   6 C        2.920    -0.056    29.400     8.892
    37   6 C        2.919    -0.040    29.000     8.831
    38   6 C        2.919    -0.039    28.961     8.825
    39   6 C        2.924    -0.060    29.491     8.906
    40   6 C        2.922     0.042    27.050     8.529
    41   6 C        2.920    -0.040    29.006     8.832
    42   6 C        2.923    -0.027    28.679     8.782
    43   7 N        1.839    -0.249    27.338     7.749
    44   6 C        2.926     0.075    26.323     8.414
    45   6 C        2.924    -0.033    28.832     8.806
    46   6 C        2.920    -0.040    28.993     8.830
    47   1 H        0.926     0.038     2.476     2.461
    48   1 H        0.926     0.036     2.509     2.477
    49   1 H        0.926     0.033     2.537     2.491
    50   1 H        0.926     0.050     2.315     2.379
    51   1 H        0.926     0.050     2.315     2.379
    52   1 H        0.926     0.038     2.476     2.461
    53   1 H        0.926     0.036     2.509     2.477
    54   1 H        0.926     0.033     2.538     2.491
    55   1 H        0.926     0.044     2.401     2.423
    56   1 H        0.926     0.039     2.465     2.455
    57   1 H        0.925     0.039     2.464     2.455
    58   1 H        0.926     0.063     2.169     2.303
    59   1 H        0.926     0.045     2.381     2.413
    60   1 H        0.926     0.036     2.499     2.472
    61   1 H        0.926     0.036     2.504     2.475
    62   1 H        0.926     0.038     2.479     2.462
    63   1 H        0.926     0.050     2.318     2.381
    64   1 H        0.926     0.050     2.318     2.381
    65   1 H        0.926     0.038     2.479     2.462
    66   1 H        0.926     0.036     2.504     2.475
    67   1 H        0.926     0.036     2.499     2.472
    68   1 H        0.926     0.045     2.382     2.413
    69   1 H        0.926     0.063     2.169     2.303
    70   1 H        0.925     0.039     2.464     2.455
    71   1 H        0.926     0.039     2.465     2.455
    72   1 H        0.926     0.044     2.401     2.423

molecular dipole:
                 x           y           z       tot (Debye)
 q only:        0.035       0.000       0.000
   full:        0.494       0.001       0.001       1.256

 projected vibrational frequencies (cm⁻¹)
eigval :       -0.00    -0.00    -0.00     0.00     0.00     0.00
eigval :        7.48     8.47    13.80    23.23    26.11    38.89
eigval :       42.94    45.40    49.59    66.70    66.98    79.41
eigval :       89.67   100.87   117.93   120.14   122.88   155.49
eigval :      178.42   192.61   204.32   237.48   239.58   249.87
eigval :      253.73   270.73   272.95   281.92   295.95   348.76
eigval :      355.53   364.25   370.22   376.48   382.78   388.05
eigval :      390.35   405.42   410.29   421.24   429.97   431.21
eigval :      432.16   443.01   445.76   453.60   471.47   482.13
eigval :      506.60   510.14   510.33   521.68   522.85   526.86
eigval :      554.66   562.41   576.08   588.21   589.60   603.26
eigval :      608.41   610.89   631.69   638.34   659.03   660.56
eigval :      661.34   661.82   666.13   688.58   689.12   693.27
eigval :      727.03   757.08   778.62   778.79   779.13   779.47
eigval :      787.76   803.61   814.82   816.65   828.31   855.20
eigval :      855.42   863.04   864.05   864.91   866.57   872.28
eigval :      875.14   879.19   896.60   897.44   897.67   898.34
eigval :      913.35   914.15   914.22   914.50   915.03   917.12
eigval :      917.58   919.48   924.37   924.40   929.79   933.07
eigval :      935.65   998.79  1008.70  1029.46  1084.66  1090.54
eigval :     1090.61  1091.51  1091.55  1107.27  1108.31  1108.36
eigval :     1121.64  1122.24  1122.99  1136.07  1171.37  1171.90
eigval :     1175.68  1175.79  1177.52  1184.19  1188.36  1195.23
eigval :     1201.67  1201.96  1206.96  1222.66  1225.42  1242.88
eigval :     1243.33  1252.03  1256.74  1262.19  1262.36  1268.37
eigval :     1280.65  1303.66  1309.73  1310.91  1311.49  1315.32
eigval :     1320.00  1339.51  1339.65  1339.92  1355.93  1360.01
eigval :     1376.49  1403.55  1412.60  1415.91  1424.35  1425.14
eigval :     1443.10  1443.49  1479.77  1488.02  1489.36  1491.67
eigval :     1505.51  1507.52  1511.21  1556.00  1556.43  1561.25
eigval :     1567.65  1567.70  1580.59  1581.05  1586.68  1589.94
eigval :     1591.52  1595.33  1603.40  1604.04  3035.85  3039.29
eigval :     3081.99  3083.51  3085.62  3086.77  3088.54  3088.65
eigval :     3088.85  3088.97  3093.74  3094.69  3098.70  3098.77
eigval :     3098.94  3099.04  3105.27  3105.87  3106.71  3107.26
eigval :     3110.16  3110.68  3112.54  3112.94  3113.09  3113.49

   temp. (K)  partition function   enthalpy   heat capacity  entropy
                                   cal/mol     cal/K/mol   cal/K/mol   J/K/mol
 298.15  VIB  0.461E+17            20653.108    131.446    128.863
         ROT  0.575E+08              888.752      2.981     38.487
         INT  0.265E+25            21541.860    134.427    167.349
         TR   0.140E+29             1481.254      4.968     45.012
         TOT                       23023.1140   139.3953   212.3611   888.5189

       T/K    H(0)-H(T)+PV         H(T)/Eh          T*S/Eh         G(T)/Eh
   ------------------------------------------------------------------------
    298.15    0.366897E-01    0.577534E+00    0.100900E+00    0.476634E+00
   ------------------------------------------------------------------------

         :::::::::::::::::::::::::::::::::::::::::::::::::::::
         ::                  THERMODYNAMIC                  ::
         :::::::::::::::::::::::::::::::::::::::::::::::::::::
         :: total free energy        -118.312168172382 Eh   ::
         ::.................................................::
         :: total energy             -118.788802574509 Eh   ::
         :: zero point energy           0.540844352886 Eh   ::
         :: G(RRHO) w/o ZPVE           -0.064209950760 Eh   ::
         :: G(RRHO) contrib.            0.476634402127 Eh   ::
         :::::::::::::::::::::::::::::::::::::::::::::::::::::

           -------------------------------------------------
          | TOTAL ENERGY             -118.788802574509 Eh   |
          | TOTAL ENTHALPY           -118.211268554099 Eh   |
          | TOTAL FREE ENERGY        -118.312168172382 Eh   |
          | GRADIENT NORM               0.000060473458 Eh/α |
          | HOMO-LUMO GAP               1.494606887758 eV   |
           -------------------------------------------------

 * finished run on 2025/09/04 at 22:14:08.343
