   * xtb version 6.7.1 (edcfbbe) compiled by 'albert@albert-system' on 2024-07-22

   ID    Z sym.   atoms
    1    8 O      1, 3
    2   16 S      2
    3    6 C      4-13, 15-28
    4    7 N      14
    5    1 H      29-45

          program call               : xtb data2507/gas/TS-1/TS-1_gas_S0_crest.xyz --gfn 2 --ohess vtight --parallel 40 --molden --ceasefiles --namespace data2507/gas/TS-1/TS-1_gas_S0_finalOpt
          :  Hamiltonian                  GFN2-xTB          :
 * total energy  :   -74.3536110 Eh     change       -0.4341160E-08 Eh
 * total energy  :   -74.3536113 Eh     change       -0.3221152E-06 Eh
 * total energy  :   -74.3536115 Eh     change       -0.2139432E-06 Eh
 * total energy  :   -74.3536119 Eh     change       -0.3674217E-06 Eh
 * total energy  :   -74.3536121 Eh     change       -0.1974759E-06 Eh
 * total energy  :   -74.3536123 Eh     change       -0.2534274E-06 Eh
 * total energy  :   -74.3536127 Eh     change       -0.3070226E-06 Eh
 * total energy  :   -74.3536129 Eh     change       -0.2550582E-06 Eh
 * total energy  :   -74.3536131 Eh     change       -0.2025073E-06 Eh
 * total energy  :   -74.3536133 Eh     change       -0.1854778E-06 Eh
 * total energy  :   -74.3536137 Eh     change       -0.1910421E-06 Eh
 * total energy  :   -74.3536139 Eh     change       -0.2284426E-06 Eh
 * total energy  :   -74.3536141 Eh     change       -0.2444192E-06 Eh
 * total energy  :   -74.3536144 Eh     change       -0.2170153E-06 Eh
 * total energy  :   -74.3536145 Eh     change       -0.1768876E-06 Eh
 * total energy  :   -74.3536147 Eh     change       -0.1423938E-06 Eh
 * total energy  :   -74.3536148 Eh     change       -0.1213519E-06 Eh
 * total energy  :   -74.3536149 Eh     change       -0.1070062E-06 Eh
 * total energy  :   -74.3536150 Eh     change       -0.9916236E-07 Eh
   *** GEOMETRY OPTIMIZATION CONVERGED AFTER 20 ITERATIONS ***

 final structure:
================
45
 xtb: 6.7.1 (edcfbbe)
O           -3.84072442984834        2.44356545182803        0.47985768285780
S           -3.54245942384654        1.38919100763475       -0.45266769962735
O           -3.89715791230058        1.57084323581633       -1.83523661509328
C           -4.28515446860741       -0.13895650109163        0.13427681732102
C           -4.83121824441370       -1.02559514575845       -0.77224604684849
C           -5.36473876417946       -2.21866170777611       -0.31267234737035
C           -5.33990650502575       -2.50820372410291        1.04254273465108
C           -4.78922870072388       -1.60932157878189        1.94350143381343
C           -4.25542227415297       -0.41581505220308        1.48731297293501
C           -1.78908221324130        1.01682259222310       -0.34724324865017
C           -1.03853628743010        1.53119525968191        0.69245760326694
C            0.30097836241455        1.20697210105828        0.79297088848659
C            0.88724146798894        0.36853042047829       -0.15619557776480
N            2.24081805407039        0.04308795527492       -0.06190270446672
C            2.77726911370003       -1.22942085638727       -0.15578101269102
C            2.13661292776148       -2.45164978350725       -0.29607621161711
C            2.91925943017747       -3.59063194414662       -0.32880578569686
C            4.30563365715602       -3.52452034078149       -0.21500173202227
C            4.94632748775454       -2.31316943312229       -0.04669360502233
C            4.18078913355795       -1.15542071329002       -0.01079178800444
C            4.50199400483586        0.23339504211418        0.17020931319160
C            5.69697380486409        0.92024463278245        0.33862725111417
C            5.65753077288100        2.29481530570142        0.46068776798635
C            4.44897085631761        2.98416202600638        0.39841036141954
C            3.24716815586041        2.32196858096815        0.23155307479353
C            3.27829087573491        0.93851848227074        0.13716460524043
C            0.11646844130688       -0.14025427047501       -1.20345177839875
C           -1.22385504600736        0.18127579930463       -1.29253624627716
H           -4.84347967354310       -0.75842483720094       -1.81738507911632
H           -5.80080397070152       -2.91924630718006       -1.00867563841945
H           -5.75693042018415       -3.43786954356465        1.40029843790594
H           -4.77856000142688       -1.83807848519125        2.99845514172049
H           -3.83262688490511        0.31085479522073        2.16313795050334
H           -1.51729476683034        2.18529964446839        1.40420401843132
H            0.89631683815648        1.58454907094215        1.61011948690296
H            1.06113666017867       -2.51792534565522       -0.36420562125833
H            2.44356490362988       -4.55361544713762       -0.44120843140714
H            4.88207999550943       -4.43679730430066       -0.24864551763942
H            6.01911623523262       -2.26216612450399        0.06062716334195
H            6.63460976249909        0.38628659752350        0.36694331577677
H            6.57462463676655        2.84845917054043        0.59509908452838
H            4.45019381310857        4.06103715490618        0.47785513350054
H            2.31966030901851        2.86964051855419        0.16244693000891
H            0.58116807040292       -0.76536287986917       -1.95043531220110
H           -1.83503865581482       -0.18484964437205       -2.10229940710357

          :  Hamiltonian                  GFN2-xTB          :
         :: gradient norm              0.000057629299 Eh/a0 ::
         :: HOMO-LUMO gap              2.765526640281 eV    ::
         :: SCC energy               -75.621323122063 Eh    ::
         :: -> dispersion             -0.059338992083 Eh    ::
         :: repulsion energy           1.267708112751 Eh    ::

    * Orbital Energies and Occupations

         #    Occupation            Energy/Eh            Energy/eV
      -------------------------------------------------------------
         1        2.0000           -0.7689013             -20.9229
       ...           ...                  ...                  ...
        56        2.0000           -0.4410648             -12.0020
        57        2.0000           -0.4352595             -11.8440
        58        2.0000           -0.4328752             -11.7791
        59        2.0000           -0.4312651             -11.7353
        60        2.0000           -0.4299894             -11.7006
        61        2.0000           -0.4287264             -11.6662
        62        2.0000           -0.4277873             -11.6407
        63        2.0000           -0.4248099             -11.5597
        64        2.0000           -0.4243873             -11.5482
        65        2.0000           -0.4123224             -11.2199
        66        2.0000           -0.4042997             -11.0016
        67        2.0000           -0.3857239             -10.4961
        68        2.0000           -0.3723019             -10.1309 (HOMO)
        69                         -0.2706708              -7.3653 (LUMO)
        70                         -0.2551699              -6.9435
        71                         -0.2529066              -6.8819
        72                         -0.2498241              -6.7981
        73                         -0.2487781              -6.7696
        74                         -0.2288594              -6.2276
        75                         -0.2005659              -5.4577
        76                         -0.1928141              -5.2467
        77                         -0.1439587              -3.9173
        78                         -0.1273278              -3.4648
        79                         -0.1124739              -3.0606
       ...                                ...                  ...
       134                          1.2063972              32.8277
      -------------------------------------------------------------
                  HL-Gap            0.1016311 Eh            2.7655 eV

     #   Z          covCN         q      C6AA      α(0)
     1   8 O        0.860    -0.538    24.640     6.655
     2  16 S        3.816     0.940   108.387    17.522
     3   8 O        0.860    -0.538    24.638     6.655
     4   6 C        2.972    -0.073    29.822     8.958
     5   6 C        2.955    -0.026    28.639     8.778
     6   6 C        2.922    -0.023    28.591     8.769
     7   6 C        2.920    -0.024    28.604     8.770
     8   6 C        2.922    -0.023    28.591     8.769
     9   6 C        2.959    -0.027    28.676     8.783
    10   6 C        2.970    -0.080    30.000     8.984
    11   6 C        2.953    -0.026    28.642     8.778
    12   6 C        2.924    -0.040    29.000     8.831
    13   6 C        2.913     0.072    26.391     8.424
    14   7 N        2.802    -0.041    22.022     6.970
    15   6 C        3.071     0.045    26.909     8.506
    16   6 C        2.910    -0.051    29.273     8.872
    17   6 C        2.924    -0.033    28.813     8.803
    18   6 C        2.920    -0.039    28.979     8.828
    19   6 C        2.913    -0.032    28.795     8.799
    20   6 C        3.067    -0.015    28.306     8.724
    21   6 C        3.067    -0.015    28.313     8.725
    22   6 C        2.913    -0.032    28.796     8.799
    23   6 C        2.920    -0.039    28.971     8.827
    24   6 C        2.924    -0.032    28.795     8.800
    25   6 C        2.910    -0.051    29.258     8.870
    26   6 C        3.071     0.046    26.900     8.504
    27   6 C        2.924    -0.040    28.989     8.830
    28   6 C        2.958    -0.027    28.682     8.784
    29   1 H        0.926     0.063     2.159     2.298
    30   1 H        0.926     0.051     2.309     2.376
    31   1 H        0.926     0.049     2.329     2.387
    32   1 H        0.926     0.050     2.321     2.383
    33   1 H        0.926     0.053     2.278     2.360
    34   1 H        0.926     0.067     2.119     2.276
    35   1 H        0.926     0.058     2.218     2.329
    36   1 H        0.926     0.026     2.644     2.543
    37   1 H        0.926     0.032     2.564     2.504
    38   1 H        0.926     0.032     2.563     2.504
    39   1 H        0.926     0.035     2.522     2.483
    40   1 H        0.926     0.034     2.527     2.486
    41   1 H        0.926     0.032     2.557     2.501
    42   1 H        0.926     0.034     2.534     2.490
    43   1 H        0.926     0.030     2.581     2.512
    44   1 H        0.926     0.058     2.225     2.333
    45   1 H        0.926     0.057     2.234     2.337

molecular dipole:
                 x           y           z       tot (Debye)
 q only:        0.935      -1.949       0.733
   full:        0.810      -1.928       0.724       5.625

 projected vibrational frequencies (cm⁻¹)
eigval :       -0.00    -0.00    -0.00     0.00     0.00     0.00
eigval :        6.19    17.35    20.05    41.04    45.52    75.43
eigval :      100.61   110.41   130.72   137.46   142.20   154.16
eigval :      197.82   237.06   246.26   271.95   284.86   305.84
eigval :      314.29   363.01   366.25   376.41   390.81   395.51
eigval :      416.62   423.53   436.38   445.91   480.85   516.18
eigval :      520.00   533.94   541.21   542.63   581.05   585.06
eigval :      592.65   611.71   651.12   658.56   673.82   680.22
eigval :      692.65   708.63   739.15   751.05   759.02   770.59
eigval :      781.90   817.53   867.90   875.05   880.18   883.89
eigval :      897.80   903.35   904.68   906.50   918.33   922.05
eigval :      926.06   927.50   928.99   933.08   933.42   968.57
eigval :     1005.92  1012.06  1069.82  1071.19  1074.89  1088.18
eigval :     1102.66  1111.72  1117.53  1120.98  1132.99  1152.83
eigval :     1170.29  1176.98  1177.92  1179.54  1180.90  1197.15
eigval :     1234.80  1240.13  1244.47  1248.82  1260.55  1298.94
eigval :     1299.27  1320.31  1322.74  1356.23  1359.64  1363.01
eigval :     1398.73  1424.76  1427.41  1430.59  1445.38  1475.08
eigval :     1475.83  1487.09  1572.86  1575.56  1577.61  1578.89
eigval :     1589.53  1597.90  1599.45  1613.90  3078.10  3080.32
eigval :     3082.50  3083.50  3085.38  3089.17  3090.28  3092.64
eigval :     3095.77  3096.06  3096.66  3098.08  3099.65  3104.65
eigval :     3105.20  3107.06  3107.25

   temp. (K)  partition function   enthalpy   heat capacity  entropy
                                   cal/mol     cal/K/mol   cal/K/mol   J/K/mol
 298.15  VIB  0.824E+10            12547.087     80.656     77.671
         ROT  0.188E+08              888.752      2.981     36.266
         INT  0.155E+18            13435.839     83.637    113.937
         TR   0.727E+28             1481.254      4.968     43.705
         TOT                       14917.0934    88.6055   157.6415   659.5721

       T/K    H(0)-H(T)+PV         H(T)/Eh          T*S/Eh         G(T)/Eh
   ------------------------------------------------------------------------
    298.15    0.237719E-01    0.360430E+00    0.749006E-01    0.285529E+00
   ------------------------------------------------------------------------

         :::::::::::::::::::::::::::::::::::::::::::::::::::::
         ::                  THERMODYNAMIC                  ::
         :::::::::::::::::::::::::::::::::::::::::::::::::::::
         :: total free energy         -74.068085583253 Eh   ::
         ::.................................................::
         :: total energy              -74.353615009312 Eh   ::
         :: zero point energy           0.336658095575 Eh   ::
         :: G(RRHO) w/o ZPVE           -0.051128669516 Eh   ::
         :: G(RRHO) contrib.            0.285529426058 Eh   ::
         :::::::::::::::::::::::::::::::::::::::::::::::::::::

           -------------------------------------------------
          | TOTAL ENERGY              -74.353615009312 Eh   |
          | TOTAL ENTHALPY            -73.993185012223 Eh   |
          | TOTAL FREE ENERGY         -74.068085583253 Eh   |
          | GRADIENT NORM               0.000057522393 Eh/α |
          | HOMO-LUMO GAP               2.765524134639 eV   |
           -------------------------------------------------

 * finished run on 2025/08/25 at 06:53:41.172
