   * xtb version 6.7.1 (edcfbbe) compiled by 'albert@albert-system' on 2024-07-22

   ID    Z sym.   atoms
    1    8 O      1, 3
    2   16 S      2
    3    6 C      4-13, 15-28
    4    7 N      14
    5    1 H      29-45

          program call               : xtb data2507/gas/TS-1/TS-1.xyz --gfn 2 --ohess vtight --parallel 40 --molden --ceasefiles --namespace data2507/gas/TS-1/TS-1_gas_S0_preOpt
          :  Hamiltonian                  GFN2-xTB          :
 * total energy  :   -74.3429399 Eh     change       -0.1456868E-08 Eh
 * total energy  :   -74.3514262 Eh     change       -0.8486326E-02 Eh
 * total energy  :   -74.3529055 Eh     change       -0.1479279E-02 Eh
 * total energy  :   -74.3531159 Eh     change       -0.2104771E-03 Eh
 * total energy  :   -74.3532532 Eh     change       -0.1372044E-03 Eh
 * total energy  :   -74.3533049 Eh     change       -0.5175471E-04 Eh
 * total energy  :   -74.3533645 Eh     change       -0.5958412E-04 Eh
 * total energy  :   -74.3534116 Eh     change       -0.4715493E-04 Eh
 * total energy  :   -74.3534511 Eh     change       -0.3949521E-04 Eh
 * total energy  :   -74.3534830 Eh     change       -0.3190115E-04 Eh
 * total energy  :   -74.3536010 Eh     change       -0.1829801E-05 Eh
 * total energy  :   -74.3536025 Eh     change       -0.1473319E-05 Eh
 * total energy  :   -74.3536039 Eh     change       -0.1478918E-05 Eh
 * total energy  :   -74.3536057 Eh     change       -0.1771028E-05 Eh
 * total energy  :   -74.3536076 Eh     change       -0.1875972E-05 Eh
 * total energy  :   -74.3536092 Eh     change       -0.1556664E-05 Eh
 * total energy  :   -74.3536102 Eh     change       -0.1077979E-05 Eh
 * total energy  :   -74.3536109 Eh     change       -0.6289396E-06 Eh
 * total energy  :   -74.3536109 Eh     change       -0.3968452E-08 Eh
   *** GEOMETRY OPTIMIZATION CONVERGED AFTER 44 ITERATIONS ***

 final structure:
================
45
 xtb: 6.7.1 (edcfbbe)
O           -3.94071461074676        2.05485243270502        2.25017471199695
S           -3.64406982949488        1.99588340930539        0.84343321331521
O           -3.83421401030508        3.18011621687868        0.04857349285624
C           -4.58330097997039        0.64701959665273        0.11575215990691
C           -5.19104345290596       -0.28183952996390        0.93679369766699
C           -5.88204814487356       -1.33820562002059        0.36606067992247
C           -5.95100118639898       -1.45171031777440       -1.01360970814177
C           -5.33707874363460       -0.51203212792699       -1.82785543631659
C           -4.64567405963570        0.54513061638711       -1.26042165060606
C           -1.95031564467084        1.43758370953798        0.63311788434648
C           -1.46138293618194        0.44912493698926        1.46685851341465
C           -0.16744836458111       -0.00461784449244        1.30022762013108
C            0.63287654200153        0.52802540327225        0.28767471477774
N            1.94227826648857        0.07582520037141        0.11971893184481
C            2.34394486818586       -1.24747362633500        0.06473623316541
C            1.58088304169097       -2.40545688851833        0.09155829071035
C            2.24034333209997       -3.61552021863281       -0.01688240141898
C            3.62419124641471       -3.67996551700213       -0.15906402391723
C            4.38579485164769       -2.52969154462113       -0.21415356806904
C            3.74532757415970       -1.30247092811456       -0.10720951602236
C            4.20757619785003        0.05749534959359       -0.14698436639470
C            5.46545889548037        0.63266017463996       -0.26977291997387
C            5.56822049716476        2.00910734327835       -0.24247560391191
C            4.43918673028689        2.80773395283264       -0.07755824402024
C            3.17707668112004        2.25787434409305        0.04635728184645
C            3.06489429257591        0.87650631564681       -0.00846986924364
C            0.12238300549652        1.51996616144046       -0.55080078845922
C           -1.17042459435020        1.97447097930460       -0.37309580408888
H           -5.12722642490458       -0.15123566076210        2.00575308300263
H           -6.36778390404454       -2.06890838224743        0.99497223871663
H           -6.49122575441121       -2.27447496313145       -1.45789431046188
H           -5.40019712372347       -0.60244931371443       -2.90172754114259
H           -4.17004061323791        1.30119688324067       -1.86509703345127
H           -2.09138314017298        0.06780771535087        2.25486136050163
H            0.24087108611816       -0.75266839118621        1.96236530974284
H            0.50553828189659       -2.36777527685461        0.18056663148305
H            1.66821995073231       -4.53118708132625        0.00516169623526
H            4.10234770632544       -4.64480178660472       -0.23743377516260
H            5.45637618379969       -2.57773716263999       -0.34281688985971
H            6.34180724837812        0.01183954731423       -0.37781642183945
H            6.53635791067892        2.47724732211642       -0.33845013228795
H            4.55186614716334        3.88101738165831       -0.04096423901895
H            2.31268623571366        2.88670935765754        0.19603566569170
H            0.73855585526098        1.91609874750702       -1.34337170430172
H           -1.58848511047665        2.74892608409760       -0.99683046316639

          :  Hamiltonian                  GFN2-xTB          :
         :: gradient norm              0.000043781937 Eh/a0 ::
         :: HOMO-LUMO gap              2.762316926358 eV    ::
         :: SCC energy               -75.621304837437 Eh    ::
         :: -> dispersion             -0.059304702404 Eh    ::
         :: repulsion energy           1.267693973776 Eh    ::

    * Orbital Energies and Occupations

         #    Occupation            Energy/Eh            Energy/eV
      -------------------------------------------------------------
         1        2.0000           -0.7688617             -20.9218
       ...           ...                  ...                  ...
        56        2.0000           -0.4410316             -12.0011
        57        2.0000           -0.4352233             -11.8430
        58        2.0000           -0.4327531             -11.7758
        59        2.0000           -0.4312227             -11.7342
        60        2.0000           -0.4299186             -11.6987
        61        2.0000           -0.4287310             -11.6664
        62        2.0000           -0.4277363             -11.6393
        63        2.0000           -0.4247470             -11.5580
        64        2.0000           -0.4242966             -11.5457
        65        2.0000           -0.4122291             -11.2173
        66        2.0000           -0.4042765             -11.0009
        67        2.0000           -0.3856277             -10.4935
        68        2.0000           -0.3722111             -10.1284 (HOMO)
        69                         -0.2706978              -7.3661 (LUMO)
        70                         -0.2550584              -6.9405
        71                         -0.2529085              -6.8820
        72                         -0.2497546              -6.7962
        73                         -0.2487782              -6.7696
        74                         -0.2287575              -6.2248
        75                         -0.2004864              -5.4555
        76                         -0.1927192              -5.2442
        77                         -0.1439917              -3.9182
        78                         -0.1273446              -3.4652
        79                         -0.1123864              -3.0582
       ...                                ...                  ...
       134                          1.2059269              32.8149
      -------------------------------------------------------------
                  HL-Gap            0.1015133 Eh            2.7623 eV

     #   Z          covCN         q      C6AA      α(0)
     1   8 O        0.860    -0.538    24.642     6.656
     2  16 S        3.815     0.940   108.396    17.523
     3   8 O        0.860    -0.538    24.642     6.656
     4   6 C        2.972    -0.073    29.821     8.957
     5   6 C        2.955    -0.026    28.641     8.778
     6   6 C        2.922    -0.024    28.591     8.769
     7   6 C        2.920    -0.024    28.603     8.770
     8   6 C        2.922    -0.023    28.591     8.769
     9   6 C        2.959    -0.027    28.674     8.783
    10   6 C        2.970    -0.080    29.999     8.984
    11   6 C        2.957    -0.027    28.678     8.784
    12   6 C        2.924    -0.040    28.988     8.829
    13   6 C        2.913     0.072    26.390     8.424
    14   7 N        2.802    -0.041    22.024     6.970
    15   6 C        3.071     0.045    26.908     8.505
    16   6 C        2.910    -0.051    29.273     8.872
    17   6 C        2.924    -0.033    28.813     8.803
    18   6 C        2.920    -0.039    28.980     8.828
    19   6 C        2.913    -0.032    28.795     8.799
    20   6 C        3.067    -0.015    28.307     8.724
    21   6 C        3.067    -0.015    28.314     8.725
    22   6 C        2.913    -0.032    28.796     8.799
    23   6 C        2.920    -0.039    28.971     8.827
    24   6 C        2.924    -0.032    28.795     8.800
    25   6 C        2.910    -0.051    29.258     8.870
    26   6 C        3.071     0.046    26.900     8.504
    27   6 C        2.924    -0.040    28.998     8.831
    28   6 C        2.954    -0.026    28.642     8.778
    29   1 H        0.926     0.063     2.162     2.299
    30   1 H        0.926     0.051     2.309     2.376
    31   1 H        0.926     0.049     2.329     2.387
    32   1 H        0.926     0.050     2.320     2.382
    33   1 H        0.926     0.054     2.270     2.356
    34   1 H        0.926     0.057     2.231     2.336
    35   1 H        0.926     0.058     2.225     2.333
    36   1 H        0.926     0.026     2.645     2.543
    37   1 H        0.926     0.032     2.565     2.504
    38   1 H        0.926     0.032     2.564     2.504
    39   1 H        0.926     0.035     2.522     2.483
    40   1 H        0.926     0.034     2.527     2.486
    41   1 H        0.926     0.032     2.557     2.501
    42   1 H        0.926     0.034     2.534     2.490
    43   1 H        0.926     0.030     2.582     2.513
    44   1 H        0.926     0.058     2.218     2.329
    45   1 H        0.926     0.067     2.120     2.277

molecular dipole:
                 x           y           z       tot (Debye)
 q only:        0.670      -1.942      -0.985
   full:        0.547      -1.910      -0.968       5.617

 projected vibrational frequencies (cm⁻¹)
eigval :       -0.00    -0.00    -0.00     0.00     0.00     0.00
eigval :        5.42    17.41    20.29    41.04    45.42    74.92
eigval :      100.62   110.64   130.47   138.01   142.17   153.77
eigval :      197.49   237.08   246.21   271.89   285.19   305.90
eigval :      314.19   363.05   367.01   376.27   390.82   395.60
eigval :      416.66   423.51   436.02   445.44   480.66   516.22
eigval :      520.06   533.90   541.21   542.61   581.01   585.08
eigval :      592.65   611.68   651.02   658.56   673.80   680.22
eigval :      692.62   708.61   739.17   751.05   759.03   770.58
eigval :      781.88   817.36   867.89   874.99   880.16   883.73
eigval :      897.81   903.33   904.64   906.45   918.18   921.98
eigval :      925.87   927.41   929.03   933.03   933.24   968.57
eigval :     1005.90  1012.07  1069.82  1071.12  1074.83  1088.13
eigval :     1102.63  1111.66  1117.54  1120.91  1132.89  1152.76
eigval :     1170.28  1176.97  1177.93  1179.54  1180.91  1197.05
eigval :     1234.84  1240.00  1244.42  1248.74  1260.54  1299.00
eigval :     1299.28  1320.33  1322.69  1356.22  1359.63  1363.06
eigval :     1398.65  1424.76  1427.41  1430.61  1445.32  1475.05
eigval :     1475.88  1487.11  1572.86  1575.50  1577.61  1578.85
eigval :     1589.56  1597.91  1599.48  1613.92  3078.05  3080.29
eigval :     3082.50  3083.42  3085.33  3089.22  3090.21  3092.59
eigval :     3095.70  3096.06  3096.63  3098.03  3099.61  3104.86
eigval :     3105.36  3107.23  3107.51

   temp. (K)  partition function   enthalpy   heat capacity  entropy
                                   cal/mol     cal/K/mol   cal/K/mol   J/K/mol
 298.15  VIB  0.932E+10            12548.822     80.656     77.799
         ROT  0.189E+08              888.752      2.981     36.272
         INT  0.176E+18            13437.574     83.637    114.071
         TR   0.727E+28             1481.254      4.968     43.705
         TOT                       14918.8278    88.6049   157.7756   660.1330

       T/K    H(0)-H(T)+PV         H(T)/Eh          T*S/Eh         G(T)/Eh
   ------------------------------------------------------------------------
    298.15    0.237747E-01    0.360425E+00    0.749643E-01    0.285461E+00
   ------------------------------------------------------------------------

         :::::::::::::::::::::::::::::::::::::::::::::::::::::
         ::                  THERMODYNAMIC                  ::
         :::::::::::::::::::::::::::::::::::::::::::::::::::::
         :: total free energy         -74.068149808129 Eh   ::
         ::.................................................::
         :: total energy              -74.353610863661 Eh   ::
         :: zero point energy           0.336650653319 Eh   ::
         :: G(RRHO) w/o ZPVE           -0.051189597787 Eh   ::
         :: G(RRHO) contrib.            0.285461055532 Eh   ::
         :::::::::::::::::::::::::::::::::::::::::::::::::::::

           -------------------------------------------------
          | TOTAL ENERGY              -74.353610863661 Eh   |
          | TOTAL ENTHALPY            -73.993185544901 Eh   |
          | TOTAL FREE ENERGY         -74.068149808129 Eh   |
          | GRADIENT NORM               0.000043780124 Eh/α |
          | HOMO-LUMO GAP               2.762317414619 eV   |
           -------------------------------------------------

 * finished run on 2025/08/25 at 06:51:41.640
