   * xtb version 6.7.1 (edcfbbe) compiled by 'albert@albert-system' on 2024-07-22

   ID    Z sym.   atoms
    1    8 O      1, 3
    2   16 S      2
    3    6 C      4-13, 15-28
    4    7 N      14
    5    1 H      29-45

          program call               : xtb data2507/gas/TS-1/TS-1_gas_S0_finalOpt.xtbopt.xyz --gfn 2 --spinpol --tblite --uhf 2 --ohess vtight --parallel 40 --molden --ceasefiles --namespace data2507/gas/TS-1/TS-1_gas_T1_preOpt
 * total energy  :   -74.2397826 Eh     change        0.2043777E-08 Eh
 * total energy  :   -74.2425759 Eh     change       -0.2793327E-02 Eh
 * total energy  :   -74.2433691 Eh     change       -0.7931687E-03 Eh
 * total energy  :   -74.2435314 Eh     change       -0.1622979E-03 Eh
 * total energy  :   -74.2436316 Eh     change       -0.1002083E-03 Eh
 * total energy  :   -74.2436752 Eh     change       -0.4358998E-04 Eh
 * total energy  :   -74.2437149 Eh     change       -0.3968363E-04 Eh
 * total energy  :   -74.2437458 Eh     change       -0.3089101E-04 Eh
 * total energy  :   -74.2437765 Eh     change       -0.3074451E-04 Eh
 * total energy  :   -74.2437999 Eh     change       -0.2338668E-04 Eh
 * total energy  :   -74.2444169 Eh     change       -0.8276361E-06 Eh
 * total energy  :   -74.2444177 Eh     change       -0.7935357E-06 Eh
 * total energy  :   -74.2444184 Eh     change       -0.7550435E-06 Eh
 * total energy  :   -74.2444191 Eh     change       -0.7083324E-06 Eh
 * total energy  :   -74.2444198 Eh     change       -0.6694782E-06 Eh
 * total energy  :   -74.2444204 Eh     change       -0.6470976E-06 Eh
 * total energy  :   -74.2444211 Eh     change       -0.6388924E-06 Eh
 * total energy  :   -74.2444217 Eh     change       -0.6547619E-06 Eh
 * total energy  :   -74.2444217 Eh     change       -0.6359897E-08 Eh
   *** GEOMETRY OPTIMIZATION CONVERGED AFTER 94 ITERATIONS ***

 final structure:
================
45
 xtb: 6.7.1 (edcfbbe)
O           -3.90154485760704        2.51953478524883       -0.09909120718679
S           -3.56637727673110        1.31109029244116       -0.80812146155190
O           -3.96096295169015        1.18334442851158       -2.18787477812104
C           -4.21259589623569       -0.09277682107132        0.10300819693654
C           -4.45196716908617       -1.28002604341633       -0.56765294328096
C           -4.87100509342251       -2.38724121580548        0.14738537870878
C           -5.03640635894484       -2.30237525736896        1.52272092972329
C           -4.79123396281000       -1.10742141069814        2.18491310776505
C           -4.37161099458089        0.00275319033900        1.47477272660659
C           -1.83755893748851        0.99688671917170       -0.65463785111552
C           -1.12793869956990        1.49889413362235        0.45565901322387
C            0.19021221408241        1.20360706214983        0.62036385562350
C            0.84963095317838        0.32780316662325       -0.29627696910537
N            2.17291372604998        0.00865823536548       -0.12732811108280
C            2.72699904015957       -1.25040684990996       -0.28761109062263
C            2.10279436557423       -2.45892476680257       -0.55109598282224
C            2.89377664121929       -3.59796100546800       -0.63762826179214
C            4.27553542014624       -3.52667369076607       -0.45042329353223
C            4.90407441585553       -2.33079133349000       -0.14502601554450
C            4.13248565587797       -1.17784628087590       -0.04142191717299
C            4.41957015970805        0.17840091993913        0.29537790388068
C            5.58412548774335        0.86359762540022        0.62618608844399
C            5.51302181643562        2.22993813487592        0.84409541992663
C            4.30961727554218        2.92598387328187        0.72194456430411
C            3.13059473735828        2.26259640475559        0.40383149258221
C            3.18321382145136        0.89003250048702        0.22401991861230
C            0.10420036591438       -0.21078583455490       -1.39076959918529
C           -1.20377608073813        0.12234084372683       -1.56241364401329
H           -4.32965839608609       -1.30689446139754       -1.63885202124826
H           -5.07234627861794       -3.31618314415452       -0.36513586476922
H           -5.36255231712979       -3.16826313413466        2.07936983151016
H           -4.93048544559163       -1.04352640416774        3.25382324119485
H           -4.18699681791645        0.94981927436868        1.95664592935820
H           -1.65705122264572        2.13503316224382        1.14686523720683
H            0.73360488660707        1.55082637705274        1.48572036778378
H            1.03158367911047       -2.52575771809097       -0.66143775951721
H            2.43167183955248       -4.55063859360101       -0.84121288432545
H            4.86206931766890       -4.42990388600311       -0.52874921251603
H            5.96998003462445       -2.29159165692381        0.01736170735708
H            6.52407582099217        0.33928288949947        0.70166262832605
H            6.41050951360320        2.77459079211743        1.09676163159921
H            4.29438690539152        3.99445885093687        0.86555560183173
H            2.21072104569155        2.81168591483169        0.27734344054330
H            0.62583133791170       -0.80692528027459       -2.12387351708932
H           -1.77260261158745       -0.22355794639473       -2.41018274721810

 projected vibrational frequencies (cm⁻¹)
eigval :       -0.00    -0.00    -0.00    -0.00    -0.00     0.00
eigval :       12.95    15.23    31.74    40.65    45.30    86.83
eigval :       98.16   111.98   123.24   136.08   142.02   156.81
eigval :      179.56   226.59   238.60   266.45   277.26   286.06
eigval :      309.21   355.84   364.51   367.84   381.14   382.98
eigval :      397.22   405.47   407.90   429.70   437.54   486.33
eigval :      487.55   505.50   512.33   550.24   562.38   573.02
eigval :      583.23   601.53   614.75   637.12   648.52   652.19
eigval :      674.14   683.92   716.73   742.67   745.08   750.99
eigval :      752.84   783.82   808.47   843.80   847.74   868.13
eigval :      871.99   876.18   884.57   887.20   894.07   898.07
eigval :      898.48   901.71   907.61   922.27   923.26   947.57
eigval :      961.96   975.88  1009.16  1023.88  1056.86  1063.76
eigval :     1066.50  1081.25  1096.89  1102.10  1113.46  1113.90
eigval :     1156.71  1166.21  1168.76  1171.14  1176.33  1177.64
eigval :     1193.54  1195.31  1229.54  1232.28  1236.31  1259.05
eigval :     1276.06  1279.47  1283.24  1317.76  1324.81  1335.90
eigval :     1373.20  1378.52  1381.20  1428.99  1435.74  1438.14
eigval :     1450.55  1459.00  1463.45  1471.14  1490.54  1542.91
eigval :     1546.57  1553.94  1567.73  1580.56  3078.95  3084.22
eigval :     3084.71  3085.19  3086.34  3088.49  3092.92  3093.97
eigval :     3095.43  3097.66  3099.38  3105.12  3106.01  3107.84
eigval :     3108.39  3109.26  3110.59

   temp. (K)  partition function   enthalpy   heat capacity  entropy
                                   cal/mol     cal/K/mol   cal/K/mol   J/K/mol
 298.15  VIB  0.435E+10            12925.131     83.532     78.945
         ROT  0.185E+08              888.752      2.981     36.235
         INT  0.804E+17            13813.884     86.513    115.180
         TR   0.727E+28             1481.254      4.968     43.705
         TOT                       15295.1375    91.4807   158.8844   664.7723

       T/K    H(0)-H(T)+PV         H(T)/Eh          T*S/Eh         G(T)/Eh
   ------------------------------------------------------------------------
    298.15    0.243744E-01    0.355172E+00    0.754911E-01    0.279681E+00
   ------------------------------------------------------------------------

         :::::::::::::::::::::::::::::::::::::::::::::::::::::
         ::                  THERMODYNAMIC                  ::
         :::::::::::::::::::::::::::::::::::::::::::::::::::::
         :: total free energy         -73.964741147375 Eh   ::
         ::.................................................::
         :: total energy              -74.244421684560 Eh   ::
         :: zero point energy           0.330797287840 Eh   ::
         :: G(RRHO) w/o ZPVE           -0.051116750655 Eh   ::
         :: G(RRHO) contrib.            0.279680537186 Eh   ::
         :::::::::::::::::::::::::::::::::::::::::::::::::::::

           -------------------------------------------------
          | TOTAL ENERGY              -74.244421684560 Eh   |
          | TOTAL ENTHALPY            -73.889250043680 Eh   |
          | TOTAL FREE ENERGY         -73.964741147375 Eh   |
          | GRADIENT NORM               0.000082516655 Eh/α |
           -------------------------------------------------

 * finished run on 2025/08/25 at 06:53:47.609
