   * xtb version 6.7.1 (edcfbbe) compiled by 'albert@albert-system' on 2024-07-22

   ID    Z sym.   atoms
    1    8 O      1, 3
    2   16 S      2
    3    6 C      4-13, 15-28
    4    7 N      14
    5    1 H      29-45

          program call               : xtb data2507/gas/TS-1/TS-1_gas_T1_crest.xyz --gfn 2 --spinpol --tblite --uhf 2 --ohess vtight --parallel 40 --molden --ceasefiles --namespace data2507/gas/TS-1/TS-1_gas_T1_finalOpt
 * total energy  :   -74.2443863 Eh     change       -0.4319844E-08 Eh
 * total energy  :   -74.2444152 Eh     change       -0.2892941E-04 Eh
 * total energy  :   -74.2444329 Eh     change       -0.1772908E-04 Eh
 * total energy  :   -74.2444358 Eh     change       -0.2896300E-05 Eh
 * total energy  :   -74.2444373 Eh     change       -0.1413023E-05 Eh
 * total energy  :   -74.2444381 Eh     change       -0.8431750E-06 Eh
 * total energy  :   -74.2444390 Eh     change       -0.9332255E-06 Eh
 * total energy  :   -74.2444397 Eh     change       -0.6371394E-06 Eh
 * total energy  :   -74.2444402 Eh     change       -0.5710071E-06 Eh
 * total energy  :   -74.2444407 Eh     change       -0.4891581E-06 Eh
 * total energy  :   -74.2444422 Eh     change       -0.3756729E-06 Eh
 * total energy  :   -74.2444426 Eh     change       -0.4322506E-06 Eh
 * total energy  :   -74.2444431 Eh     change       -0.4383874E-06 Eh
 * total energy  :   -74.2444435 Eh     change       -0.3892911E-06 Eh
 * total energy  :   -74.2444438 Eh     change       -0.3010546E-06 Eh
 * total energy  :   -74.2444441 Eh     change       -0.3457161E-06 Eh
 * total energy  :   -74.2444446 Eh     change       -0.4692551E-06 Eh
 * total energy  :   -74.2444452 Eh     change       -0.6165528E-06 Eh
 * total energy  :   -74.2444453 Eh     change       -0.8759501E-07 Eh
   *** GEOMETRY OPTIMIZATION CONVERGED AFTER 22 ITERATIONS ***

 final structure:
================
45
 xtb: 6.7.1 (edcfbbe)
O           -3.96757616535873        2.42868473143650       -0.13325415833274
S           -3.60426615684403        1.18856624584463       -0.77000891315700
O           -4.02020935150337        0.95812787757475       -2.12993118946363
C           -4.18073198843860       -0.17240031938162        0.24663631353108
C           -4.35758653088788       -1.41829712383287       -0.33065786307606
C           -4.71693949796465       -2.48813552064566        0.46863547498057
C           -4.88503159399640       -2.30764208353582        1.83454696467523
C           -4.70293104540040       -1.05452104157654        2.40268687681903
C           -4.34338295970706        0.01883104845795        1.60801666015041
C           -1.86384995381926        0.93817581022789       -0.63360086161791
C           -1.16202585290057        1.48125305703507        0.46260747352086
C            0.16494651343697        1.22727460020832        0.62392181966117
C            0.84485585838431        0.35604639334249       -0.28219555318472
N            2.17706189792866        0.07674564299086       -0.11418931424843
C            2.76654489690415       -1.16806758553421       -0.26055828939947
C            2.17722307818515       -2.39693526751817       -0.51015828368607
C            3.00044795997459       -3.51361408658822       -0.58539005538640
C            4.37963912741356       -3.40104699556004       -0.39979974915774
C            4.97362714716257       -2.18447038036301       -0.10746246515365
C            4.16945922240744       -1.05303561308888       -0.01625322500713
C            4.41830013057726        0.31448485717148        0.30521445595919
C            5.56306995542892        1.03542243811270        0.62873915734797
C            5.45385309513380        2.40146668256872        0.83171440695399
C            4.23160356099747        3.06228138656434        0.70082594419856
C            3.07190608280873        2.36291984714226        0.38943497718333
C            3.16251595494706        0.99023368283798        0.22582320832658
C            0.10923536168288       -0.22143735952754       -1.36376653085807
C           -1.20967384550272        0.06788618135966       -1.53080198422708
H           -4.23398417607504       -1.52085124148149       -1.39713129452835
H           -4.86918087384656       -3.46285710038729        0.02946167889795
H           -5.16380817197271       -3.14472539686113        2.45707825912001
H           -4.84422869983276       -0.91664336776519        3.46432622039757
H           -4.20905636038384        1.00850412832797        2.01509073374060
H           -1.70491704980649        2.11319762522221        1.14688524724244
H            0.70237791393031        1.60396379590322        1.48059228307762
H            1.10833852866541       -2.49610429693258       -0.61838361000598
H            2.56565067222852       -4.48117163053401       -0.77875080381756
H            4.99172223611050       -4.28793432572485       -0.46873639808782
H            6.03796993404042       -2.11301779738639        0.05422689490687
H            6.51717650842511        0.53830219511043        0.71042141861080
H            6.33553461201242        2.97366313943704        1.07905122398242
H            4.18647505598306        4.13147232746101        0.83238097860596
H            2.13752989585788        2.88509191385448        0.25558314345634
H            0.64432106218007       -0.81163356451812       -2.09194402614595
H           -1.77422502376566       -0.30941829854899       -2.36805273560528

 projected vibrational frequencies (cm⁻¹)
eigval :       -0.00    -0.00    -0.00    -0.00     0.00     0.00
eigval :       13.32    15.46    32.40    40.57    45.41    87.64
eigval :       98.27   112.59   122.53   136.30   141.97   157.05
eigval :      179.57   227.57   238.55   266.73   276.22   286.00
eigval :      309.78   356.57   364.61   367.87   381.49   382.59
eigval :      396.52   405.35   408.55   429.58   437.61   487.19
eigval :      487.90   505.91   512.11   550.41   562.28   573.09
eigval :      583.04   601.43   614.73   637.23   648.25   652.40
eigval :      674.21   684.21   717.00   742.83   745.87   751.23
eigval :      753.33   783.89   808.73   844.40   848.53   868.19
eigval :      871.91   876.21   884.75   887.35   893.89   898.39
eigval :      898.70   902.00   907.90   922.30   923.12   947.92
eigval :      961.89   977.84  1009.42  1025.36  1057.77  1064.25
eigval :     1066.70  1081.30  1097.35  1102.19  1112.99  1114.11
eigval :     1157.19  1166.01  1168.64  1171.35  1176.07  1177.56
eigval :     1193.88  1195.45  1229.50  1232.38  1236.90  1258.99
eigval :     1275.82  1279.57  1283.23  1318.25  1324.90  1335.91
eigval :     1372.63  1378.51  1380.67  1428.44  1435.44  1438.11
eigval :     1450.38  1459.22  1464.08  1471.32  1491.10  1543.02
eigval :     1546.67  1552.74  1567.17  1580.73  3078.75  3084.16
eigval :     3084.48  3085.05  3086.19  3088.45  3092.93  3093.48
eigval :     3095.22  3097.37  3099.20  3104.65  3105.30  3107.59
eigval :     3108.23  3109.09  3109.93

   temp. (K)  partition function   enthalpy   heat capacity  entropy
                                   cal/mol     cal/K/mol   cal/K/mol   J/K/mol
 298.15  VIB  0.403E+10            12918.747     83.526     78.860
         ROT  0.185E+08              888.752      2.981     36.231
         INT  0.745E+17            13807.499     86.507    115.091
         TR   0.727E+28             1481.254      4.968     43.705
         TOT                       15288.7530    91.4752   158.7952   664.3993

       T/K    H(0)-H(T)+PV         H(T)/Eh          T*S/Eh         G(T)/Eh
   ------------------------------------------------------------------------
    298.15    0.243642E-01    0.355187E+00    0.754487E-01    0.279738E+00
   ------------------------------------------------------------------------

         :::::::::::::::::::::::::::::::::::::::::::::::::::::
         ::                  THERMODYNAMIC                  ::
         :::::::::::::::::::::::::::::::::::::::::::::::::::::
         :: total free energy         -73.964706814772 Eh   ::
         ::.................................................::
         :: total energy              -74.244445292630 Eh   ::
         :: zero point energy           0.330823044433 Eh   ::
         :: G(RRHO) w/o ZPVE           -0.051084566575 Eh   ::
         :: G(RRHO) contrib.            0.279738477858 Eh   ::
         :::::::::::::::::::::::::::::::::::::::::::::::::::::

           -------------------------------------------------
          | TOTAL ENERGY              -74.244445292630 Eh   |
          | TOTAL ENTHALPY            -73.889258069489 Eh   |
          | TOTAL FREE ENERGY         -73.964706814772 Eh   |
          | GRADIENT NORM               0.000098647624 Eh/α |
           -------------------------------------------------

 * finished run on 2025/08/25 at 06:56:04.974
