   * xtb version 6.7.1 (edcfbbe) compiled by 'albert@albert-system' on 2024-07-22

   ID    Z sym.   atoms
    1    8 O      1
    2    6 C      2-6, 8-42, 44-74
    3    7 N      7, 43
    4    1 H      75-118

          program call               : xtb data2507/toluene/2SPBAC-BP/2SPBAC-BP_toluene_S0_crest.xyz --gfn 2 --gbsa toluene --ohess vtight --parallel 40 --molden --ceasefiles --namespace data2507/toluene/2SPBAC-BP/2SPBAC-BP_toluene_S0_finalOpt
      * Solvation model:               GBSA
        Solvent                        toluene
        Solvent mass                       9.2140E+01 g/mol
          :  Hamiltonian                  GFN2-xTB          :
 * total energy  :  -184.5438892 Eh     change       -0.4453881E-08 Eh
 * total energy  :  -184.5439982 Eh     change       -0.1090022E-03 Eh
 * total energy  :  -184.5440750 Eh     change       -0.7679438E-04 Eh
 * total energy  :  -184.5441130 Eh     change       -0.3792685E-04 Eh
 * total energy  :  -184.5441587 Eh     change       -0.4573408E-04 Eh
 * total energy  :  -184.5442032 Eh     change       -0.4446839E-04 Eh
 * total energy  :  -184.5442437 Eh     change       -0.4056428E-04 Eh
 * total energy  :  -184.5442605 Eh     change       -0.1674964E-04 Eh
 * total energy  :  -184.5442893 Eh     change       -0.2881740E-04 Eh
 * total energy  :  -184.5442998 Eh     change       -0.1044989E-04 Eh
 * total energy  :  -184.5486309 Eh     change       -0.8039176E-06 Eh
 * total energy  :  -184.5486314 Eh     change       -0.5191504E-06 Eh
 * total energy  :  -184.5486318 Eh     change       -0.3823360E-06 Eh
 * total energy  :  -184.5486322 Eh     change       -0.3492661E-06 Eh
 * total energy  :  -184.5486325 Eh     change       -0.3636328E-06 Eh
 * total energy  :  -184.5486329 Eh     change       -0.4293479E-06 Eh
 * total energy  :  -184.5486332 Eh     change       -0.2713280E-06 Eh
 * total energy  :  -184.5486334 Eh     change       -0.1910870E-06 Eh
 * total energy  :  -184.5486334 Eh     change       -0.1917442E-08 Eh
   *** GEOMETRY OPTIMIZATION CONVERGED AFTER 260 ITERATIONS ***

 final structure:
================
118
 xtb: 6.7.1 (edcfbbe)
O           -0.02021405804839       -5.72087743379590       -0.01280206040797
C           -0.01646458711804       -4.50251077414821       -0.00910231368937
C           -1.25739326421892       -3.68963156100885       -0.04820266699660
C           -2.31454170976939       -4.03836276463709       -0.88506276731304
C           -3.44391196391833       -3.24541939441199       -0.94856627069388
C           -3.55550014201497       -2.12009782382920       -0.13491949886789
N           -4.70367219462845       -1.29671862406196       -0.20899150139608
C           -5.93637022722333       -1.81888544822055        0.17248568203470
C           -6.02168451431514       -3.09965050395231        0.72747176093191
C           -7.23925834975115       -3.63605561122857        1.09310620224895
C           -8.40286036229896       -2.90389512820571        0.92727410847669
C           -8.32266824982692       -1.62193931003650        0.41794992560925
C           -7.10601457472997       -1.06507218481604        0.04943234325828
C           -7.08749818128859        0.34942249743821       -0.47387099842929
C           -7.90113736979591        1.26388210151052        0.42130264147411
C           -7.67662071185505        1.58418402160279        1.74231780540806
C           -8.55977176767376        2.44997263274774        2.37467035449268
C           -9.64413488423072        2.98096105350495        1.69239839081939
C           -9.87395844853567        2.66142545287339        0.36315196868793
C           -8.99625881291373        1.79848955703783       -0.27268686628905
C           -8.97333011847605        1.28782128927740       -1.63575292973645
C           -9.82272113116813        1.51116559528912       -2.70704771101284
C           -9.55088363542401        0.88229502815453       -3.91208327322773
C           -8.45221123783039        0.04695628837307       -4.04663346348582
C           -7.59699523870623       -0.18046525425780       -2.97604214928908
C           -7.86480495388617        0.44120397875296       -1.77635092858178
C           -5.68965066564700        0.88145123865065       -0.67330909234446
C           -5.53059407056166        2.20180195031459       -1.00139933841856
C           -4.26857836241138        2.76179964301313       -1.27422525129538
C           -4.08911074711588        4.12549640262754       -1.57964971776449
C           -2.84266361566523        4.61883828346534       -1.85180499476257
C           -1.72484623030849        3.76852222672446       -1.83553665485733
C           -1.86937351203678        2.43971741805151       -1.54993716657968
C           -3.14134861155115        1.90211940994040       -1.25579483095659
C           -3.32070267262868        0.54774955768459       -0.93000711907214
C           -4.55677470147756        0.03336359703726       -0.59209255208218
C           -2.52409994209695       -1.80556965488229        0.74843429514570
C           -1.37545773649402       -2.56821052973798        0.77327864604429
C            1.22952902833364       -3.69767289183439        0.03457026531072
C            1.35283036374924       -2.56955374083202       -0.77695780753215
C            2.50681125936061       -1.81514425803018       -0.74864704352707
C            3.53883732660211       -2.14513705925026        0.12827806403730
N            4.69340555255545       -1.33084431941275        0.20522822667869
C            5.91978076787374       -1.85692478535144       -0.19086620497359
C            5.99303589959154       -3.13339718919220       -0.75734258852004
C            7.20437784345064       -3.67365439051939       -1.13773544800241
C            8.37350192139090       -2.94951426146214       -0.97571115009565
C            8.30505721026483       -1.67169327337672       -0.45442546484866
C            7.09483814721007       -1.11110233728985       -0.07066453450613
C            7.08925155526543        0.29810516403593        0.46734563674394
C            7.90261847340920        1.21651500579777       -0.42407222440587
C            7.66982589473002        1.55400720209734       -1.73938972082527
C            8.55497006509305        2.41960999858944       -2.36921626491018
C            9.64956316300152        2.93346893024801       -1.69016886894461
C            9.88779334811444        2.59660574048706       -0.36670404408273
C            9.00804734839410        1.73392546494835        0.26664392929865
C            8.99221466699828        1.20805309000194        1.62400316409479
C            9.85270920727854        1.41154451633406        2.69038396179780
C            9.58552400382331        0.77140193191249        3.89050547600380
C            8.48061724569244       -0.05567142602879        4.02507594508244
C            7.61439368815199       -0.26333582218900        2.95934690609876
C            7.87751589492589        0.36960206311829        1.76452392975327
C            5.69635843853146        0.83675138329815        0.68297014504782
C            5.54778678080248        2.15479963739314        1.02497790192875
C            4.29109386682974        2.71997303929993        1.31153481811075
C            4.12195359958603        4.08198804939974        1.63013303789332
C            2.88024700742045        4.58058776179356        1.91416291948755
C            1.75708359953387        3.73737090122467        1.89735566943580
C            1.89163262269266        2.41025752122913        1.59932032602410
C            3.15839537087150        1.86751101308076        1.29246160012321
C            3.32714568129418        0.51514798669644        0.95298907298285
C            4.55767729681154       -0.00354570847521        0.60175846970835
C            3.42191018231553       -3.27689049268245        0.93214498248017
C            2.28674033634785       -4.06123984632496        0.86504049592294
H           -2.22402946537631       -4.91641802491859       -1.50731212362300
H           -4.24812885469781       -3.49480781628010       -1.62457078758180
H           -5.12472501106128       -3.67909489674739        0.88136116906256
H           -7.27535505823318       -4.63019435978499        1.51371371036734
H           -9.35932313412986       -3.32083070427067        1.20311472654101
H           -9.21998848380101       -1.03117386177399        0.30327212029337
H           -6.83252819929537        1.17120290596002        2.27588963965553
H           -8.39983884989732        2.71288897558086        3.41027079056903
H          -10.31833714204853        3.65260637184107        2.20421090474137
H          -10.71980190714683        3.07753356922567       -0.16408069498489
H          -10.67928578713038        2.16155060065174       -2.60760722900447
H          -10.20308082977588        1.04499302901747       -4.75815254970778
H           -8.25873764909847       -0.43218629417665       -4.99545135730264
H           -6.74043042418279       -0.83019387252569       -3.08461180954219
H           -6.40149904240684        2.83962484094752       -1.05984748603724
H           -4.95468414845727        4.77310626914981       -1.59200954504944
H           -2.70811955185906        5.66608530172646       -2.08145981658004
H           -0.74687603805527        4.17546029946092       -2.05002791479799
H           -1.00981537470254        1.78422491084197       -1.53622965249384
H           -2.44880210872945       -0.08724808126991       -0.94448598110044
H           -2.62674789255931       -0.95219362332280        1.40204589996518
H           -0.57445910038284       -2.31395784225856        1.45107492009337
H            0.55160727820315       -2.30353539515393       -1.44996429336964
H            2.61347101221485       -0.95651673741032       -1.39469721780850
H            5.09151274201977       -3.70645483371288       -0.90840929155769
H            7.23124484561704       -4.66444026451206       -1.56686038236069
H            9.32517294979216       -3.36940960980359       -1.26334993654961
H            9.20682048385711       -1.08732192536666       -0.34199728532752
H            6.81779311611760        1.15445724573380       -2.27056367928686
H            8.38853900979275        2.69594369119162       -3.40029375822313
H           10.32515884957099        3.60523707631738       -2.19996751845803
H           10.74159755382507        2.99933250267808        0.15808967655787
H           10.71433029282494        2.05521608817750        2.59090286719460
H           10.24659543369935        0.91839472919449        4.73253325290863
H            8.29096233092159       -0.54391018898138        4.97001587583916
H            6.75318487391580       -0.90691228380541        3.06777995546531
H            6.42304464150622        2.78666959903557        1.08331222422544
H            4.99157396525722        4.72414666602532        1.64291969994154
H            2.75355284312355        5.62661096887468        2.15365903802296
H            0.78299365304527        4.14845295220256        2.12136246273480
H            1.02798885332398        1.76015763005964        1.58518084942021
H            2.45141914265084       -0.11460798068886        0.96708663568583
H            4.22659767428389       -3.53812144788589        1.60310392538715
H            2.19187506679079       -4.94429371089548        1.47951725667694

          :  Hamiltonian                  GFN2-xTB          :
         :: gradient norm              0.000025909079 Eh/a0 ::
         :: HOMO-LUMO gap              1.589381036290 eV    ::
         :: SCC energy              -188.027179122670 Eh    ::
         :: -> dispersion             -0.186655723848 Eh    ::
         :: -> Gsolv                  -0.075194142666 Eh    ::
         :: repulsion energy           3.478545713281 Eh    ::

    * Orbital Energies and Occupations

         #    Occupation            Energy/Eh            Energy/eV
      -------------------------------------------------------------
         1        2.0000           -0.7176205             -19.5274
       ...           ...                  ...                  ...
       160        2.0000           -0.4025606             -10.9542
       161        2.0000           -0.4024457             -10.9511
       162        2.0000           -0.4004387             -10.8965
       163        2.0000           -0.3977338             -10.8229
       164        2.0000           -0.3976607             -10.8209
       165        2.0000           -0.3968582             -10.7991
       166        2.0000           -0.3968452             -10.7987
       167        2.0000           -0.3816081             -10.3841
       168        2.0000           -0.3815953             -10.3837
       169        2.0000           -0.3757595             -10.2249
       170        2.0000           -0.3757284             -10.2241
       171        2.0000           -0.3523078              -9.5868
       172        2.0000           -0.3521340              -9.5821 (HOMO)
       173                         -0.2937253              -7.9927 (LUMO)
       174                         -0.2587722              -7.0415
       175                         -0.2577811              -7.0146
       176                         -0.2528609              -6.8807
       177                         -0.2528266              -6.8798
       178                         -0.2495324              -6.7901
       179                         -0.2458749              -6.6906
       180                         -0.2421177              -6.5884
       181                         -0.2337023              -6.3594
       182                         -0.2336921              -6.3591
       183                         -0.2260474              -6.1511
       ...                                ...                  ...
       340                          0.7272317              19.7890
      -------------------------------------------------------------
                  HL-Gap            0.0584087 Eh            1.5894 eV

     #   Z          covCN         q      C6AA      α(0)
     1   8 O        0.857    -0.408    21.835     6.265
     2   6 C        2.828     0.232    23.137     7.882
     3   6 C        2.975    -0.015    28.369     8.737
     4   6 C        2.921    -0.017    28.445     8.746
     5   6 C        2.920    -0.036    28.906     8.817
     6   6 C        2.927     0.073    26.362     8.420
     7   7 N        2.751    -0.062    22.440     7.036
     8   6 C        2.923     0.058    26.697     8.473
     9   6 C        2.924    -0.057    29.425     8.896
    10   6 C        2.920    -0.033    28.815     8.803
    11   6 C        2.917    -0.042    29.048     8.838
    12   6 C        2.926    -0.035    28.881     8.813
    13   6 C        2.983    -0.006    28.174     8.707
    14   6 C        3.950     0.013    20.290     6.401
    15   6 C        3.056     0.002    27.925     8.666
    16   6 C        2.914    -0.033    28.822     8.804
    17   6 C        2.922    -0.032    28.808     8.802
    18   6 C        2.921    -0.033    28.826     8.805
    19   6 C        2.914    -0.035    28.876     8.812
    20   6 C        3.033     0.000    27.984     8.677
    21   6 C        3.034     0.001    27.982     8.677
    22   6 C        2.915    -0.035    28.866     8.810
    23   6 C        2.921    -0.033    28.828     8.805
    24   6 C        2.922    -0.033    28.812     8.802
    25   6 C        2.914    -0.034    28.844     8.807
    26   6 C        3.058     0.002    27.924     8.666
    27   6 C        2.979    -0.003    28.094     8.694
    28   6 C        2.924    -0.043    29.069     8.842
    29   6 C        2.986     0.003    27.954     8.673
    30   6 C        2.917    -0.036    28.890     8.814
    31   6 C        2.916    -0.034    28.855     8.809
    32   6 C        2.916    -0.031    28.781     8.797
    33   6 C        2.918    -0.039    28.973     8.827
    34   6 C        2.986     0.010    27.793     8.648
    35   6 C        2.924    -0.071    29.771     8.948
    36   6 C        2.919     0.058    26.709     8.475
    37   6 C        2.920    -0.036    28.903     8.816
    38   6 C        2.922    -0.025    28.624     8.774
    39   6 C        2.974    -0.014    28.369     8.737
    40   6 C        2.922    -0.025    28.624     8.774
    41   6 C        2.920    -0.036    28.902     8.816
    42   6 C        2.927     0.073    26.360     8.420
    43   7 N        2.751    -0.062    22.442     7.036
    44   6 C        2.923     0.058    26.696     8.473
    45   6 C        2.924    -0.057    29.426     8.896
    46   6 C        2.920    -0.033    28.815     8.803
    47   6 C        2.917    -0.042    29.048     8.838
    48   6 C        2.926    -0.035    28.882     8.813
    49   6 C        2.983    -0.006    28.174     8.707
    50   6 C        3.950     0.013    20.290     6.401
    51   6 C        3.056     0.002    27.925     8.666
    52   6 C        2.914    -0.033    28.822     8.804
    53   6 C        2.922    -0.032    28.808     8.802
    54   6 C        2.921    -0.033    28.826     8.805
    55   6 C        2.914    -0.035    28.876     8.812
    56   6 C        3.033     0.000    27.984     8.677
    57   6 C        3.034     0.001    27.983     8.677
    58   6 C        2.915    -0.035    28.866     8.810
    59   6 C        2.921    -0.033    28.828     8.805
    60   6 C        2.922    -0.033    28.812     8.802
    61   6 C        2.914    -0.034    28.844     8.807
    62   6 C        3.058     0.002    27.924     8.666
    63   6 C        2.979    -0.003    28.094     8.694
    64   6 C        2.924    -0.043    29.069     8.842
    65   6 C        2.986     0.003    27.953     8.673
    66   6 C        2.917    -0.036    28.890     8.814
    67   6 C        2.916    -0.034    28.855     8.809
    68   6 C        2.916    -0.031    28.781     8.797
    69   6 C        2.918    -0.039    28.973     8.827
    70   6 C        2.986     0.010    27.793     8.648
    71   6 C        2.924    -0.071    29.771     8.948
    72   6 C        2.919     0.058    26.709     8.475
    73   6 C        2.920    -0.036    28.905     8.816
    74   6 C        2.921    -0.017    28.444     8.746
    75   1 H        0.926     0.052     2.300     2.371
    76   1 H        0.926     0.054     2.274     2.358
    77   1 H        0.926     0.032     2.562     2.503
    78   1 H        0.926     0.033     2.544     2.494
    79   1 H        0.926     0.030     2.580     2.512
    80   1 H        0.926     0.029     2.604     2.523
    81   1 H        0.926     0.026     2.639     2.540
    82   1 H        0.926     0.032     2.554     2.499
    83   1 H        0.926     0.032     2.554     2.499
    84   1 H        0.926     0.033     2.546     2.495
    85   1 H        0.926     0.033     2.539     2.492
    86   1 H        0.926     0.033     2.550     2.497
    87   1 H        0.926     0.032     2.553     2.499
    88   1 H        0.926     0.026     2.642     2.542
    89   1 H        0.926     0.030     2.585     2.514
    90   1 H        0.926     0.028     2.608     2.526
    91   1 H        0.926     0.028     2.616     2.529
    92   1 H        0.926     0.029     2.597     2.520
    93   1 H        0.926     0.030     2.582     2.513
    94   1 H        0.926     0.033     2.545     2.495
    95   1 H        0.926     0.055     2.254     2.348
    96   1 H        0.926     0.048     2.350     2.397
    97   1 H        0.926     0.048     2.350     2.397
    98   1 H        0.926     0.055     2.255     2.348
    99   1 H        0.926     0.032     2.562     2.503
   100   1 H        0.926     0.033     2.544     2.494
   101   1 H        0.926     0.030     2.580     2.512
   102   1 H        0.926     0.029     2.604     2.523
   103   1 H        0.926     0.026     2.639     2.540
   104   1 H        0.926     0.032     2.554     2.499
   105   1 H        0.926     0.032     2.554     2.499
   106   1 H        0.926     0.033     2.546     2.495
   107   1 H        0.926     0.033     2.539     2.492
   108   1 H        0.926     0.033     2.550     2.497
   109   1 H        0.926     0.032     2.553     2.499
   110   1 H        0.926     0.026     2.642     2.542
   111   1 H        0.926     0.030     2.585     2.514
   112   1 H        0.926     0.028     2.608     2.526
   113   1 H        0.926     0.028     2.616     2.529
   114   1 H        0.926     0.029     2.597     2.520
   115   1 H        0.926     0.030     2.582     2.513
   116   1 H        0.926     0.033     2.546     2.495
   117   1 H        0.926     0.054     2.273     2.358
   118   1 H        0.926     0.052     2.298     2.371

molecular dipole:
                 x           y           z       tot (Debye)
 q only:        0.002       0.957       0.002
   full:        0.002       1.034       0.002       2.628

 projected vibrational frequencies (cm⁻¹)
eigval :       -0.00    -0.00    -0.00     0.00     0.00     0.00
eigval :        2.66     3.35     6.12    11.10    11.53    24.38
eigval :       31.43    33.33    38.69    38.93    39.88    42.97
eigval :       46.25    55.13    57.33    64.48    71.37    82.57
eigval :       83.07    91.57    96.36   108.33   114.96   119.22
eigval :      129.82   132.91   133.13   139.09   142.82   146.32
eigval :      148.73   153.82   181.59   182.19   207.08   213.38
eigval :      234.72   235.38   239.00   248.36   252.48   255.92
eigval :      266.06   267.59   275.28   287.61   294.05   295.43
eigval :      305.43   307.20   310.81   320.55   351.04   362.96
eigval :      375.82   378.85   382.49   384.06   388.51   390.59
eigval :      410.99   412.74   416.18   421.31   422.87   431.08
eigval :      438.32   439.28   445.35   446.87   450.82   456.02
eigval :      467.57   468.01   479.45   482.30   501.12   501.34
eigval :      505.62   507.25   509.96   512.41   512.74   514.54
eigval :      539.95   540.02   541.31   551.42   556.34   558.07
eigval :      574.93   584.61   584.80   594.16   596.04   596.11
eigval :      597.33   600.30   607.60   610.53   619.44   619.52
eigval :      637.06   660.04   660.50   663.92   672.54   673.91
eigval :      681.36   683.20   684.56   686.40   696.53   709.31
eigval :      713.43   713.77   730.90   731.00   733.86   741.53
eigval :      752.72   752.75   761.18   763.21   764.78   766.43
eigval :      776.74   778.27   783.65   784.63   811.66   812.54
eigval :      820.92   821.08   827.37   827.94   847.38   847.90
eigval :      868.96   869.54   870.32   871.17   873.56   874.48
eigval :      875.88   875.99   876.11   877.65   878.28   878.94
eigval :      882.13   888.21   895.71   896.22   896.98   905.69
eigval :      907.83   908.12   908.53   913.59   914.12   915.14
eigval :      915.74   919.59   920.60   920.64   922.18   922.93
eigval :      925.18   925.46   926.51   926.58   927.27   927.59
eigval :      927.89   929.50   932.20   933.12   952.37   977.28
eigval :      977.29  1004.61  1004.62  1012.27  1025.98  1073.27
eigval :     1073.39  1077.28  1077.54  1077.86  1077.93  1083.27
eigval :     1083.31  1109.85  1109.92  1128.25  1128.84  1133.48
eigval :     1133.85  1141.50  1141.55  1143.72  1143.93  1159.48
eigval :     1159.59  1173.17  1173.56  1174.49  1177.78  1178.49
eigval :     1179.10  1179.68  1180.10  1184.89  1185.95  1186.54
eigval :     1191.93  1196.96  1201.92  1202.27  1208.11  1208.62
eigval :     1219.13  1222.76  1230.83  1231.14  1237.16  1238.29
eigval :     1245.67  1251.40  1256.53  1258.33  1258.49  1259.24
eigval :     1259.61  1272.18  1272.38  1273.20  1273.46  1282.06
eigval :     1282.24  1305.12  1305.69  1305.95  1306.48  1313.57
eigval :     1315.53  1324.26  1324.27  1329.22  1329.31  1333.74
eigval :     1334.15  1365.04  1365.05  1372.91  1373.20  1399.30
eigval :     1400.02  1409.75  1409.81  1427.10  1427.27  1428.47
eigval :     1428.52  1434.88  1435.10  1444.59  1444.76  1450.58
eigval :     1450.81  1459.45  1459.47  1469.74  1469.79  1470.90
eigval :     1471.73  1483.28  1483.36  1502.95  1503.15  1554.64
eigval :     1555.10  1559.01  1559.05  1576.38  1577.25  1581.12
eigval :     1581.29  1584.59  1584.60  1587.87  1587.91  1594.73
eigval :     1594.77  1598.96  1599.00  1602.69  1602.73  1603.00
eigval :     1603.00  1607.00  1607.04  1672.52  3063.67  3063.73
eigval :     3065.09  3065.31  3068.45  3068.68  3069.26  3069.38
eigval :     3071.48  3071.81  3072.50  3072.79  3073.53  3073.80
eigval :     3074.58  3075.09  3076.89  3077.58  3079.07  3079.38
eigval :     3079.80  3079.89  3080.57  3080.81  3083.39  3084.49
eigval :     3085.11  3085.31  3085.36  3085.71  3087.42  3087.59
eigval :     3089.58  3089.77  3093.59  3093.69  3094.87  3095.19
eigval :     3096.37  3097.04  3100.57  3100.81  3101.74  3101.95

   temp. (K)  partition function   enthalpy   heat capacity  entropy
                                   cal/mol     cal/K/mol   cal/K/mol   J/K/mol
 298.15  VIB  0.114E+29            33832.743    215.551    213.406
         ROT  0.148E+09              888.752      2.981     40.365
         INT  0.169E+37            34721.495    218.532    253.771
         TR   0.279E+29             1481.254      4.968     46.380
         TOT                       36202.7489   223.4997   300.1503  1255.8287

       T/K    H(0)-H(T)+PV         H(T)/Eh          T*S/Eh         G(T)/Eh
   ------------------------------------------------------------------------
    298.15    0.576928E-01    0.961166E+00    0.142611E+00    0.818555E+00
   ------------------------------------------------------------------------

         :::::::::::::::::::::::::::::::::::::::::::::::::::::
         ::                  THERMODYNAMIC                  ::
         :::::::::::::::::::::::::::::::::::::::::::::::::::::
         :: total free energy        -183.730078343660 Eh   ::
         ::.................................................::
         :: total energy             -184.548633411494 Eh   ::
         :: zero point energy           0.903473391462 Eh   ::
         :: G(RRHO) w/o ZPVE           -0.084918323628 Eh   ::
         :: G(RRHO) contrib.            0.818555067834 Eh   ::
         :::::::::::::::::::::::::::::::::::::::::::::::::::::

           -------------------------------------------------
          | TOTAL ENERGY             -184.548633411494 Eh   |
          | TOTAL ENTHALPY           -183.587467267336 Eh   |
          | TOTAL FREE ENERGY        -183.730078343660 Eh   |
          | GRADIENT NORM               0.000025906930 Eh/α |
          | HOMO-LUMO GAP               1.589380892167 eV   |
           -------------------------------------------------

 * finished run on 2025/09/05 at 08:49:40.200
