   * xtb version 6.7.1 (edcfbbe) compiled by 'albert@albert-system' on 2024-07-22

   ID    Z sym.   atoms
    1    8 O      1
    2    6 C      2-6, 8-42, 44-74
    3    7 N      7, 43
    4    1 H      75-118

          program call               : xtb data2507/toluene/2SPBAC-BP/2SPBAC-BP.xyz --gfn 2 --gbsa toluene --ohess vtight --parallel 40 --molden --ceasefiles --namespace data2507/toluene/2SPBAC-BP/2SPBAC-BP_toluene_S0_preOpt
      * Solvation model:               GBSA
        Solvent                        toluene
        Solvent mass                       9.2140E+01 g/mol
          :  Hamiltonian                  GFN2-xTB          :
 * total energy  :  -184.5106789 Eh     change       -0.6475403E-08 Eh
 * total energy  :  -184.5362902 Eh     change       -0.2561133E-01 Eh
 * total energy  :  -184.5454456 Eh     change       -0.9155421E-02 Eh
 * total energy  :  -184.5472191 Eh     change       -0.1773459E-02 Eh
 * total energy  :  -184.5480062 Eh     change       -0.7871077E-03 Eh
 * total energy  :  -184.5484314 Eh     change       -0.4251708E-03 Eh
 * total energy  :  -184.5487088 Eh     change       -0.2774465E-03 Eh
 * total energy  :  -184.5488716 Eh     change       -0.1627523E-03 Eh
 * total energy  :  -184.5489584 Eh     change       -0.8679329E-04 Eh
 * total energy  :  -184.5490496 Eh     change       -0.9125527E-04 Eh
 * total energy  :  -184.5497787 Eh     change       -0.5223563E-06 Eh
 * total energy  :  -184.5497794 Eh     change       -0.7239017E-06 Eh
 * total energy  :  -184.5497803 Eh     change       -0.9588046E-06 Eh
 * total energy  :  -184.5497806 Eh     change       -0.2953984E-06 Eh
 * total energy  :  -184.5497812 Eh     change       -0.5785368E-06 Eh
 * total energy  :  -184.5497813 Eh     change       -0.1332234E-06 Eh
 * total energy  :  -184.5497816 Eh     change       -0.2580458E-06 Eh
 * total energy  :  -184.5497818 Eh     change       -0.1602099E-06 Eh
 * total energy  :  -184.5497818 Eh     change       -0.8208102E-07 Eh
   *** GEOMETRY OPTIMIZATION CONVERGED AFTER 157 ITERATIONS ***

 final structure:
================
118
 xtb: 6.7.1 (edcfbbe)
O            0.01954073952952        4.27461240886390        2.90772094754941
C            0.02978483712593        3.26345126764512        2.22312435708612
C           -1.22850952461226        2.58093610045467        1.83482210943239
C           -1.29996242112756        1.19434182406470        1.70197244724020
C           -2.49999030230521        0.58838000098489        1.38491538753805
C           -3.64225728109590        1.35883193197840        1.18844454316465
N           -4.87241796743563        0.73266603445390        0.85439039019262
C           -5.57022652066891        0.05215243969159        1.84354814645325
C           -5.09005670828932        0.02740418762232        3.15650577585956
C           -5.77106001034484       -0.65041388425461        4.14704765382168
C           -6.95052293074265       -1.31440764380724        3.85446329385068
C           -7.44354553796782       -1.27416333201972        2.56380644459889
C           -6.77353751137884       -0.59647950157901        1.55533488389735
C           -7.38773012146064       -0.55974840114070        0.17752456051624
C           -8.78370784555874        0.03479932884464        0.24149475572259
C           -9.15380790192182        1.30449828906461        0.62697626461423
C          -10.50229873012705        1.63684662258709        0.61004158702361
C          -11.45630028230246        0.71135931537739        0.21446810702569
C          -11.08837240831213       -0.56754219404826       -0.17349082091435
C           -9.74468630008376       -0.90434609697822       -0.15889191207688
C           -9.06412663241564       -2.14415995230390       -0.50381155168086
C           -9.55573324244047       -3.36030268688898       -0.94945935814204
C           -8.65838895687797       -4.38594980997986       -1.20321317249182
C           -7.29673071691755       -4.20263738298885       -1.01535430370745
C           -6.79828418993736       -2.98545899899759       -0.56879029502182
C           -7.68644745390850       -1.96348687231871       -0.31520836716552
C           -6.54329420599306        0.18749453982584       -0.82615422058091
C           -6.97421249727603        0.26069019057382       -2.12378337633710
C           -6.24261063237232        0.93323520578523       -3.12085128206560
C           -6.68212819047276        1.01845503655244       -4.45665365811599
C           -5.93577820607647        1.67771968161016       -5.39433501007949
C           -4.71829536316071        2.27830349229757       -5.03467202747907
C           -4.26547545713745        2.21098778677450       -3.74668308423203
C           -5.01321728837785        1.53898136071410       -2.75545870139198
C           -4.57874505871985        1.45097186747598       -1.42264043900005
C           -5.32262549726344        0.80401804243100       -0.45596725528295
C           -3.57874086838068        2.74210141486742        1.32760007596761
C           -2.38241912892177        3.34471794480706        1.66003853575610
C            1.29999669744456        2.66360182909297        1.75035476406889
C            2.43896255709042        2.78961370845517        2.54589015140742
C            3.64420376256449        2.25927673407991        2.13412044667536
C            3.73568669234686        1.61658213463023        0.90206556379281
N            4.97533069988476        1.07476626203844        0.47686184481980
C            6.00065793492632        1.94378709185077        0.12274054100608
C            5.77523885841274        3.32334670759347        0.08564806439369
C            6.78528996272721        4.19797440167609       -0.25927537071049
C            8.04231117207215        3.71833951516555       -0.58709231737145
C            8.26446816580921        2.35434033647730       -0.58101604957641
C            7.26057795738489        1.45997723845226       -0.23755105244876
C            7.56519801389835       -0.01708986422825       -0.27685619890054
C            8.72669744782065       -0.34460321206545        0.64492784904943
C            8.79696320107712       -0.20154426195711        2.01315407192506
C            9.97197848261584       -0.56372642546844        2.65920952094257
C           11.05142871200390       -1.05928856217503        1.94352490843250
C           10.98469298007552       -1.20592642564540        0.56674667943605
C            9.81505280090279       -0.84641897683699       -0.08270836721959
C            9.45148077554569       -0.88450210007772       -1.49178970622170
C           10.16552961153593       -1.29263718305865       -2.60662079676867
C            9.55686133993595       -1.21476767633558       -3.84962947742601
C            8.26070761989013       -0.73876832548848       -3.97839517995352
C            7.53997759276859       -0.32868273152044       -2.86406039419376
C            8.14089113335622       -0.40451412631495       -1.62675934442268
C            6.37025880619469       -0.87485085132942        0.06201617881797
C            6.50973307854910       -2.23668329532556        0.02567247192278
C            5.45767102512562       -3.10882384766183        0.36255922404947
C            5.59021734063034       -4.51080919833665        0.31978442288368
C            4.54384577508623       -5.31955668329072        0.66886361068008
C            3.32200790714251       -4.75945885056292        1.07610893783856
C            3.16441705841315       -3.40270805343081        1.12893317943539
C            4.22456797337683       -2.54100902652909        0.77273884045512
C            4.09607239657983       -1.14281475840049        0.81090882607834
C            5.13048667668590       -0.30499659640433        0.44423897382020
C            2.60915937677043        1.51468413065515        0.08992425815558
C            1.39873607530873        2.02778982358742        0.51249887674931
H           -0.42146970016129        0.59008025014587        1.86919844057306
H           -2.56275578868136       -0.48549012212649        1.29030014997299
H           -4.17906811087878        0.55042833155450        3.40381284060502
H           -5.37759832616215       -0.65545931516999        5.15292919891311
H           -7.48595525551673       -1.84867165393241        4.62437475553848
H           -8.37097975435813       -1.77501130098580        2.32579158693371
H           -8.41295337658480        2.02752979510653        0.93690946407675
H          -10.81148853839737        2.62792469097723        0.90905808893304
H          -12.49996861615223        0.99135076081238        0.20950953316087
H          -11.83521287857145       -1.28508047052784       -0.48002582260644
H          -10.61546056057394       -3.50806603209333       -1.09703124534945
H           -9.02422727105661       -5.34137747511239       -1.55112100189042
H           -6.61537713435951       -5.01588870156722       -1.21934625837051
H           -5.73670563516143       -2.84543382470711       -0.42381432384607
H           -7.90639763534524       -0.21312394013609       -2.39865002599396
H           -7.62025719305058        0.55274915444688       -4.72484420330293
H           -6.27633411760040        1.74169509742191       -6.41780236431356
H           -4.14133475961118        2.79544488000581       -5.78817997929151
H           -3.32884495136366        2.67338760353064       -3.46761374945444
H           -3.63476508596730        1.90775646759127       -1.16614597306404
H           -4.46965382780029        3.33375853182274        1.17918549208342
H           -2.32021551224495        4.41577129769236        1.78466913583444
H            2.35458855093706        3.29549302049357        3.49636336344466
H            4.52258136183689        2.34478045466880        2.75623314996312
H            4.79800926865438        3.71358077823678        0.32459171423914
H            6.58495017501327        5.25919754576528       -0.27551295446147
H            8.83777437840809        4.39734438109605       -0.85367543812910
H            9.23605160757845        1.96602426632078       -0.85064439232063
H            7.95752744384475        0.18375645599400        2.57393997870736
H           10.04533318362251       -0.45828474582357        3.73192228813057
H           11.95612700717903       -1.33430340128452        2.46661725490021
H           11.82790184275111       -1.59280860882717        0.01367348664263
H           11.17534356479123       -1.66380557113095       -2.51125181890549
H           10.09921156593622       -1.52792936108850       -4.73027082993353
H            7.80590248248764       -0.68592444681834       -4.95695046662650
H            6.53058744952892        0.04270808884828       -2.96769136907385
H            7.45992151706522       -2.66247255157904       -0.26541961112413
H            6.53455242122687       -4.93354622088215        0.00619851842553
H            4.64918302151143       -6.39441611907255        0.63458414964502
H            2.50578002933032       -5.41337026853295        1.34855374557089
H            2.22461020003225       -2.96976296263152        1.44211143732781
H            3.15451231319254       -0.73167930939653        1.14131982382639
H            2.69173946947657        1.03053260013299       -0.87171732603255
H            0.53439082883451        1.96185851147120       -0.13069782638583

          :  Hamiltonian                  GFN2-xTB          :
         :: gradient norm              0.000048520021 Eh/a0 ::
         :: HOMO-LUMO gap              1.412524143939 eV    ::
         :: SCC energy              -188.028488034013 Eh    ::
         :: -> dispersion             -0.184755899142 Eh    ::
         :: -> Gsolv                  -0.075570470097 Eh    ::
         :: repulsion energy           3.478706188435 Eh    ::

    * Orbital Energies and Occupations

         #    Occupation            Energy/Eh            Energy/eV
      -------------------------------------------------------------
         1        2.0000           -0.7164217             -19.4948
       ...           ...                  ...                  ...
       160        2.0000           -0.4027181             -10.9585
       161        2.0000           -0.4022918             -10.9469
       162        2.0000           -0.4017170             -10.9313
       163        2.0000           -0.3976279             -10.8200
       164        2.0000           -0.3975065             -10.8167
       165        2.0000           -0.3967616             -10.7964
       166        2.0000           -0.3965532             -10.7908
       167        2.0000           -0.3816145             -10.3843
       168        2.0000           -0.3814564             -10.3800
       169        2.0000           -0.3756936             -10.2231
       170        2.0000           -0.3754622             -10.2168
       171        2.0000           -0.3519170              -9.5761
       172        2.0000           -0.3513078              -9.5596 (HOMO)
       173                         -0.2993985              -8.1470 (LUMO)
       174                         -0.2580966              -7.0232
       175                         -0.2574705              -7.0061
       176                         -0.2527221              -6.8769
       177                         -0.2525720              -6.8728
       178                         -0.2506710              -6.8211
       179                         -0.2469606              -6.7201
       180                         -0.2440266              -6.6403
       181                         -0.2334694              -6.3530
       182                         -0.2331904              -6.3454
       183                         -0.2259183              -6.1476
       ...                                ...                  ...
       340                          0.7274382              19.7946
      -------------------------------------------------------------
                  HL-Gap            0.0519093 Eh            1.4125 eV

     #   Z          covCN         q      C6AA      α(0)
     1   8 O        0.858    -0.412    21.915     6.276
     2   6 C        2.829     0.229    23.198     7.892
     3   6 C        2.972    -0.013    28.333     8.731
     4   6 C        2.920    -0.024    28.605     8.771
     5   6 C        2.920    -0.035    28.877     8.812
     6   6 C        2.928     0.076    26.301     8.410
     7   7 N        2.753    -0.066    22.508     7.046
     8   6 C        2.924     0.059    26.685     8.471
     9   6 C        2.924    -0.058    29.447     8.899
    10   6 C        2.920    -0.033    28.818     8.803
    11   6 C        2.917    -0.043    29.069     8.841
    12   6 C        2.926    -0.035    28.880     8.813
    13   6 C        2.983    -0.007    28.194     8.710
    14   6 C        3.950     0.013    20.291     6.401
    15   6 C        3.058     0.002    27.925     8.666
    16   6 C        2.914    -0.034    28.836     8.806
    17   6 C        2.922    -0.033    28.811     8.802
    18   6 C        2.921    -0.033    28.828     8.805
    19   6 C        2.914    -0.035    28.872     8.811
    20   6 C        3.033     0.000    27.985     8.677
    21   6 C        3.034     0.000    27.985     8.677
    22   6 C        2.914    -0.035    28.874     8.811
    23   6 C        2.921    -0.033    28.828     8.805
    24   6 C        2.922    -0.033    28.811     8.802
    25   6 C        2.914    -0.033    28.832     8.805
    26   6 C        3.057     0.002    27.924     8.666
    27   6 C        2.978    -0.003    28.102     8.696
    28   6 C        2.924    -0.043    29.063     8.841
    29   6 C        2.986     0.002    27.964     8.674
    30   6 C        2.918    -0.036    28.892     8.814
    31   6 C        2.916    -0.035    28.871     8.811
    32   6 C        2.916    -0.032    28.797     8.800
    33   6 C        2.918    -0.040    28.991     8.829
    34   6 C        2.986     0.009    27.798     8.649
    35   6 C        2.923    -0.071    29.775     8.948
    36   6 C        2.921     0.058    26.690     8.472
    37   6 C        2.919    -0.034    28.855     8.809
    38   6 C        2.924    -0.015    28.395     8.739
    39   6 C        2.972    -0.014    28.348     8.733
    40   6 C        2.924    -0.016    28.400     8.739
    41   6 C        2.919    -0.035    28.871     8.811
    42   6 C        2.928     0.075    26.314     8.413
    43   7 N        2.752    -0.064    22.481     7.042
    44   6 C        2.924     0.058    26.690     8.472
    45   6 C        2.924    -0.058    29.434     8.897
    46   6 C        2.920    -0.033    28.815     8.803
    47   6 C        2.917    -0.043    29.059     8.840
    48   6 C        2.926    -0.035    28.880     8.813
    49   6 C        2.983    -0.007    28.186     8.709
    50   6 C        3.950     0.013    20.292     6.401
    51   6 C        3.057     0.002    27.925     8.666
    52   6 C        2.914    -0.034    28.837     8.806
    53   6 C        2.922    -0.033    28.811     8.802
    54   6 C        2.921    -0.033    28.827     8.805
    55   6 C        2.914    -0.035    28.870     8.811
    56   6 C        3.034     0.001    27.984     8.677
    57   6 C        3.034     0.000    27.984     8.677
    58   6 C        2.914    -0.035    28.874     8.811
    59   6 C        2.921    -0.033    28.827     8.805
    60   6 C        2.922    -0.032    28.810     8.802
    61   6 C        2.914    -0.033    28.831     8.805
    62   6 C        3.057     0.002    27.925     8.666
    63   6 C        2.978    -0.003    28.099     8.695
    64   6 C        2.925    -0.043    29.062     8.841
    65   6 C        2.986     0.003    27.960     8.674
    66   6 C        2.918    -0.036    28.890     8.814
    67   6 C        2.916    -0.035    28.867     8.810
    68   6 C        2.916    -0.032    28.795     8.799
    69   6 C        2.918    -0.040    28.990     8.829
    70   6 C        2.986     0.010    27.796     8.648
    71   6 C        2.924    -0.071    29.776     8.949
    72   6 C        2.920     0.058    26.697     8.473
    73   6 C        2.920    -0.036    28.888     8.814
    74   6 C        2.920    -0.025    28.616     8.772
    75   1 H        0.926     0.054     2.266     2.354
    76   1 H        0.926     0.056     2.246     2.344
    77   1 H        0.926     0.029     2.594     2.519
    78   1 H        0.926     0.032     2.555     2.499
    79   1 H        0.926     0.030     2.592     2.518
    80   1 H        0.926     0.028     2.618     2.530
    81   1 H        0.926     0.026     2.649     2.545
    82   1 H        0.926     0.032     2.557     2.500
    83   1 H        0.926     0.032     2.553     2.498
    84   1 H        0.926     0.033     2.543     2.494
    85   1 H        0.926     0.033     2.547     2.496
    86   1 H        0.926     0.032     2.554     2.499
    87   1 H        0.926     0.032     2.553     2.499
    88   1 H        0.926     0.026     2.638     2.540
    89   1 H        0.925     0.030     2.592     2.518
    90   1 H        0.926     0.028     2.610     2.527
    91   1 H        0.926     0.028     2.618     2.530
    92   1 H        0.926     0.029     2.604     2.523
    93   1 H        0.926     0.029     2.603     2.523
    94   1 H        0.926     0.029     2.605     2.524
    95   1 H        0.926     0.054     2.266     2.354
    96   1 H        0.926     0.056     2.247     2.344
    97   1 H        0.926     0.055     2.254     2.348
    98   1 H        0.926     0.054     2.275     2.359
    99   1 H        0.926     0.030     2.584     2.514
   100   1 H        0.926     0.033     2.551     2.497
   101   1 H        0.926     0.030     2.587     2.515
   102   1 H        0.926     0.028     2.612     2.527
   103   1 H        0.926     0.026     2.647     2.544
   104   1 H        0.926     0.032     2.555     2.500
   105   1 H        0.926     0.032     2.552     2.498
   106   1 H        0.926     0.033     2.542     2.493
   107   1 H        0.926     0.033     2.545     2.495
   108   1 H        0.926     0.032     2.553     2.499
   109   1 H        0.926     0.032     2.553     2.499
   110   1 H        0.926     0.026     2.639     2.540
   111   1 H        0.926     0.030     2.591     2.517
   112   1 H        0.926     0.028     2.611     2.527
   113   1 H        0.926     0.028     2.617     2.530
   114   1 H        0.926     0.029     2.598     2.521
   115   1 H        0.926     0.030     2.591     2.517
   116   1 H        0.926     0.030     2.581     2.512
   117   1 H        0.926     0.057     2.240     2.340
   118   1 H        0.926     0.054     2.267     2.355

molecular dipole:
                 x           y           z       tot (Debye)
 q only:        0.123      -0.808      -0.474
   full:        0.127      -0.856      -0.504       2.546

 projected vibrational frequencies (cm⁻¹)
eigval :       -0.00    -0.00    -0.00     0.00     0.00     0.00
eigval :       -1.96     5.34     5.92     7.55     9.93    22.83
eigval :       27.43    30.42    34.48    34.93    39.37    41.29
eigval :       44.58    46.31    56.67    58.73    70.37    81.05
eigval :       81.61    82.53    86.05   106.52   109.31   118.23
eigval :      121.08   131.62   133.89   137.82   140.13   146.99
eigval :      148.13   152.51   181.28   189.72   202.95   215.49
eigval :      233.35   235.07   241.66   245.18   251.66   254.73
eigval :      268.38   271.93   275.35   284.69   289.82   290.90
eigval :      304.96   305.16   312.17   323.75   344.13   365.18
eigval :      368.66   377.52   382.97   384.41   388.53   389.26
eigval :      411.12   412.61   415.98   419.55   421.49   431.50
eigval :      437.04   443.26   444.53   445.34   446.29   452.33
eigval :      466.51   467.02   479.70   482.54   499.62   500.96
eigval :      501.79   505.27   507.91   509.94   513.13   513.38
eigval :      539.08   539.36   540.34   550.81   555.88   557.46
eigval :      575.27   584.37   584.56   594.80   595.41   595.88
eigval :      596.24   601.31   607.41   609.26   618.38   621.06
eigval :      634.45   657.67   659.49   659.73   672.39   674.28
eigval :      680.05   681.65   682.63   684.57   695.38   707.56
eigval :      712.79   713.48   730.90   730.93   736.68   741.15
eigval :      752.72   752.90   757.90   763.98   766.09   767.10
eigval :      773.14   775.28   785.42   785.65   809.21   811.51
eigval :      820.09   820.15   825.54   830.12   835.74   836.88
eigval :      863.82   865.33   868.35   870.15   871.27   872.38
eigval :      874.13   874.51   876.83   879.54   879.67   880.70
eigval :      881.86   887.53   894.96   895.49   897.53   906.08
eigval :      907.63   909.80   910.49   910.68   911.07   913.42
eigval :      917.78   918.80   920.11   920.45   920.51   920.64
eigval :      922.80   923.61   924.10   924.32   926.46   927.45
eigval :      929.52   929.82   930.00   932.39   955.14   976.97
eigval :      977.39  1004.43  1004.67  1012.63  1026.97  1072.93
eigval :     1073.46  1076.68  1077.36  1077.82  1077.98  1083.80
eigval :     1083.83  1107.43  1109.21  1127.77  1130.07  1133.68
eigval :     1134.29  1141.76  1141.81  1143.49  1144.74  1158.72
eigval :     1159.93  1171.28  1174.10  1175.87  1176.52  1177.80
eigval :     1178.13  1179.60  1180.49  1182.82  1183.72  1185.68
eigval :     1191.64  1197.12  1202.56  1202.94  1205.53  1206.72
eigval :     1219.14  1223.12  1231.00  1232.13  1237.61  1238.67
eigval :     1247.20  1251.07  1256.26  1258.10  1258.52  1259.29
eigval :     1263.37  1269.11  1269.61  1272.08  1273.42  1282.22
eigval :     1282.95  1306.55  1307.68  1308.93  1309.71  1312.71
eigval :     1314.56  1324.36  1324.59  1329.77  1329.85  1336.78
eigval :     1337.38  1365.26  1365.54  1374.71  1375.23  1398.07
eigval :     1399.94  1408.80  1409.00  1427.44  1427.62  1428.71
eigval :     1428.76  1435.41  1435.51  1446.36  1446.53  1451.70
eigval :     1452.75  1459.43  1460.17  1469.87  1469.93  1470.29
eigval :     1471.60  1484.53  1484.71  1504.27  1504.80  1555.17
eigval :     1557.15  1558.98  1559.13  1576.83  1579.13  1581.65
eigval :     1582.24  1584.69  1584.97  1588.13  1588.32  1594.92
eigval :     1595.12  1599.19  1599.42  1602.99  1603.05  1603.09
eigval :     1603.45  1607.11  1607.32  1654.40  3061.12  3062.71
eigval :     3063.36  3064.55  3068.35  3068.62  3068.96  3069.05
eigval :     3072.00  3072.08  3072.24  3072.32  3072.59  3072.85
eigval :     3073.02  3073.09  3076.06  3076.54  3078.88  3079.02
eigval :     3079.20  3079.38  3080.37  3080.53  3083.57  3084.26
eigval :     3085.91  3086.41  3087.06  3087.22  3087.56  3088.06
eigval :     3089.43  3089.50  3090.15  3091.26  3092.57  3094.60
eigval :     3096.00  3096.90  3097.79  3098.71  3099.20  3100.66

   temp. (K)  partition function   enthalpy   heat capacity  entropy
                                   cal/mol     cal/K/mol   cal/K/mol   J/K/mol
 298.15  VIB  0.556E+29            33979.818    215.103    215.049
         ROT  0.339E+09              888.752      2.981     42.012
         INT  0.188E+38            34868.570    218.084    257.061
         TR   0.279E+29             1481.254      4.968     46.380
         TOT                       36349.8241   223.0524   303.4407  1269.5958

       T/K    H(0)-H(T)+PV         H(T)/Eh          T*S/Eh         G(T)/Eh
   ------------------------------------------------------------------------
    298.15    0.579271E-01    0.960878E+00    0.144174E+00    0.816704E+00
   ------------------------------------------------------------------------

         :::::::::::::::::::::::::::::::::::::::::::::::::::::
         ::                  THERMODYNAMIC                  ::
         :::::::::::::::::::::::::::::::::::::::::::::::::::::
         :: total free energy        -183.733078256008 Eh   ::
         ::.................................................::
         :: total energy             -184.549781839818 Eh   ::
         :: zero point energy           0.902950914876 Eh   ::
         :: G(RRHO) w/o ZPVE           -0.086247331065 Eh   ::
         :: G(RRHO) contrib.            0.816703583810 Eh   ::
         :::::::::::::::::::::::::::::::::::::::::::::::::::::

           -------------------------------------------------
          | TOTAL ENERGY             -184.549781839818 Eh   |
          | TOTAL ENTHALPY           -183.588903793062 Eh   |
          | TOTAL FREE ENERGY        -183.733078256008 Eh   |
          | GRADIENT NORM               0.000048510037 Eh/α |
          | HOMO-LUMO GAP               1.412523774344 eV   |
           -------------------------------------------------

 * finished run on 2025/09/05 at 08:31:57.164
