   * xtb version 6.7.1 (edcfbbe) compiled by 'albert@albert-system' on 2024-07-22

   ID    Z sym.   atoms
    1    8 O      1
    2    6 C      2-6, 8-42, 44-74
    3    7 N      7, 43
    4    1 H      75-118

          program call               : xtb data2507/toluene/2SPBAC-BP/2SPBAC-BP_toluene_S0_finalOpt.xtbopt.xyz --gfn 2 --uhf 2 --gbsa toluene --ohess vtight --parallel 40 --molden --ceasefiles --namespace data2507/toluene/2SPBAC-BP/2SPBAC-BP_toluene_T1_preOpt
      * Solvation model:               GBSA
        Solvent                        toluene
        Solvent mass                       9.2140E+01 g/mol
          :  Hamiltonian                  GFN2-xTB          :
 * total energy  :  -184.4675742 Eh     change       -0.2515861E-08 Eh
 * total energy  :  -184.4702120 Eh     change       -0.2637820E-02 Eh
 * total energy  :  -184.4709389 Eh     change       -0.7269035E-03 Eh
 * total energy  :  -184.4710992 Eh     change       -0.1603500E-03 Eh
 * total energy  :  -184.4712436 Eh     change       -0.1443753E-03 Eh
 * total energy  :  -184.4713548 Eh     change       -0.1112032E-03 Eh
 * total energy  :  -184.4714521 Eh     change       -0.9724553E-04 Eh
 * total energy  :  -184.4715361 Eh     change       -0.8403618E-04 Eh
 * total energy  :  -184.4715957 Eh     change       -0.5965480E-04 Eh
 * total energy  :  -184.4716393 Eh     change       -0.4353562E-04 Eh
 * total energy  :  -184.4771448 Eh     change       -0.1561024E-05 Eh
 * total energy  :  -184.4771463 Eh     change       -0.1492677E-05 Eh
 * total energy  :  -184.4771478 Eh     change       -0.1481930E-05 Eh
 * total energy  :  -184.4771493 Eh     change       -0.1552675E-05 Eh
 * total energy  :  -184.4771510 Eh     change       -0.1716973E-05 Eh
 * total energy  :  -184.4771530 Eh     change       -0.1971229E-05 Eh
 * total energy  :  -184.4771553 Eh     change       -0.2298569E-05 Eh
 * total energy  :  -184.4771580 Eh     change       -0.2664458E-05 Eh
 * total energy  :  -184.4771580 Eh     change       -0.3883088E-08 Eh
   *** GEOMETRY OPTIMIZATION CONVERGED AFTER 185 ITERATIONS ***

 final structure:
================
118
 xtb: 6.7.1 (edcfbbe)
O           -0.01793918358795       -4.91781566902987       -0.02249632734815
C           -0.01319704093915       -3.64572939276114       -0.01712890373185
C           -1.26087393860355       -2.91676348125680       -0.16142569277109
C           -2.35596130854460       -3.55630007619277       -0.77884700679717
C           -3.56933862645648       -2.92893809993743       -0.90705179315419
C           -3.74913299456290       -1.64198270898671       -0.39299482089528
N           -5.00446992843771       -0.98425018984950       -0.52305121616988
C           -6.07355128402905       -1.42826255297618        0.23237349394986
C           -5.89958669649697       -2.46814107804368        1.15710504066459
C           -6.95997578969648       -2.93267740920304        1.90355095649454
C           -8.21948416266280       -2.36848192714417        1.75633187970860
C           -8.39501596987811       -1.32425492005039        0.86786007321858
C           -7.34001652244384       -0.83997035554756        0.10798491227625
C           -7.58833215662318        0.31526128160240       -0.82415077833867
C           -8.23114759243841        1.47172361159227       -0.07685413896661
C           -7.70968796333923        2.20529838763953        0.96576478717300
C           -8.47970619211403        3.22749348000420        1.50625296163960
C           -9.74464947128770        3.50230293873239        1.00877360829845
C          -10.27207877558466        2.76631636705263       -0.04091695077774
C           -9.50873755028629        1.74599010417234       -0.58478030224854
C           -9.78551207346742        0.81584296065878       -1.66999492812672
C          -10.89303965872006        0.67460551135702       -2.49025274969448
C          -10.88003504479931       -0.31810550198755       -3.45770128263436
C           -9.78420961271302       -1.15513246145048       -3.60447770723118
C           -8.67044337667105       -1.01838531929262       -2.78548830875533
C           -8.67968359704558       -0.03166621884546       -1.82470886175568
C           -6.34524281595227        0.76641026466078       -1.54721784252406
C           -6.42339948041597        1.83747398908137       -2.39571662325046
C           -5.31306946050576        2.29278457649111       -3.13529201685308
C           -5.38192755102017        3.40094851837396       -3.99908606297196
C           -4.27916388814553        3.80132541795658       -4.70747050832300
C           -3.06516349696687        3.10693728804204       -4.58451422440268
C           -2.96730642326818        2.02422581399739       -3.75501331624028
C           -4.08499720275979        1.58980209439410       -3.00622903797734
C           -4.01626028147874        0.49119272003248       -2.13970372045897
C           -5.11177788317125        0.08129567605255       -1.39139617499750
C           -2.69218714603646       -1.01132351984856        0.26781980450049
C           -1.47348886051876       -1.63568533781464        0.38346913583160
C            1.23989597449394       -2.92725794571494        0.13336501789086
C            1.46212094812625       -1.64341465230334       -0.40097804653754
C            2.68537336800285       -1.02903195449362       -0.27973780576682
C            3.73728469064016       -1.67291116776918        0.37619607275455
N            4.99755331327868       -1.02551433515309        0.51173529716698
C            6.06159078135095       -1.46694929095256       -0.25213751714444
C            5.87819032281051       -2.49413561723209       -1.18912055433142
C            6.93323741010013       -2.95563445283948       -1.94495101044873
C            8.19661680022266       -2.40088587114504       -1.79495342751128
C            8.38162282774857       -1.36934406011315       -0.89365251888796
C            7.33215383217033       -0.88837823845557       -0.12406509752420
C            7.59066404865111        0.25304241749223        0.82218987532183
C            8.23730467966695        1.41556734535735        0.08766544197337
C            7.71694403533201        2.16450933022628       -0.94451872455605
C            8.49071411039201        3.18944626957867       -1.47433755993185
C            9.75800461427981        3.45224032183418       -0.97634319867053
C           10.28431047704427        2.70078368122238        0.06288928336621
C            9.51744113134853        1.67730612624523        0.59575481894155
C            9.79283280294690        0.73160831229332        1.66780912855924
C           10.90216704258163        0.57403571061977        2.48264847901704
C           10.88770350956653       -0.43215905133557        3.43604542996902
C            9.78855998878962       -1.26623842899479        3.57452612566623
C            8.67279108157912       -1.11284180663968        2.76123611945149
C            8.68352747844341       -0.11282622889067        1.81431102592414
C            6.35278197480897        0.70220548385466        1.55550749622222
C            6.44041134634380        1.76085091459459        2.41852003698123
C            5.33504780939288        2.21356925051096        3.16706625259183
C            5.41391938508596        3.30888336922957        4.04628514785634
C            4.31567326260697        3.70730488286498        4.76267078572749
C            3.09617694395465        3.02395657882474        4.63224698035069
C            2.98856775074918        1.95379470851310        3.78782600933845
C            4.10152005547251        1.52161017996153        3.03072911522606
C            4.02306377851113        0.43554490125500        2.14933334595088
C            5.11420566410380        0.02781399232765        1.39357510668180
C            3.54788669416996       -2.96258340938097        0.87973882572489
C            2.32989544684544       -3.57985109960225        0.74601042403204
H           -2.20307166357180       -4.55438250664943       -1.16367277035199
H           -4.39193746543277       -3.42120975753197       -1.40605906366964
H           -4.92204415925664       -2.90526899460539        1.28623826279035
H           -6.80224727725778       -3.73723399318449        2.60590033684164
H           -9.05297281215949       -2.73336942444945        2.33626909270033
H           -9.36767540477300       -0.86813369852782        0.75693776704310
H           -6.72523736113132        1.99216076799880        1.35659841020171
H           -8.08806510834723        3.81399100818194        2.32443513429468
H          -10.32652839319234        4.30077092503896        1.44600253975161
H          -11.25766376376277        2.98397357296645       -0.42472267867817
H          -11.74932453412666        1.32311095818696       -2.37943474289919
H          -11.73501142290451       -0.44249503714303       -4.10643183006089
H           -9.79548901355886       -1.92266713974242       -4.36442151546715
H           -7.81796589323586       -1.67183254002476       -2.90311035886914
H           -7.36608868876676        2.35310272816432       -2.51055857615251
H           -6.31939647369878        3.93005092280430       -4.09301758339381
H           -4.33669206047220        4.65451821465881       -5.36745773727668
H           -2.20729665667251        3.43626222539019       -5.15253796503749
H           -2.03568704373141        1.48580667938735       -3.65540730901784
H           -3.08255047889658       -0.04357130862859       -2.06035214783067
H           -2.84787322608336       -0.03285729981994        0.70006956918326
H           -0.68115045177365       -1.15380498389501        0.93607239805120
H            0.67359583082166       -1.15124438255642       -0.94994219473060
H            2.84849311127954       -0.04823866600244       -0.70388523138301
H            4.89759529194688       -2.92380307008936       -1.32013372265360
H            6.76826088529441       -3.75032654817495       -2.65681202053269
H            9.02583606294708       -2.76334692139633       -2.38247971699556
H            9.35745766568756       -0.92069246716362       -0.78013058724440
H            6.73054962243722        1.96099330194601       -1.33559468708954
H            8.10011530947512        3.78762467094854       -2.28452609588606
H           10.34265769059876        4.25329053409515       -1.40505447862832
H           11.27173895400473        2.90899183588223        0.44719537079230
H           11.76101721145095        1.22023275666176        2.37833797014602
H           11.74411508272930       -0.56949925465233        4.08024762586944
H            9.79881590271103       -2.04464716203381        4.32334493538783
H            7.81774730916892       -1.76406303899932        2.87239292387314
H            7.38691619291078        2.26833549872590        2.53815679001568
H            6.35555278265015        3.82951541941557        4.14578506511649
H            4.38097014623832        4.55029216028872        5.43490718058335
H            2.24197728205976        3.35161263416096        5.20672537840727
H            2.05274702173259        1.42380366759804        3.68257447367435
H            3.08527499164424       -0.09116152722417        2.06419788931242
H            4.36668451528871       -3.46500032252346        1.37486138487597
H            2.16940929616773       -4.57981774464694        1.12277424563154

          :  Hamiltonian                  GFN2-xTB          :
         :: gradient norm              0.000055911253 Eh/a0 ::
         :: HOMO-LUMO gap              0.222765668700 eV    ::
         :: SCC energy              -187.939488494349 Eh    ::
         :: -> dispersion             -0.184526070320 Eh    ::
         :: -> Gsolv                  -0.086269567582 Eh    ::
         :: repulsion energy           3.462330522482 Eh    ::

    * Orbital Energies and Occupations

         #    Occupation            Energy/Eh            Energy/eV
      -------------------------------------------------------------
         1        2.0000           -0.6840451             -18.6138
       ...           ...                  ...                  ...
       161        2.0000           -0.4035776             -10.9819
       162        2.0000           -0.4024429             -10.9510
       163        2.0000           -0.4022466             -10.9457
       164        2.0000           -0.3963959             -10.7865
       165        2.0000           -0.3949042             -10.7459
       166        2.0000           -0.3868751             -10.5274
       167        2.0000           -0.3868625             -10.5271
       168        2.0000           -0.3823509             -10.4043
       169        2.0000           -0.3823334             -10.4038
       170        1.9456           -0.3626104              -9.8671
       171        1.6100           -0.3603223              -9.8049
       172        1.4443           -0.3596848              -9.7875
       173        0.9827           -0.2746042              -7.4724 (HOMO)
       174        0.0102           -0.2664177              -7.2496 (LUMO)
       175        0.0072           -0.2660830              -7.2405
       176        0.0000           -0.2564528              -6.9784
       177        0.0000           -0.2564475              -6.9783
       178                         -0.2425747              -6.6008
       179                         -0.2425501              -6.6001
       180                         -0.2340206              -6.3680
       181                         -0.2337696              -6.3612
       182                         -0.2311007              -6.2886
       183                         -0.2298062              -6.2533
       184                         -0.2297627              -6.2522
       ...                                ...                  ...
       340                          0.7237213              19.6935
      -------------------------------------------------------------
                  HL-Gap            0.0081865 Eh            0.2228 eV

     #   Z          covCN         q      C6AA      α(0)
     1   8 O        0.858    -0.541    24.703     6.664
     2   6 C        2.833     0.163    24.482     8.108
     3   6 C        2.967    -0.021    28.534     8.762
     4   6 C        2.924    -0.031    28.779     8.797
     5   6 C        2.915    -0.042    29.039     8.837
     6   6 C        2.929     0.038    27.156     8.546
     7   7 N        2.753    -0.022    21.678     6.915
     8   6 C        2.926     0.062    26.619     8.461
     9   6 C        2.922    -0.047    29.176     8.858
    10   6 C        2.918    -0.028    28.702     8.785
    11   6 C        2.917    -0.032    28.803     8.801
    12   6 C        2.924    -0.033    28.811     8.802
    13   6 C        2.982     0.002    27.983     8.677
    14   6 C        3.949     0.013    20.284     6.400
    15   6 C        3.056     0.003    27.914     8.664
    16   6 C        2.914    -0.033    28.812     8.802
    17   6 C        2.923    -0.031    28.777     8.797
    18   6 C        2.921    -0.032    28.789     8.799
    19   6 C        2.914    -0.034    28.840     8.806
    20   6 C        3.033     0.002    27.944     8.671
    21   6 C        3.033     0.002    27.944     8.671
    22   6 C        2.915    -0.034    28.838     8.806
    23   6 C        2.921    -0.032    28.789     8.799
    24   6 C        2.923    -0.031    28.777     8.797
    25   6 C        2.914    -0.033    28.816     8.803
    26   6 C        3.057     0.003    27.911     8.664
    27   6 C        2.977    -0.000    28.028     8.684
    28   6 C        2.923    -0.041    29.012     8.833
    29   6 C        2.985     0.010    27.777     8.645
    30   6 C        2.917    -0.034    28.838     8.806
    31   6 C        2.916    -0.028    28.695     8.784
    32   6 C        2.915    -0.029    28.717     8.787
    33   6 C        2.918    -0.035    28.860     8.809
    34   6 C        2.985     0.014    27.689     8.632
    35   6 C        2.923    -0.057    29.413     8.894
    36   6 C        2.923     0.061    26.625     8.462
    37   6 C        2.915    -0.042    29.049     8.838
    38   6 C        2.919    -0.043    29.073     8.842
    39   6 C        2.967    -0.021    28.534     8.762
    40   6 C        2.919    -0.043    29.072     8.842
    41   6 C        2.915    -0.042    29.049     8.838
    42   6 C        2.929     0.038    27.155     8.546
    43   7 N        2.753    -0.022    21.681     6.916
    44   6 C        2.926     0.062    26.619     8.461
    45   6 C        2.922    -0.047    29.177     8.858
    46   6 C        2.918    -0.028    28.702     8.785
    47   6 C        2.917    -0.032    28.803     8.801
    48   6 C        2.924    -0.033    28.811     8.802
    49   6 C        2.982     0.002    27.984     8.677
    50   6 C        3.949     0.013    20.284     6.400
    51   6 C        3.056     0.003    27.914     8.664
    52   6 C        2.914    -0.033    28.812     8.802
    53   6 C        2.923    -0.031    28.777     8.797
    54   6 C        2.921    -0.032    28.789     8.799
    55   6 C        2.915    -0.034    28.840     8.806
    56   6 C        3.033     0.002    27.944     8.671
    57   6 C        3.033     0.002    27.944     8.671
    58   6 C        2.915    -0.034    28.838     8.806
    59   6 C        2.921    -0.032    28.789     8.799
    60   6 C        2.923    -0.031    28.777     8.797
    61   6 C        2.914    -0.033    28.816     8.803
    62   6 C        3.057     0.003    27.912     8.664
    63   6 C        2.977    -0.000    28.028     8.684
    64   6 C        2.923    -0.041    29.011     8.833
    65   6 C        2.985     0.010    27.777     8.645
    66   6 C        2.917    -0.034    28.837     8.806
    67   6 C        2.916    -0.028    28.695     8.784
    68   6 C        2.915    -0.029    28.717     8.787
    69   6 C        2.918    -0.035    28.859     8.809
    70   6 C        2.985     0.014    27.689     8.632
    71   6 C        2.923    -0.057    29.413     8.894
    72   6 C        2.923     0.061    26.624     8.462
    73   6 C        2.915    -0.042    29.039     8.837
    74   6 C        2.924    -0.031    28.779     8.797
    75   1 H        0.926     0.030     2.581     2.512
    76   1 H        0.926     0.032     2.553     2.499
    77   1 H        0.926     0.042     2.419     2.432
    78   1 H        0.926     0.042     2.418     2.431
    79   1 H        0.926     0.043     2.407     2.426
    80   1 H        0.926     0.041     2.440     2.443
    81   1 H        0.926     0.028     2.619     2.530
    82   1 H        0.926     0.035     2.514     2.480
    83   1 H        0.926     0.036     2.507     2.476
    84   1 H        0.926     0.037     2.488     2.467
    85   1 H        0.926     0.037     2.482     2.464
    86   1 H        0.926     0.036     2.507     2.476
    87   1 H        0.926     0.035     2.523     2.484
    88   1 H        0.926     0.027     2.636     2.539
    89   1 H        0.926     0.041     2.441     2.443
    90   1 H        0.926     0.038     2.473     2.459
    91   1 H        0.926     0.038     2.480     2.463
    92   1 H        0.926     0.037     2.491     2.468
    93   1 H        0.926     0.036     2.502     2.474
    94   1 H        0.926     0.044     2.402     2.424
    95   1 H        0.926     0.035     2.512     2.479
    96   1 H        0.926     0.033     2.548     2.496
    97   1 H        0.926     0.033     2.547     2.496
    98   1 H        0.926     0.035     2.513     2.479
    99   1 H        0.926     0.042     2.420     2.433
   100   1 H        0.926     0.042     2.418     2.432
   101   1 H        0.926     0.043     2.407     2.426
   102   1 H        0.926     0.041     2.440     2.443
   103   1 H        0.926     0.028     2.619     2.531
   104   1 H        0.926     0.035     2.514     2.480
   105   1 H        0.926     0.036     2.507     2.476
   106   1 H        0.926     0.037     2.488     2.467
   107   1 H        0.926     0.037     2.482     2.464
   108   1 H        0.926     0.036     2.507     2.476
   109   1 H        0.926     0.035     2.523     2.484
   110   1 H        0.926     0.027     2.636     2.539
   111   1 H        0.926     0.041     2.440     2.443
   112   1 H        0.926     0.038     2.472     2.459
   113   1 H        0.926     0.038     2.480     2.462
   114   1 H        0.926     0.037     2.491     2.468
   115   1 H        0.926     0.036     2.502     2.474
   116   1 H        0.926     0.043     2.403     2.424
   117   1 H        0.926     0.032     2.554     2.499
   118   1 H        0.926     0.030     2.581     2.513

molecular dipole:
                 x           y           z       tot (Debye)
 q only:        0.013       4.319       0.020
   full:        0.013       4.205       0.019      10.688

 projected vibrational frequencies (cm⁻¹)
eigval :       -0.00    -0.00     0.00     0.00     0.00     0.00
eigval :       -4.52     4.82     5.21     6.39     9.51    28.10
eigval :       29.15    32.78    34.66    37.75    40.72    42.95
eigval :       46.10    52.07    55.31    60.29    76.86    80.18
eigval :       80.81    81.99    93.14   108.37   111.57   119.31
eigval :      123.66   132.99   134.91   137.71   140.70   145.72
eigval :      148.61   153.46   190.05   197.32   202.13   215.31
eigval :      233.48   234.77   241.13   244.25   249.22   254.64
eigval :      266.62   271.23   278.53   283.83   287.79   297.21
eigval :      301.47   302.42   310.97   334.80   341.82   359.74
eigval :      373.18   377.94   383.00   387.60   388.36   389.01
eigval :      411.06   411.46   417.35   418.16   422.59   423.28
eigval :      434.83   439.94   441.37   443.70   449.95   451.39
eigval :      464.61   465.39   470.13   477.06   492.66   497.01
eigval :      502.04   502.10   505.10   505.82   519.28   521.26
eigval :      537.24   539.01   539.55   542.08   554.41   554.51
eigval :      565.23   583.16   583.40   585.27   593.05   593.45
eigval :      593.89   594.59   597.28   606.45   608.51   616.63
eigval :      625.46   632.25   660.53   660.79   664.78   668.19
eigval :      674.12   674.38   681.04   686.89   686.96   694.58
eigval :      696.84   713.62   714.30   730.02   730.23   736.36
eigval :      752.25   752.38   753.46   753.54   766.39   767.13
eigval :      774.39   774.58   786.10   786.26   797.70   807.07
eigval :      814.78   817.09   817.15   820.81   836.25   836.85
eigval :      847.63   861.53   864.34   864.43   870.68   870.84
eigval :      873.56   873.75   876.55   877.04   877.27   878.56
eigval :      878.78   885.08   892.10   894.67   894.71   900.71
eigval :      908.71   908.85   908.88   909.41   909.63   910.65
eigval :      911.67   912.50   912.83   914.05   914.58   919.01
eigval :      919.12   922.04   922.10   922.94   923.47   925.61
eigval :      925.87   930.49   931.75   932.45   942.86   973.23
eigval :      973.67   998.96  1002.44  1002.47  1007.40  1072.37
eigval :     1072.44  1075.86  1076.02  1077.47  1077.49  1082.67
eigval :     1082.99  1101.11  1101.65  1127.03  1131.15  1131.98
eigval :     1132.29  1140.59  1140.87  1142.06  1142.14  1154.90
eigval :     1157.81  1162.77  1166.79  1173.03  1173.72  1176.54
eigval :     1176.60  1176.99  1177.53  1178.11  1178.22  1183.40
eigval :     1186.18  1197.29  1199.24  1199.45  1200.96  1202.06
eigval :     1213.16  1220.88  1228.88  1229.67  1235.90  1236.79
eigval :     1244.12  1249.21  1255.26  1255.75  1255.93  1256.31
eigval :     1261.99  1264.50  1264.61  1268.03  1269.04  1281.50
eigval :     1281.73  1296.18  1296.73  1304.30  1304.79  1318.42
eigval :     1322.32  1323.11  1323.13  1326.11  1328.59  1331.21
eigval :     1331.34  1349.26  1364.54  1364.60  1367.27  1367.70
eigval :     1368.92  1407.03  1407.19  1414.36  1414.49  1424.03
eigval :     1425.80  1426.39  1426.54  1426.66  1428.51  1430.50
eigval :     1441.90  1444.75  1445.55  1449.13  1457.87  1457.89
eigval :     1461.59  1467.07  1468.94  1468.98  1480.60  1484.99
eigval :     1486.97  1489.79  1517.27  1528.90  1542.58  1557.76
eigval :     1558.35  1569.11  1570.08  1582.51  1583.96  1583.99
eigval :     1584.57  1586.32  1593.81  1593.88  1594.75  1594.84
eigval :     1598.84  1599.06  1601.31  1601.32  3068.30  3068.86
eigval :     3069.90  3070.02  3070.44  3070.73  3071.13  3071.16
eigval :     3071.42  3071.54  3072.05  3072.12  3074.44  3074.47
eigval :     3075.20  3075.34  3079.48  3079.58  3081.09  3081.20
eigval :     3081.84  3082.00  3082.59  3082.94  3083.01  3083.11
eigval :     3083.84  3083.92  3086.55  3086.94  3087.12  3088.30
eigval :     3089.42  3089.75  3090.03  3090.03  3091.65  3091.71
eigval :     3098.79  3098.98  3100.48  3101.44  3107.03  3107.44

   temp. (K)  partition function   enthalpy   heat capacity  entropy
                                   cal/mol     cal/K/mol   cal/K/mol   J/K/mol
 298.15  VIB  0.179E+29            34039.252    216.683    214.546
         ROT  0.170E+09              888.752      2.981     40.643
         INT  0.305E+37            34928.004    219.664    255.189
         TR   0.279E+29             1481.254      4.968     46.380
         TOT                       36409.2581   224.6325   301.5687  1261.7634

       T/K    H(0)-H(T)+PV         H(T)/Eh          T*S/Eh         G(T)/Eh
   ------------------------------------------------------------------------
    298.15    0.580218E-01    0.957598E+00    0.143285E+00    0.814313E+00
   ------------------------------------------------------------------------

         :::::::::::::::::::::::::::::::::::::::::::::::::::::
         ::                  THERMODYNAMIC                  ::
         :::::::::::::::::::::::::::::::::::::::::::::::::::::
         :: total free energy        -183.662844605517 Eh   ::
         ::.................................................::
         :: total energy             -184.477157970581 Eh   ::
         :: zero point energy           0.899576536556 Eh   ::
         :: G(RRHO) w/o ZPVE           -0.085263171492 Eh   ::
         :: G(RRHO) contrib.            0.814313365064 Eh   ::
         :::::::::::::::::::::::::::::::::::::::::::::::::::::

           -------------------------------------------------
          | TOTAL ENERGY             -184.477157970581 Eh   |
          | TOTAL ENTHALPY           -183.519559588019 Eh   |
          | TOTAL FREE ENERGY        -183.662844605517 Eh   |
          | GRADIENT NORM               0.000056224702 Eh/α |
          | HOMO-LUMO GAP               0.222765491797 eV   |
           -------------------------------------------------

 * finished run on 2025/09/05 at 08:50:26.390
