   * xtb version 6.7.1 (edcfbbe) compiled by 'albert@albert-system' on 2024-07-22

   ID    Z sym.   atoms
    1    8 O      1
    2    6 C      2-6, 8-42, 44-74
    3    7 N      7, 43
    4    1 H      75-118

          program call               : xtb data2507/toluene/2SPBAC-BP/2SPBAC-BP_toluene_T1_crest.xyz --gfn 2 --uhf 2 --gbsa toluene --ohess vtight --parallel 40 --molden --ceasefiles --namespace data2507/toluene/2SPBAC-BP/2SPBAC-BP_toluene_T1_finalOpt
      * Solvation model:               GBSA
        Solvent                        toluene
        Solvent mass                       9.2140E+01 g/mol
          :  Hamiltonian                  GFN2-xTB          :
 * total energy  :  -184.4771186 Eh     change       -0.9195787E-08 Eh
 * total energy  :  -184.4772701 Eh     change       -0.1514494E-03 Eh
 * total energy  :  -184.4773150 Eh     change       -0.4489716E-04 Eh
 * total energy  :  -184.4773262 Eh     change       -0.1124154E-04 Eh
 * total energy  :  -184.4773345 Eh     change       -0.8307018E-05 Eh
 * total energy  :  -184.4773404 Eh     change       -0.5909864E-05 Eh
 * total energy  :  -184.4773448 Eh     change       -0.4366583E-05 Eh
 * total energy  :  -184.4773480 Eh     change       -0.3226347E-05 Eh
 * total energy  :  -184.4773519 Eh     change       -0.3886297E-05 Eh
 * total energy  :  -184.4773569 Eh     change       -0.5008536E-05 Eh
 * total energy  :  -184.4775174 Eh     change       -0.1424637E-06 Eh
 * total energy  :  -184.4775175 Eh     change       -0.1138572E-06 Eh
 * total energy  :  -184.4775176 Eh     change       -0.1098796E-06 Eh
 * total energy  :  -184.4775177 Eh     change       -0.1109679E-06 Eh
 * total energy  :  -184.4775178 Eh     change       -0.1245971E-06 Eh
 * total energy  :  -184.4775180 Eh     change       -0.1455568E-06 Eh
 * total energy  :  -184.4775181 Eh     change       -0.1453321E-06 Eh
 * total energy  :  -184.4775182 Eh     change       -0.1205198E-06 Eh
 * total energy  :  -184.4775183 Eh     change       -0.9649915E-07 Eh
   *** GEOMETRY OPTIMIZATION CONVERGED AFTER 113 ITERATIONS ***

 final structure:
================
118
 xtb: 6.7.1 (edcfbbe)
O           -0.02606557570429       -4.27126522224062        0.37130032593550
C           -0.01849242648688       -3.00311954000454        0.25389389686240
C           -1.26891891964720       -2.26835901664734        0.31742101991061
C           -2.37188698582250       -2.86857418982730        0.96070748925236
C           -3.59117616526849       -2.24304865492137        1.02092249976004
C           -3.76656873559498       -0.99604410771044        0.41563650356902
N           -5.02822106286826       -0.33679602830317        0.47121655821570
C           -5.18731201498980        0.72468639647869        1.34108584675811
C           -4.13437110640486        1.10463047167743        2.18535148176459
C           -4.27428306762604        2.16560856256336        3.05261723894182
C           -5.46836675385495        2.87109220746996        3.10695247232480
C           -6.51843655360444        2.49231645298062        2.29169298425740
C           -6.39870733537589        1.42635614558826        1.41169885206683
C           -7.57921820863875        1.05313613895798        0.55567677712528
C           -7.99411423954989        2.22899851713030       -0.31529534642768
C           -7.26513979195721        2.85636780536999       -1.30103609191015
C           -7.84771217264349        3.91912630241634       -1.98002916904290
C           -9.13324709538031        4.33845408387007       -1.67256867177440
C           -9.86903929166451        3.70927247705220       -0.68042909541274
C           -9.29369875073614        2.64872880419553        0.00045393043842
C           -9.80678315718972        1.80481033069604        1.07001428961361
C          -11.02455218532643        1.80861125347821        1.73066794140605
C          -11.24222908336676        0.86871711250886        2.72615158042554
C          -10.26466000148114       -0.05762664459042        3.05702428481251
C           -9.04109543488128       -0.06584241297272        2.39918724210306
C           -8.82187831414687        0.86648375528282        1.40934930069670
C           -7.32643926310154       -0.16272659541997       -0.29884504837271
C           -8.33830094346227       -0.64498976685263       -1.08353193274298
C           -8.16553522465717       -1.75697258121696       -1.93262424746112
C           -9.20409122520663       -2.26512028371970       -2.73406200164978
C           -8.98833694088905       -3.34231201040062       -3.55294837880743
C           -7.72492480857994       -3.95288408817702       -3.60572588671168
C           -6.69514328064779       -3.48170616288065       -2.83957286445646
C           -6.88668092126899       -2.37439563960669       -1.98180337414171
C           -5.85529322521923       -1.87130750978420       -1.17805123814882
C           -6.05459891152169       -0.79341787650208       -0.32631915998361
C           -2.70225843079242       -0.40690968380254       -0.26907663603353
C           -1.47900538759617       -1.03193649438852       -0.32306227723484
C            1.23966189767805       -2.30619466140375        0.06022472074492
C            1.46037650699028       -0.97187597421587        0.45317782027573
C            2.69195620431988       -0.38243529966601        0.29298691847842
C            3.75490291701444       -1.10409984953427       -0.25317385302707
N            5.02778575223230       -0.48404383886090       -0.41251528788580
C            5.21840568702231        0.38680220533024       -1.46783105384145
C            4.18642453386741        0.60771685968567       -2.39082404712901
C            4.35770828985744        1.47814134157587       -3.44456626656624
C            5.56322412415779        2.14573995462944       -3.61044603064316
C            6.59281539655562        1.92066571339819       -2.71589606647705
C            6.44138204453209        1.04752621421119       -1.64838470206702
C            7.60066628597228        0.83470243647721       -0.71231257395935
C            8.02040469852313        2.15313745471464       -0.08057707868317
C            7.28407801180453        2.97375037956066        0.74475320635082
C            7.87252913847605        4.14205984294341        1.21239968627854
C            9.17089128624557        4.47452451577326        0.85645912272764
C            9.91468912013369        3.65012147821014        0.02659771597729
C            9.33353966234956        2.48349519259337       -0.44313144449842
C            9.85159359005610        1.43785843641588       -1.31352402665505
C           11.08287146647020        1.29243966636112       -1.93168658438427
C           11.30059756478673        0.17431594045342       -2.72176076486836
C           10.31002929461639       -0.78111680943401       -2.89206139585320
C            9.07389733187439       -0.64198287588696       -2.27354226028301
C            8.85485099003825        0.46721718801183       -1.48691819152395
C            7.31331708806168       -0.18679012464511        0.35865716927612
C            8.30194507284327       -0.51546763855614        1.24580569208617
C            8.09581189912735       -1.43611299360915        2.29330457383332
C            9.10901989990708       -1.78370118971959        3.20532786615650
C            8.86104535125220       -2.67629782460420        4.21489000726621
C            7.58955456601791       -3.25553221833184        4.35484917490601
C            6.58349436244800       -2.93668805855089        3.48552160904581
C            6.80852476254877       -2.02158176360663        2.43167111889685
C            5.80171270304606       -1.67726005280395        1.52035625619665
C            6.03247127210579       -0.78752242955637        0.48012628179670
C            3.56787449221113       -2.44152657426880       -0.61175955652196
C            2.34013830717886       -3.03018486457976       -0.44588789725119
H           -2.22026385064819       -3.83619706500574        1.41732489589913
H           -4.42132336352197       -2.70494779908410        1.53624107938863
H           -3.20808835773944        0.55288584320349        2.15491055336294
H           -3.44975419028384        2.44172938944368        3.69242377828556
H           -5.58093244131864        3.70390415091876        3.78367035120011
H           -7.45506614691164        3.02837780627169        2.33434134566376
H           -6.26379371942746        2.53101363373115       -1.54367884048197
H           -7.29199632651133        4.42355343746615       -2.75693064924310
H           -9.56639311357263        5.16692300287094       -2.21414895276671
H          -10.86973775466424        4.03964347108594       -0.44501034524047
H          -11.78922764567380        2.52751778871106        1.47676244649368
H          -12.18595008458690        0.85689377967445        3.25202275862842
H          -10.45563243802649       -0.78183147298136        3.83540924129650
H           -8.28090112945403       -0.78829103784543        2.65940797727506
H           -9.30381013511331       -0.16022710697308       -1.05881908827280
H          -10.17404691535071       -1.79076295361573       -2.69111724495747
H           -9.78928803086632       -3.72953701512973       -4.16555949049780
H           -7.57333419269094       -4.80068932487778       -4.25783226258033
H           -5.72077077023152       -3.94802428091191       -2.87380183768158
H           -4.88565167863364       -2.34227599646247       -1.23015197220482
H           -2.85454465260456        0.53913280476276       -0.76937521925269
H           -0.68281470000613       -0.58759119249143       -0.90074299753882
H            0.66547182074722       -0.41556456889978        0.92608585487521
H            2.85230044202952        0.64040526338688        0.60382550281222
H            3.25139061796891        0.08345892085103       -2.27190024177196
H            3.54878350677542        1.63394759088178       -4.14231434314584
H            5.70020715088946        2.83058061578429       -4.43292250807014
H            7.53798983313247        2.42764496627153       -2.84250580424150
H            6.27258677597751        2.71701220412072        1.02470590665629
H            7.31128671403036        4.79885513042402        1.86075985031366
H            9.60765966178223        5.38859849143839        1.23196976816882
H           10.92537366882555        3.91326556629626       -0.24760642768754
H           11.85767393265908        2.03340732004794       -1.80248367978488
H           12.25465815522991        0.04459046945200       -3.21192949571362
H           10.50091362874887       -1.64434930019135       -3.51270691124260
H            8.30407578061007       -1.38825332116836       -2.40787368258346
H            9.27457353963230       -0.05467781929717        1.14855639108381
H           10.08533925978763       -1.33395877869987        3.09474511946424
H            9.64285074622565       -2.94084140931988        4.91172043142923
H            7.41277828773228       -3.95693429605502        5.15724361600100
H            5.60268156043416       -3.37909566342620        3.58706611380676
H            4.82545400759196       -2.12134479504472        1.64012601418332
H            4.39609954398991       -3.00311892217470       -1.02005031204574
H            2.17934237268210       -4.06531605168110       -0.71130386192087

          :  Hamiltonian                  GFN2-xTB          :
         :: gradient norm              0.000038409075 Eh/a0 ::
         :: HOMO-LUMO gap              0.233900012749 eV    ::
         :: SCC energy              -187.940366187673 Eh    ::
         :: -> dispersion             -0.184308477428 Eh    ::
         :: -> Gsolv                  -0.086371452572 Eh    ::
         :: repulsion energy           3.462847862931 Eh    ::

    * Orbital Energies and Occupations

         #    Occupation            Energy/Eh            Energy/eV
      -------------------------------------------------------------
         1        2.0000           -0.6839049             -18.6100
       ...           ...                  ...                  ...
       161        2.0000           -0.4039269             -10.9914
       162        2.0000           -0.4023670             -10.9490
       163        2.0000           -0.4021997             -10.9444
       164        2.0000           -0.3958569             -10.7718
       165        2.0000           -0.3943565             -10.7310
       166        2.0000           -0.3868832             -10.5276
       167        2.0000           -0.3868736             -10.5274
       168        2.0000           -0.3823471             -10.4042
       169        2.0000           -0.3823375             -10.4039
       170        1.9519           -0.3627470              -9.8708
       171        1.6329           -0.3604273              -9.8077
       172        1.4152           -0.3595844              -9.7848
       173        0.9855           -0.2748204              -7.4782 (HOMO)
       174        0.0080           -0.2662249              -7.2443 (LUMO)
       175        0.0065           -0.2660337              -7.2391
       176        0.0000           -0.2564353              -6.9780
       177        0.0000           -0.2564290              -6.9778
       178                         -0.2425053              -6.5989
       179                         -0.2424918              -6.5985
       180                         -0.2338987              -6.3647
       181                         -0.2338067              -6.3622
       182                         -0.2303924              -6.2693
       183                         -0.2297667              -6.2523
       184                         -0.2297191              -6.2510
       ...                                ...                  ...
       340                          0.7238372              19.6966
      -------------------------------------------------------------
                  HL-Gap            0.0085955 Eh            0.2339 eV

     #   Z          covCN         q      C6AA      α(0)
     1   8 O        0.858    -0.541    24.704     6.664
     2   6 C        2.833     0.161    24.508     8.113
     3   6 C        2.967    -0.021    28.530     8.761
     4   6 C        2.924    -0.031    28.780     8.798
     5   6 C        2.914    -0.042    29.046     8.838
     6   6 C        2.929     0.038    27.160     8.547
     7   7 N        2.753    -0.023    21.700     6.919
     8   6 C        2.927     0.062    26.618     8.461
     9   6 C        2.922    -0.048    29.185     8.859
    10   6 C        2.918    -0.028    28.704     8.786
    11   6 C        2.917    -0.033    28.811     8.802
    12   6 C        2.924    -0.032    28.809     8.802
    13   6 C        2.982     0.001    27.987     8.678
    14   6 C        3.949     0.013    20.285     6.400
    15   6 C        3.057     0.003    27.909     8.664
    16   6 C        2.914    -0.033    28.818     8.803
    17   6 C        2.923    -0.031    28.778     8.797
    18   6 C        2.921    -0.032    28.790     8.799
    19   6 C        2.915    -0.034    28.836     8.806
    20   6 C        3.033     0.002    27.942     8.670
    21   6 C        3.033     0.002    27.945     8.671
    22   6 C        2.914    -0.034    28.841     8.806
    23   6 C        2.921    -0.032    28.789     8.799
    24   6 C        2.923    -0.031    28.775     8.797
    25   6 C        2.914    -0.032    28.809     8.801
    26   6 C        3.056     0.002    27.917     8.665
    27   6 C        2.977    -0.000    28.029     8.684
    28   6 C        2.923    -0.040    29.004     8.832
    29   6 C        2.985     0.010    27.777     8.645
    30   6 C        2.917    -0.033    28.832     8.805
    31   6 C        2.916    -0.027    28.687     8.783
    32   6 C        2.915    -0.028    28.709     8.786
    33   6 C        2.918    -0.034    28.842     8.807
    34   6 C        2.985     0.014    27.689     8.632
    35   6 C        2.923    -0.056    29.391     8.890
    36   6 C        2.923     0.062    26.610     8.459
    37   6 C        2.916    -0.042    29.048     8.838
    38   6 C        2.919    -0.044    29.091     8.845
    39   6 C        2.967    -0.021    28.537     8.762
    40   6 C        2.919    -0.044    29.095     8.845
    41   6 C        2.916    -0.042    29.049     8.838
    42   6 C        2.929     0.037    27.165     8.547
    43   7 N        2.753    -0.023    21.701     6.919
    44   6 C        2.927     0.062    26.617     8.461
    45   6 C        2.922    -0.048    29.184     8.859
    46   6 C        2.918    -0.028    28.704     8.786
    47   6 C        2.917    -0.033    28.811     8.802
    48   6 C        2.924    -0.032    28.809     8.802
    49   6 C        2.982     0.001    27.988     8.678
    50   6 C        3.949     0.013    20.285     6.400
    51   6 C        3.057     0.003    27.910     8.664
    52   6 C        2.914    -0.033    28.818     8.803
    53   6 C        2.923    -0.031    28.779     8.797
    54   6 C        2.921    -0.032    28.790     8.799
    55   6 C        2.915    -0.034    28.836     8.806
    56   6 C        3.033     0.002    27.942     8.670
    57   6 C        3.033     0.002    27.945     8.671
    58   6 C        2.914    -0.034    28.841     8.806
    59   6 C        2.921    -0.032    28.789     8.799
    60   6 C        2.923    -0.031    28.775     8.797
    61   6 C        2.914    -0.032    28.809     8.801
    62   6 C        3.056     0.002    27.916     8.665
    63   6 C        2.977    -0.000    28.028     8.684
    64   6 C        2.923    -0.040    29.005     8.832
    65   6 C        2.985     0.010    27.776     8.645
    66   6 C        2.917    -0.033    28.832     8.805
    67   6 C        2.916    -0.027    28.686     8.783
    68   6 C        2.915    -0.028    28.709     8.786
    69   6 C        2.918    -0.034    28.842     8.807
    70   6 C        2.985     0.014    27.689     8.632
    71   6 C        2.923    -0.056    29.391     8.890
    72   6 C        2.923     0.062    26.609     8.459
    73   6 C        2.914    -0.042    29.047     8.838
    74   6 C        2.924    -0.031    28.783     8.798
    75   1 H        0.926     0.030     2.580     2.512
    76   1 H        0.926     0.032     2.557     2.501
    77   1 H        0.926     0.042     2.417     2.431
    78   1 H        0.926     0.043     2.407     2.426
    79   1 H        0.926     0.043     2.407     2.426
    80   1 H        0.926     0.040     2.444     2.445
    81   1 H        0.926     0.027     2.628     2.535
    82   1 H        0.926     0.035     2.516     2.480
    83   1 H        0.926     0.036     2.505     2.475
    84   1 H        0.926     0.037     2.483     2.464
    85   1 H        0.926     0.037     2.486     2.466
    86   1 H        0.926     0.036     2.508     2.477
    87   1 H        0.926     0.035     2.521     2.483
    88   1 H        0.926     0.027     2.629     2.536
    89   1 H        0.926     0.041     2.431     2.438
    90   1 H        0.926     0.039     2.459     2.452
    91   1 H        0.926     0.038     2.470     2.458
    92   1 H        0.926     0.037     2.492     2.468
    93   1 H        0.926     0.035     2.512     2.478
    94   1 H        0.926     0.042     2.417     2.431
    95   1 H        0.926     0.034     2.526     2.485
    96   1 H        0.926     0.034     2.537     2.491
    97   1 H        0.926     0.033     2.538     2.491
    98   1 H        0.926     0.034     2.528     2.487
    99   1 H        0.926     0.042     2.417     2.431
   100   1 H        0.926     0.043     2.407     2.426
   101   1 H        0.926     0.043     2.408     2.426
   102   1 H        0.926     0.040     2.445     2.445
   103   1 H        0.926     0.027     2.628     2.535
   104   1 H        0.926     0.035     2.516     2.480
   105   1 H        0.926     0.036     2.505     2.475
   106   1 H        0.926     0.037     2.483     2.464
   107   1 H        0.926     0.037     2.486     2.466
   108   1 H        0.926     0.036     2.508     2.477
   109   1 H        0.926     0.035     2.521     2.483
   110   1 H        0.926     0.027     2.629     2.536
   111   1 H        0.926     0.041     2.431     2.438
   112   1 H        0.926     0.039     2.459     2.452
   113   1 H        0.926     0.038     2.470     2.457
   114   1 H        0.926     0.037     2.491     2.468
   115   1 H        0.926     0.035     2.512     2.478
   116   1 H        0.926     0.042     2.417     2.431
   117   1 H        0.926     0.032     2.559     2.502
   118   1 H        0.926     0.030     2.580     2.512

molecular dipole:
                 x           y           z       tot (Debye)
 q only:        0.021       3.879      -0.331
   full:        0.020       3.806      -0.325       9.709

 projected vibrational frequencies (cm⁻¹)
eigval :       -0.00    -0.00     0.00     0.00     0.00     0.00
eigval :       -4.91     4.79     6.45     6.69    11.30    25.04
eigval :       27.35    31.29    32.51    38.23    39.39    40.78
eigval :       42.48    49.94    56.40    56.97    77.43    79.11
eigval :       80.59    82.38    91.20   107.98   110.49   118.44
eigval :      121.43   131.77   136.21   137.36   138.84   143.09
eigval :      149.98   153.18   181.01   201.22   202.23   217.57
eigval :      232.82   234.76   241.52   243.91   250.99   254.57
eigval :      268.20   272.67   277.42   280.18   284.28   299.83
eigval :      300.53   300.99   319.31   323.44   347.22   362.43
eigval :      373.73   379.19   383.75   385.88   387.35   392.14
eigval :      409.74   411.36   413.71   419.02   419.52   429.32
eigval :      436.10   439.45   440.45   442.58   447.73   454.09
eigval :      464.88   465.85   471.48   472.75   493.86   497.60
eigval :      501.98   502.01   505.67   506.29   519.61   520.68
eigval :      538.30   538.44   538.89   543.28   553.74   554.36
eigval :      558.23   583.41   583.93   586.28   592.14   593.22
eigval :      594.81   595.24   598.60   606.97   609.00   614.98
eigval :      621.93   639.06   660.68   661.49   663.62   666.00
eigval :      674.76   675.10   677.48   686.59   687.33   691.45
eigval :      699.65   713.89   714.27   729.69   730.24   739.27
eigval :      752.46   752.57   755.35   758.88   764.03   766.32
eigval :      770.61   777.32   783.26   784.02   792.11   801.04
eigval :      815.84   817.28   818.86   823.98   841.80   843.44
eigval :      844.93   861.94   862.50   864.75   868.15   871.38
eigval :      873.73   873.80   874.44   874.51   876.75   877.46
eigval :      877.91   885.18   892.05   893.84   894.90   899.79
eigval :      904.94   905.53   909.06   909.58   909.79   910.77
eigval :      911.75   912.34   912.47   913.09   916.53   919.13
eigval :      919.26   922.00   923.85   924.14   926.27   926.40
eigval :      926.90   928.76   928.90   933.95   943.31   973.39
eigval :      973.73   999.45  1002.57  1002.60  1007.51  1072.90
eigval :     1073.44  1075.81  1076.17  1077.19  1078.31  1083.12
eigval :     1083.48  1100.72  1101.32  1126.30  1131.43  1132.65
eigval :     1132.93  1140.75  1141.54  1143.54  1143.75  1155.68
eigval :     1157.78  1162.67  1167.43  1173.58  1174.65  1176.04
eigval :     1176.79  1177.22  1177.57  1181.86  1182.06  1183.94
eigval :     1186.79  1197.33  1199.01  1199.68  1201.46  1202.78
eigval :     1213.44  1220.90  1228.86  1229.84  1235.90  1237.13
eigval :     1244.11  1249.16  1254.94  1256.34  1256.53  1257.09
eigval :     1262.36  1265.41  1266.21  1268.61  1269.74  1281.62
eigval :     1281.90  1297.52  1297.77  1304.37  1305.79  1320.88
eigval :     1322.67  1323.23  1323.30  1324.62  1328.26  1331.60
eigval :     1331.89  1362.16  1364.91  1365.13  1368.27  1368.84
eigval :     1376.27  1405.95  1406.40  1415.50  1415.82  1422.89
eigval :     1426.58  1426.93  1427.06  1427.71  1429.49  1431.76
eigval :     1442.05  1445.11  1446.47  1450.39  1458.00  1458.15
eigval :     1462.77  1467.85  1469.13  1469.31  1481.30  1485.22
eigval :     1488.14  1490.53  1520.12  1530.47  1545.36  1558.73
eigval :     1559.69  1571.37  1572.20  1584.13  1584.20  1584.58
eigval :     1586.00  1587.71  1594.61  1594.72  1595.39  1595.50
eigval :     1598.94  1599.18  1601.35  1601.46  3067.87  3068.26
eigval :     3069.20  3069.46  3069.75  3070.34  3070.82  3070.91
eigval :     3070.96  3071.34  3071.46  3072.15  3074.38  3074.47
eigval :     3074.93  3074.97  3079.12  3079.42  3080.39  3080.69
eigval :     3081.64  3081.80  3082.19  3082.30  3083.13  3083.30
eigval :     3084.01  3084.20  3087.17  3087.36  3088.00  3089.34
eigval :     3089.61  3089.96  3090.00  3090.03  3091.73  3091.84
eigval :     3098.71  3098.75  3098.87  3099.57  3107.91  3109.82

   temp. (K)  partition function   enthalpy   heat capacity  entropy
                                   cal/mol     cal/K/mol   cal/K/mol   J/K/mol
 298.15  VIB  0.190E+29            34074.577    216.338    214.404
         ROT  0.372E+09              888.752      2.981     42.201
         INT  0.707E+37            34963.329    219.319    256.605
         TR   0.279E+29             1481.254      4.968     46.380
         TOT                       36444.5831   224.2872   302.9848  1267.6883

       T/K    H(0)-H(T)+PV         H(T)/Eh          T*S/Eh         G(T)/Eh
   ------------------------------------------------------------------------
    298.15    0.580781E-01    0.957763E+00    0.143958E+00    0.813805E+00
   ------------------------------------------------------------------------

         :::::::::::::::::::::::::::::::::::::::::::::::::::::
         ::                  THERMODYNAMIC                  ::
         :::::::::::::::::::::::::::::::::::::::::::::::::::::
         :: total free energy        -183.663713445048 Eh   ::
         ::.................................................::
         :: total energy             -184.477518326164 Eh   ::
         :: zero point energy           0.899684582002 Eh   ::
         :: G(RRHO) w/o ZPVE           -0.085879700886 Eh   ::
         :: G(RRHO) contrib.            0.813804881115 Eh   ::
         :::::::::::::::::::::::::::::::::::::::::::::::::::::

           -------------------------------------------------
          | TOTAL ENERGY             -184.477518326164 Eh   |
          | TOTAL ENTHALPY           -183.519755604175 Eh   |
          | TOTAL FREE ENERGY        -183.663713445048 Eh   |
          | GRADIENT NORM               0.000037950393 Eh/α |
          | HOMO-LUMO GAP               0.233894838628 eV   |
           -------------------------------------------------

 * finished run on 2025/09/05 at 09:15:52.207
