   * xtb version 6.7.1 (edcfbbe) compiled by 'albert@albert-system' on 2024-07-22

   ID    Z sym.   atoms
    1    7 N      1, 4, 10, 29, 47, 50
    2    6 C      2, 3, 5-9, 11-16, 18-28, 30-35, 37-46, 48, 49
    3   16 S      17, 36
    4    1 H      51-72

          program call               : xtb data2507/gas/PTZ-DCPP/PTZ-DCPP_gas_S0_finalOpt.xtbopt.xyz --gfn 2 --spinpol --tblite --uhf 2 --ohess vtight --parallel 40 --molden --ceasefiles --namespace data2507/gas/PTZ-DCPP/PTZ-DCPP_gas_T1_preOpt
 * total energy  :  -125.1080738 Eh     change       -0.1505087E-07 Eh
 * total energy  :  -125.1100239 Eh     change       -0.1950110E-02 Eh
 * total energy  :  -125.1100305 Eh     change       -0.6636527E-05 Eh
 * total energy  :  -125.1103076 Eh     change       -0.2770958E-03 Eh
 * total energy  :  -125.1104029 Eh     change       -0.9526982E-04 Eh
 * total energy  :  -125.1103657 Eh     change        0.3718965E-04 Eh
 * total energy  :  -125.1104608 Eh     change       -0.9511285E-04 Eh
 * total energy  :  -125.1104705 Eh     change       -0.9736604E-05 Eh
 * total energy  :  -125.1104894 Eh     change       -0.1886114E-04 Eh
 * total energy  :  -125.1104956 Eh     change       -0.6158829E-05 Eh
 * total energy  :  -125.1105366 Eh     change       -0.4008106E-06 Eh
 * total energy  :  -125.1105371 Eh     change       -0.4865501E-06 Eh
 * total energy  :  -125.1105377 Eh     change       -0.5936334E-06 Eh
 * total energy  :  -125.1105384 Eh     change       -0.6740890E-06 Eh
 * total energy  :  -125.1105391 Eh     change       -0.7340690E-06 Eh
 * total energy  :  -125.1105397 Eh     change       -0.5992414E-06 Eh
 * total energy  :  -125.1105400 Eh     change       -0.2616949E-06 Eh
 * total energy  :  -125.1105402 Eh     change       -0.1893802E-06 Eh
 * total energy  :  -125.1105402 Eh     change       -0.3160959E-07 Eh
   *** GEOMETRY OPTIMIZATION CONVERGED AFTER 43 ITERATIONS ***

 final structure:
================
72
 xtb: 6.7.1 (edcfbbe)
N           -2.52293508121914       -8.06053155487522       -0.02576746524062
C           -1.88797912063991       -7.10370005789417       -0.04218828006428
C           -1.11123345018764       -5.93166156858059       -0.05911356601211
N           -1.68807512153703       -4.73893581833021        0.07004473246732
C           -0.94315042853078       -3.62113166638856        0.05793638948549
C           -1.54977030125195       -2.34344552934783        0.16085712235174
C           -2.95239820693417       -2.24309934156467        0.22119424797554
C           -3.57837735027564       -1.03342980836907        0.27759159304664
C           -2.82507963938606        0.16102907776492        0.27087871357599
N           -3.47522601909529        1.38660210871130        0.26140401117023
C           -2.82067945690618        2.60474972232304       -0.00677092408294
C           -1.76239041107020        3.05540943184584        0.77719679095362
C           -1.11644534391887        4.23767127935784        0.46654842897500
C           -1.53306900786098        5.00141929800914       -0.61199790922074
C           -2.62772807882012        4.60293625114317       -1.35536633129853
C           -3.27415384826079        3.41575026376437       -1.04781917626225
S           -4.70689974375927        2.93618379358825       -1.97194830500583
C           -5.58668451737464        2.18359938206738       -0.63055932460973
C           -6.96719305201306        2.29034297910161       -0.56140424316834
C           -7.64838744339299        1.71398328041244        0.49425585654950
C           -6.94811260017986        1.05674739055783        1.49448594600221
C           -5.57151137822214        0.95346538031253        1.42919220192835
C           -4.87707772768144        1.48941317771675        0.34795287771746
C           -1.44278113964808        0.07068402726568        0.18873456311568
C           -0.77424420674038       -1.15683836542946        0.15819693765076
C            0.66347782333697       -1.26157074050766        0.11236778321757
C            1.51205235297499       -0.15908884045553        0.24602241446856
C            2.89516963181095       -0.27696808230938        0.20061567570072
N            3.70337954768682        0.83534878214650        0.37215877339427
C            5.09919367948593        0.81862019567892        0.17662627884077
C            5.92662228694095       -0.07874691257209        0.84602044902945
C            7.28916134281695       -0.07977279169551        0.61092023560982
C            7.84901056852038        0.83159454275019       -0.27070858078434
C            7.04864106542243        1.77648901970632       -0.88528766193489
C            5.68263112142570        1.77617794204344       -0.65272377845987
S            4.66018587467957        3.03194994653136       -1.37546278619774
C            3.57721865785217        3.22529951420773        0.01476213061720
C            3.13358797431528        4.48580944219963        0.38249718758173
C            2.32477405787122        4.63108283691424        1.49379935335382
C            1.97006569384105        3.51844961869218        2.24296428868249
C            2.40865588366840        2.26081452749847        1.87564417928560
C            3.20218723311357        2.09663511620648        0.74303441950810
C            3.45149826419798       -1.53767287322836       -0.10505030409183
C            2.64796259345417       -2.63439711216802       -0.20928556999362
C            1.25210855912438       -2.54099008687861       -0.05499208905748
C            0.46264029933786       -3.71785382961959       -0.08346039402251
N            1.03426307744667       -4.92611450855382       -0.22463132361901
C            0.28670080110802       -6.02685902202798       -0.21737375531428
C            0.88255641993173       -7.29240841019684       -0.36357338943285
N            1.37085465096603       -8.32516888937129       -0.48089876217905
H           -3.52630946181675       -3.15679289376781        0.20198209769984
H           -4.65576742135647       -0.99384596212800        0.28365763623168
H           -1.45473720742720        2.47537876411953        1.63427442345710
H           -0.28417991608321        4.56249398405659        1.07018047059334
H           -1.01979889613391        5.91741035137858       -0.85940349259176
H           -2.98919863791889        5.19971406740856       -2.17824992986829
H           -7.49343345318497        2.81949861725066       -1.34048468865419
H           -8.72341228373962        1.78885731451282        0.54315331624891
H           -7.47560159383093        0.62514271235021        2.33106308107039
H           -5.01969777219461        0.44938976024286        2.20849167803578
H           -0.86624555591330        0.97531596359422        0.10128459933382
H            1.08425536194254        0.82032166642090        0.38276656591186
H            5.49455812382361       -0.76986678802146        1.55373085477949
H            7.91642252884980       -0.79209786257370        1.12433973457651
H            8.91082928601235        0.82251716797131       -0.46069776355828
H            7.46980350235524        2.51753140810009       -1.54665232601580
H            3.43139542031336        5.34072296214444       -0.20415594701274
H            1.98834452014126        5.61442883099899        1.78576332703392
H            1.35752559167144        3.63155610716181        3.12490900578993
H            2.14865604542333        1.39435128268400        2.46503970737968
H            4.51113578659104       -1.64000163887113       -0.27128925212574
H            3.07049777659405       -3.60628688160619       -0.41288990794354

 projected vibrational frequencies (cm⁻¹)
eigval :       -0.00    -0.00     0.00     0.00     0.00     0.00
eigval :        8.51    13.38    21.75    23.73    38.73    41.92
eigval :       47.91    55.15    56.11    74.44    78.12    85.42
eigval :       86.88    94.59    97.39   107.75   129.86   143.22
eigval :      150.59   153.53   153.78   167.32   169.18   196.06
eigval :      200.84   213.81   241.52   245.56   259.66   264.16
eigval :      275.88   292.34   308.58   315.86   330.52   338.06
eigval :      342.67   350.39   369.90   372.55   375.99   379.56
eigval :      385.14   400.59   420.94   422.32   424.47   425.82
eigval :      429.59   441.98   442.38   443.78   449.48   474.04
eigval :      483.37   485.80   495.62   496.27   510.86   518.73
eigval :      520.38   531.41   538.59   543.83   581.00   584.40
eigval :      590.03   595.39   601.79   604.49   615.85   627.88
eigval :      641.11   649.44   657.37   658.24   667.21   674.60
eigval :      686.02   687.95   690.53   692.54   694.47   703.70
eigval :      713.18   731.49   761.00   777.41   779.91   780.50
eigval :      784.64   810.77   816.19   817.03   842.40   851.13
eigval :      882.09   883.83   885.00   886.02   889.49   901.51
eigval :      902.26   909.05   910.97   916.27   917.63   918.88
eigval :      919.45   930.30   930.78   932.28   937.96   943.12
eigval :      991.83  1016.16  1040.57  1043.18  1045.13  1053.02
eigval :     1058.45  1074.50  1086.09  1086.58  1087.46  1088.56
eigval :     1132.93  1148.98  1149.33  1155.54  1156.43  1168.00
eigval :     1169.46  1174.09  1175.25  1175.62  1177.73  1193.89
eigval :     1197.01  1226.05  1227.41  1228.75  1232.75  1241.17
eigval :     1241.55  1255.79  1260.04  1284.42  1288.72  1291.47
eigval :     1303.88  1309.42  1313.98  1315.16  1319.87  1320.37
eigval :     1333.59  1343.22  1357.72  1381.58  1399.68  1411.35
eigval :     1413.04  1415.12  1420.01  1421.86  1425.01  1439.72
eigval :     1441.42  1450.90  1454.85  1458.37  1467.20  1469.60
eigval :     1502.88  1519.90  1558.95  1559.47  1565.91  1567.08
eigval :     1570.15  1570.44  1573.68  1577.62  1583.89  1586.80
eigval :     2310.92  2340.71  3082.74  3087.60  3088.97  3089.14
eigval :     3089.86  3094.34  3094.67  3094.97  3096.50  3097.31
eigval :     3097.48  3100.46  3100.81  3104.17  3105.04  3108.10
eigval :     3108.33  3109.92  3111.95  3115.45  3115.54  3130.44

   temp. (K)  partition function   enthalpy   heat capacity  entropy
                                   cal/mol     cal/K/mol   cal/K/mol   J/K/mol
 298.15  VIB  0.244E+18            23166.706    145.982    143.462
         ROT  0.103E+09              888.752      2.981     39.650
         INT  0.252E+26            24055.458    148.963    183.113
         TR   0.170E+29             1481.254      4.968     45.388
         TOT                       25536.7120   153.9315   228.5012   956.0488

       T/K    H(0)-H(T)+PV         H(T)/Eh          T*S/Eh         G(T)/Eh
   ------------------------------------------------------------------------
    298.15    0.406953E-01    0.549520E+00    0.108568E+00    0.440952E+00
   ------------------------------------------------------------------------

         :::::::::::::::::::::::::::::::::::::::::::::::::::::
         ::                  THERMODYNAMIC                  ::
         :::::::::::::::::::::::::::::::::::::::::::::::::::::
         :: total free energy        -124.669588524122 Eh   ::
         ::.................................................::
         :: total energy             -125.110540199105 Eh   ::
         :: zero point energy           0.508824603994 Eh   ::
         :: G(RRHO) w/o ZPVE           -0.067872929012 Eh   ::
         :: G(RRHO) contrib.            0.440951674982 Eh   ::
         :::::::::::::::::::::::::::::::::::::::::::::::::::::

           -------------------------------------------------
          | TOTAL ENERGY             -125.110540199105 Eh   |
          | TOTAL ENTHALPY           -124.561020254217 Eh   |
          | TOTAL FREE ENERGY        -124.669588524122 Eh   |
          | GRADIENT NORM               0.000144644814 Eh/α |
           -------------------------------------------------

 * finished run on 2025/07/17 at 05:17:47.475
