   * xtb version 6.7.1 (edcfbbe) compiled by 'albert@albert-system' on 2024-07-22

   ID    Z sym.   atoms
    1    7 N      1, 4, 10, 29, 47, 50
    2    6 C      2, 3, 5-9, 11-16, 18-28, 30-35, 37-46, 48, 49
    3   16 S      17, 36
    4    1 H      51-72

          program call               : xtb data2507/gas/PTZ-DCPP/PTZ-DCPP.xyz --gfn 2 --ohess vtight --parallel 40 --molden --ceasefiles --namespace data2507/gas/PTZ-DCPP/PTZ-DCPP_gas_S0_preOpt
          :  Hamiltonian                  GFN2-xTB          :
 * total energy  :  -125.1256165 Eh     change       -0.3026287E-08 Eh
 * total energy  :  -125.1472710 Eh     change       -0.2165446E-01 Eh
 * total energy  :  -125.1552899 Eh     change       -0.8018972E-02 Eh
 * total energy  :  -125.1572776 Eh     change       -0.1987696E-02 Eh
 * total energy  :  -125.1582204 Eh     change       -0.9427647E-03 Eh
 * total energy  :  -125.1584502 Eh     change       -0.2298332E-03 Eh
 * total energy  :  -125.1584357 Eh     change        0.1448527E-04 Eh
 * total energy  :  -125.1585083 Eh     change       -0.7255992E-04 Eh
 * total energy  :  -125.1585229 Eh     change       -0.1461064E-04 Eh
 * total energy  :  -125.1585227 Eh     change        0.2366128E-06 Eh
 * total energy  :  -125.1593560 Eh     change       -0.1424032E-06 Eh
 * total energy  :  -125.1593563 Eh     change       -0.3240298E-06 Eh
 * total energy  :  -125.1593568 Eh     change       -0.4894473E-06 Eh
 * total energy  :  -125.1593572 Eh     change       -0.4064036E-06 Eh
 * total energy  :  -125.1593575 Eh     change       -0.2825548E-06 Eh
 * total energy  :  -125.1593577 Eh     change       -0.2514828E-06 Eh
 * total energy  :  -125.1593582 Eh     change       -0.4035634E-06 Eh
 * total energy  :  -125.1593581 Eh     change        0.3014577E-08 Eh
 * total energy  :  -125.1593582 Eh     change       -0.3502242E-07 Eh
   *** GEOMETRY OPTIMIZATION CONVERGED AFTER 153 ITERATIONS ***

 final structure:
================
72
 xtb: 6.7.1 (edcfbbe)
N           -1.96741964690064       -8.38406984552042       -0.15270758910588
C           -1.41926755584835       -7.37938902344480       -0.11015112774258
C           -0.70753340203718       -6.15424375531946       -0.05413895471130
N           -1.38493093693540       -5.02092521847927       -0.11014772074119
C           -0.70620008508553       -3.87561596459898       -0.05522512089898
C           -1.42608395342196       -2.63231110190669       -0.11520431013173
C           -2.82207968347903       -2.64644756212949       -0.22603505882002
C           -3.53250818104238       -1.47457054945115       -0.28835978549958
C           -2.84911293424243       -0.25448783966239       -0.24262567059832
N           -3.55416893119740        0.97472438771221       -0.29488399947686
C           -4.20510790463307        1.32208474882207       -1.48085520181243
C           -4.21136327852181        0.44598453418498       -2.56753397819853
C           -4.86422106378819        0.75812662993582       -3.74673896252261
C           -5.53381794268569        1.95959176717367       -3.87916833203159
C           -5.50530722913500        2.85900416340483       -2.82909787875687
C           -4.83674376494335        2.55712751353025       -1.65355727484876
S           -4.75661943255154        3.85335651187122       -0.45101796084168
C           -4.22300572736175        2.96270130966348        0.98026952005623
C           -4.34470987028444        3.61628450186635        2.19629366834434
C           -3.93583198553068        3.00999048887513        3.36993381733651
C           -3.42631745994120        1.72615371875571        3.31809462836965
C           -3.31941903290400        1.06492209680877        2.10785354716814
C           -3.69452715027831        1.67213338328762        0.90770112571086
C           -1.47117209607492       -0.22944381182327       -0.12495729057428
C           -0.72410200479622       -1.40871875241346       -0.05705266155722
C            0.72520434878500       -1.40886459498508        0.06258564006250
C            1.47248960463134       -0.22980207368613        0.13021982720216
C            2.85077232418158       -0.25490295188276        0.24523472878791
N            3.55578247105126        0.97414239501495        0.29586479042172
C            4.21637091471910        1.31871849223100        1.47740735165276
C            4.23292146965652        0.43966158352725        2.56160917425124
C            4.89636940332202        0.74876812482918        3.73567844794862
C            5.56646016561888        1.95025064510525        3.86551334319280
C            5.52709012138685        2.85295930074011        2.81866517973711
C            4.84790247842636        2.55407935249119        1.64843249257875
S            4.75392494694897        3.85484311951292        0.45186813611621
C            4.20863827932658        2.96870546079609       -0.97771104245847
C            4.31754265054374        3.62737760009622       -2.19224585413462
C            3.89994575351267        3.02448417753401       -3.36452538395079
C            3.39528080699113        1.73869157892863       -3.31319618010288
C            3.30111134196378        1.07252338308495       -2.10463227620118
C            3.68419942639397        1.67649332468484       -0.90532584627704
C            3.53399730403279       -1.47521364504177        0.28876841047187
C            2.82322603219574       -2.64694106810094        0.22782168464291
C            1.42702504190878       -2.63265650163385        0.11953826596396
C            0.70687756553139       -3.87574547308781        0.06018593594096
N            1.38533616427677       -5.02127606579940        0.11541523281948
C            0.70763466011362       -6.15438012064423        0.05979224762246
C            1.41895979850203       -7.37978323536012        0.11588733497277
N            1.96633605143790       -8.38484700042925        0.15932516859219
H           -3.32024116754614       -3.60273156439352       -0.25250890056788
H           -4.60950754635630       -1.48054991535948       -0.36094530812457
H           -3.68476727500451       -0.49269570365325       -2.50067207461872
H           -4.84266370384324        0.05117445405514       -4.56190112440429
H           -6.05502719910238        2.20604705302976       -4.79036152024809
H           -5.98791853485511        3.82080314282258       -2.91229177716577
H           -4.75729276838566        4.61355854055630        2.20382747784397
H           -4.02356674643788        3.53283452168609        4.30893648221291
H           -3.11456624884804        1.22438159808552        4.22130191280832
H           -2.93813825721428        0.05563663451522        2.09630800535138
H           -0.99061892357015        0.73475514693444       -0.08390210319958
H            0.99192445032057        0.73444913869307        0.09040925384360
H            3.70597275360056       -0.49896936767968        2.49719869722697
H            4.88266920327418        0.03941988426240        4.54892212333196
H            6.09612982219308        2.19423698406196        4.77247887425066
H            6.00931232878605        3.81507615246942        2.90042823636364
H            4.72722955134284        4.62584578040459       -2.19954066415078
H            3.97755578538163        3.55127928589948       -4.30220783808056
H            3.07745775766761        1.23926814218248       -4.21558566400205
H            2.92367554892786        0.06179379960325       -2.09381403550718
H            4.61120352774183       -1.48157914045182        0.35815448089124
H            3.32135077007722       -3.60328270680540        0.25289722800696

          :  Hamiltonian                  GFN2-xTB          :
         :: gradient norm              0.000061425317 Eh/a0 ::
         :: HOMO-LUMO gap              0.584186633388 eV    ::
         :: SCC energy              -127.410336340239 Eh    ::
         :: -> dispersion             -0.112322693851 Eh    ::
         :: repulsion energy           2.250978155511 Eh    ::

    * Orbital Energies and Occupations

         #    Occupation            Energy/Eh            Energy/eV
      -------------------------------------------------------------
         1        2.0000           -0.7266709             -19.7737
       ...           ...                  ...                  ...
       104        2.0000           -0.4329195             -11.7803
       105        2.0000           -0.4321751             -11.7601
       106        2.0000           -0.4259508             -11.5907
       107        2.0000           -0.4257377             -11.5849
       108        2.0000           -0.4249766             -11.5642
       109        2.0000           -0.4235029             -11.5241
       110        2.0000           -0.4217337             -11.4760
       111        2.0000           -0.4209976             -11.4559
       112        2.0000           -0.3919588             -10.6657
       113        2.0000           -0.3914064             -10.6507
       114        2.0000           -0.3897857             -10.6066
       115        2.0000           -0.3511245              -9.5546
       116        2.0000           -0.3509723              -9.5504 (HOMO)
       117        0.0000           -0.3295040              -8.9663 (LUMO)
       118                         -0.3234844              -8.8025
       119                         -0.2862955              -7.7905
       120                         -0.2764448              -7.5224
       121                         -0.2527270              -6.8771
       122                         -0.2525729              -6.8729
       123                         -0.2487166              -6.7679
       124                         -0.2415943              -6.5741
       125                         -0.2413065              -6.5663
       126                         -0.2360654              -6.4237
       127                         -0.2355816              -6.4105
       ...                                ...                  ...
       232                          1.1591803              31.5429
      -------------------------------------------------------------
                  HL-Gap            0.0214683 Eh            0.5842 eV

     #   Z          covCN         q      C6AA      α(0)
     1   7 N        0.911    -0.187    25.065     7.241
     2   6 C        1.909     0.112    28.329     8.596
     3   6 C        2.954     0.102    25.742     8.322
     4   7 N        1.854    -0.216    26.551     7.637
     5   6 C        2.965     0.087    26.060     8.373
     6   6 C        2.988    -0.002    28.071     8.691
     7   6 C        2.922    -0.025    28.627     8.774
     8   6 C        2.918    -0.036    28.892     8.814
     9   6 C        2.929     0.076    26.302     8.411
    10   7 N        2.750    -0.073    22.653     7.069
    11   6 C        2.939     0.059    26.676     8.471
    12   6 C        2.928    -0.058    29.453     8.900
    13   6 C        2.919    -0.033    28.825     8.804
    14   6 C        2.918    -0.037    28.931     8.820
    15   6 C        2.991    -0.039    28.954     8.827
    16   6 C        2.971     0.033    27.249     8.562
    17  16 S        2.139    -0.141   146.991    20.406
    18   6 C        2.971     0.034    27.232     8.560
    19   6 C        2.987    -0.039    28.954     8.827
    20   6 C        2.918    -0.037    28.917     8.818
    21   6 C        2.919    -0.033    28.827     8.805
    22   6 C        2.928    -0.057    29.420     8.895
    23   6 C        2.946     0.059    26.684     8.472
    24   6 C        2.925    -0.043    29.059     8.840
    25   6 C        2.976     0.011    27.768     8.644
    26   6 C        2.976     0.011    27.769     8.644
    27   6 C        2.925    -0.043    29.060     8.840
    28   6 C        2.929     0.076    26.304     8.411
    29   7 N        2.750    -0.073    22.648     7.068
    30   6 C        2.939     0.059    26.677     8.471
    31   6 C        2.928    -0.058    29.453     8.900
    32   6 C        2.919    -0.033    28.824     8.804
    33   6 C        2.918    -0.037    28.930     8.820
    34   6 C        2.991    -0.039    28.953     8.827
    35   6 C        2.971     0.033    27.249     8.562
    36  16 S        2.139    -0.141   146.980    20.405
    37   6 C        2.971     0.034    27.232     8.560
    38   6 C        2.987    -0.039    28.954     8.827
    39   6 C        2.918    -0.037    28.916     8.818
    40   6 C        2.919    -0.033    28.827     8.804
    41   6 C        2.928    -0.057    29.418     8.895
    42   6 C        2.946     0.059    26.685     8.472
    43   6 C        2.917    -0.036    28.894     8.815
    44   6 C        2.922    -0.025    28.627     8.774
    45   6 C        2.988    -0.002    28.072     8.691
    46   6 C        2.965     0.087    26.061     8.374
    47   7 N        1.854    -0.216    26.552     7.637
    48   6 C        2.954     0.102    25.741     8.322
    49   6 C        1.909     0.112    28.328     8.596
    50   7 N        0.911    -0.187    25.064     7.241
    51   1 H        0.926     0.071     2.077     2.254
    52   1 H        0.926     0.054     2.271     2.356
    53   1 H        0.926     0.032     2.555     2.499
    54   1 H        0.926     0.037     2.491     2.468
    55   1 H        0.926     0.039     2.459     2.452
    56   1 H        0.926     0.046     2.364     2.405
    57   1 H        0.926     0.047     2.357     2.401
    58   1 H        0.926     0.040     2.453     2.449
    59   1 H        0.926     0.036     2.497     2.471
    60   1 H        0.926     0.029     2.606     2.524
    61   1 H        0.926     0.051     2.301     2.372
    62   1 H        0.926     0.051     2.302     2.373
    63   1 H        0.926     0.032     2.552     2.498
    64   1 H        0.926     0.037     2.490     2.468
    65   1 H        0.926     0.039     2.458     2.452
    66   1 H        0.926     0.047     2.364     2.404
    67   1 H        0.926     0.047     2.357     2.401
    68   1 H        0.926     0.040     2.452     2.449
    69   1 H        0.926     0.036     2.496     2.471
    70   1 H        0.926     0.029     2.605     2.524
    71   1 H        0.926     0.054     2.271     2.356
    72   1 H        0.926     0.071     2.077     2.254

molecular dipole:
                 x           y           z       tot (Debye)
 q only:        0.009       1.752      -0.001
   full:        0.010       1.990      -0.002       5.058

 projected vibrational frequencies (cm⁻¹)
eigval :       -0.00    -0.00     0.00     0.00     0.00     0.00
eigval :        8.20     9.43    12.53    14.61    19.31    21.38
eigval :       22.00    31.42    35.53    71.09    74.64    83.29
eigval :       91.17    92.83    98.96   103.97   112.15   134.88
eigval :      142.51   145.52   149.77   165.85   176.77   206.66
eigval :      225.39   226.08   228.87   243.56   245.25   253.34
eigval :      271.27   279.39   303.17   320.02   320.61   339.11
eigval :      367.97   370.86   373.55   376.21   385.46   391.19
eigval :      402.46   407.16   411.23   412.53   419.46   419.93
eigval :      423.67   433.86   446.02   462.03   464.01   471.10
eigval :      474.73   490.85   491.00   498.58   503.14   508.70
eigval :      530.65   539.24   541.25   563.32   574.30   593.13
eigval :      601.76   606.28   632.52   640.08   643.89   649.05
eigval :      649.30   652.19   653.62   655.41   655.98   670.73
eigval :      682.09   696.45   701.29   710.09   712.33   719.13
eigval :      738.51   754.17   763.25   770.26   770.77   771.75
eigval :      772.00   808.16   832.65   832.99   860.38   862.33
eigval :      862.49   862.68   869.19   877.82   895.97   901.68
eigval :      901.74   902.20   902.26   907.91   908.63   915.82
eigval :      915.85   916.33   916.37   933.47   933.80   956.72
eigval :      992.26  1036.29  1042.78  1043.02  1056.64  1058.74
eigval :     1069.76  1105.03  1105.19  1106.64  1106.69  1144.81
eigval :     1147.06  1153.29  1153.30  1159.05  1159.37  1160.89
eigval :     1180.76  1181.07  1181.48  1181.62  1191.76  1191.80
eigval :     1224.73  1227.47  1246.78  1247.05  1251.65  1256.73
eigval :     1256.86  1267.18  1268.76  1300.56  1302.94  1311.08
eigval :     1313.54  1317.28  1317.44  1320.97  1331.15  1331.41
eigval :     1332.06  1352.41  1383.39  1399.22  1407.32  1408.25
eigval :     1412.50  1419.31  1421.32  1434.43  1440.52  1461.87
eigval :     1462.61  1466.86  1474.25  1476.10  1485.76  1486.71
eigval :     1534.13  1546.15  1557.48  1557.55  1570.79  1571.05
eigval :     1575.09  1575.28  1576.45  1585.44  1592.10  1593.36
eigval :     2367.42  2370.00  3088.27  3088.32  3089.21  3089.27
eigval :     3094.04  3094.07  3094.41  3094.43  3096.14  3096.18
eigval :     3101.52  3101.59  3105.18  3105.31  3106.29  3108.69
eigval :     3108.76  3110.07  3110.19  3112.12  3112.16  3116.42

   temp. (K)  partition function   enthalpy   heat capacity  entropy
                                   cal/mol     cal/K/mol   cal/K/mol   J/K/mol
 298.15  VIB  0.207E+20            23266.878    143.107    145.707
         ROT  0.532E+08              888.752      2.981     38.332
         INT  0.110E+28            24155.630    146.088    184.040
         TR   0.170E+29             1481.254      4.968     45.388
         TOT                       25636.8842   151.0558   229.4283   959.9279

       T/K    H(0)-H(T)+PV         H(T)/Eh          T*S/Eh         G(T)/Eh
   ------------------------------------------------------------------------
    298.15    0.408550E-01    0.551851E+00    0.109009E+00    0.442842E+00
   ------------------------------------------------------------------------

         :::::::::::::::::::::::::::::::::::::::::::::::::::::
         ::                  THERMODYNAMIC                  ::
         :::::::::::::::::::::::::::::::::::::::::::::::::::::
         :: total free energy        -124.716516267748 Eh   ::
         ::.................................................::
         :: total energy             -125.159358184769 Eh   ::
         :: zero point energy           0.510995717025 Eh   ::
         :: G(RRHO) w/o ZPVE           -0.068153800004 Eh   ::
         :: G(RRHO) contrib.            0.442841917021 Eh   ::
         :::::::::::::::::::::::::::::::::::::::::::::::::::::

           -------------------------------------------------
          | TOTAL ENERGY             -125.159358184769 Eh   |
          | TOTAL ENTHALPY           -124.607507492205 Eh   |
          | TOTAL FREE ENERGY        -124.716516267748 Eh   |
          | GRADIENT NORM               0.000061372179 Eh/α |
          | HOMO-LUMO GAP               0.584182342240 eV   |
           -------------------------------------------------

 * finished run on 2025/07/17 at 05:13:46.209
