   * xtb version 6.7.1 (edcfbbe) compiled by 'albert@albert-system' on 2024-07-22

   ID    Z sym.   atoms
    1    7 N      1, 4, 10, 29, 47, 50
    2    6 C      2, 3, 5-9, 11-16, 18-28, 30-35, 37-46, 48, 49
    3   16 S      17, 36
    4    1 H      51-72

          program call               : xtb data2507/gas/PTZ-DCPP/PTZ-DCPP_gas_T1_crest.xyz --gfn 2 --spinpol --tblite --uhf 2 --ohess vtight --parallel 40 --molden --ceasefiles --namespace data2507/gas/PTZ-DCPP/PTZ-DCPP_gas_T1_finalOpt
 * total energy  :  -125.1169772 Eh     change       -0.4811554E-07 Eh
 * total energy  :  -125.1170171 Eh     change       -0.3980861E-04 Eh
 * total energy  :  -125.1170210 Eh     change       -0.3979860E-05 Eh
 * total energy  :  -125.1170199 Eh     change        0.1094233E-05 Eh
 * total energy  :  -125.1170277 Eh     change       -0.7788582E-05 Eh
 * total energy  :  -125.1170281 Eh     change       -0.3834846E-06 Eh
 * total energy  :  -125.1170262 Eh     change        0.1933879E-05 Eh
 * total energy  :  -125.1170300 Eh     change       -0.3817958E-05 Eh
 * total energy  :  -125.1170306 Eh     change       -0.6298162E-06 Eh
 * total energy  :  -125.1170318 Eh     change       -0.1209002E-05 Eh
 * total energy  :  -125.1170520 Eh     change       -0.1470822E-06 Eh
 * total energy  :  -125.1170522 Eh     change       -0.1895494E-06 Eh
 * total energy  :  -125.1170524 Eh     change       -0.2320579E-06 Eh
 * total energy  :  -125.1170527 Eh     change       -0.2737675E-06 Eh
 * total energy  :  -125.1170528 Eh     change       -0.1712787E-06 Eh
 * total energy  :  -125.1170531 Eh     change       -0.2092681E-06 Eh
 * total energy  :  -125.1170530 Eh     change        0.1102688E-07 Eh
 * total energy  :  -125.1170532 Eh     change       -0.1383276E-06 Eh
 * total energy  :  -125.1170533 Eh     change       -0.8212065E-07 Eh
   *** GEOMETRY OPTIMIZATION CONVERGED AFTER 57 ITERATIONS ***

 final structure:
================
72
 xtb: 6.7.1 (edcfbbe)
N           -2.00152592802472       -8.16182843113748        0.16996097512332
C           -1.43280444764828       -7.16466437047819        0.14882784846248
C           -0.72869676549836       -5.94497733185904        0.12254764262430
N           -1.40648392805550       -4.79249556304525        0.10149410131871
C           -0.72267563227012       -3.63622251333068        0.07587303871879
C           -1.42757648093434       -2.39724954161284        0.05287791037836
C           -2.83368568421698       -2.40976579516094        0.06092817139939
C           -3.54903858762822       -1.24501145758869        0.04024771446286
C           -2.86032902068756       -0.02180150453833        0.00860476259022
N           -3.60230849609607        1.20077725513535       -0.01357481986887
C           -3.93989003711829        1.76389778430488        1.20759831406348
C           -3.54914038668424        1.12986740048093        2.39234600216548
C           -3.86203292465654        1.65519185178833        3.63033231626986
C           -4.58067500801127        2.83466623152282        3.73097899362856
C           -4.97710016174008        3.47815515256216        2.57466065398630
C           -4.66227784847589        2.95676396336377        1.32804119192400
S           -5.21575634497679        3.89231376786568       -0.06306911152927
C           -4.73950626193756        2.86003007059839       -1.41378624516306
C           -5.12508556850900        3.29286083247409       -2.67432988835788
C           -4.78824599112068        2.57161142096103       -3.80333874323240
C           -4.05484494765001        1.40557374228601       -3.66116692466704
C           -3.67165273483495        0.96820592398877       -2.40882730448066
C           -4.00571920979950        1.67924760996806       -1.25077163182871
C           -1.48661538188951        0.01684555420870       -0.00038517807878
C           -0.72518306720324       -1.16311284371518        0.02275884759552
C            0.71043514840991       -1.16893470385418        0.01863647275373
C            1.48124481791590        0.00482662022986       -0.00820401940835
C            2.85462289086092       -0.04487881979331       -0.00740765646546
N            3.60576229021784        1.17203331178584       -0.03258196339957
C            3.95857827377337        1.72868766446098        1.18726837175739
C            3.57702533567448        1.09183405139731        2.37348809042586
C            3.90545948795792        1.61061815981144        3.61021280791476
C            4.63094761343519        2.78612357177513        3.70801057440137
C            5.01816983095719        3.43250198826516        2.55017275777216
C            4.68766213846544        2.91774032204722        1.30487354617520
S            5.22946413885003        3.85709797844565       -0.08832930918225
C            4.73703715447548        2.83090951411788       -1.43794008069092
C            5.11267248059804        3.26625946288089       -2.70060641171886
C            4.76297690364182        2.54969310834289       -3.82870169469773
C            4.02717689094098        1.38555986139736       -3.68339657085469
C            3.65380854736502        0.94570082662181       -2.42895299228546
C            4.00031719040175        1.65238856320698       -1.27190269605189
C            3.53365222186254       -1.27361988969194        0.01913129833694
C            2.80902568644620       -2.43255876272904        0.04378937041004
C            1.40303259843787       -2.40869201420082        0.04439623391360
C            0.68830747716160       -3.64195351521312        0.07174737560032
N            1.36289165970540       -4.80369238210745        0.09389463079868
C            0.67592811496483       -5.95069040623944        0.11894293411574
C            1.37040176148002       -7.17592828463618        0.14215001233746
N            1.93162171543019       -8.17739866580253        0.16117928430454
H           -3.32768903244349       -3.36861916304251        0.08477275938385
H           -4.62820759139306       -1.24707073629005        0.04717110706636
H           -2.99225449965762        0.20829989173126        2.33674974423065
H           -3.54175147991985        1.13473863157172        4.51958282481987
H           -4.83018014901457        3.24922071706523        4.69445847182371
H           -5.53755292455151        4.39952756538499        2.61893694292097
H           -5.69246183360157        4.20780377300361       -2.75150703901179
H           -5.09323600327776        2.91719359728365       -4.77798988137352
H           -3.77752517764640        0.82712185917145       -4.52874419586094
H           -3.10264135996620        0.05664957831487       -2.32068151783980
H           -1.00574876023661        0.98220171153482       -0.02449258561835
H            1.00807225885288        0.97405660912758       -0.02868049519448
H            3.01488671471327        0.17333488155141        2.32007603644443
H            3.59189389106990        1.08817307066365        4.50068675943548
H            4.89259858106286        3.19552962318078        4.67046715190680
H            5.58327765768867        4.35112586908613        2.59226016619608
H            5.68252075354524        4.17945822342795       -2.78017095348518
H            5.06014051996101        2.89731670834649       -4.80504332934886
H            3.74031562422468        0.81053759075769       -4.55015072451831
H            3.08286065019628        0.03559512668875       -2.33830482377575
H            4.61279075986654       -1.28441014348047        0.01938336549237
H            3.29539324346311       -3.39538683994631        0.06426343204050

 projected vibrational frequencies (cm⁻¹)
eigval :       -0.00    -0.00    -0.00     0.00     0.00     0.00
eigval :        6.29     6.87    13.40    15.08    17.91    18.87
eigval :       20.12    34.73    36.81    64.91    75.55    81.78
eigval :       89.33    95.17   100.41   100.67   103.79   132.72
eigval :      135.53   144.07   147.54   156.41   178.94   206.23
eigval :      227.01   227.02   232.26   236.92   238.38   249.10
eigval :      265.21   274.97   315.06   318.02   326.13   328.66
eigval :      366.91   371.33   371.72   374.21   381.31   391.34
eigval :      397.13   405.64   413.98   414.23   416.99   420.36
eigval :      424.00   424.67   447.14   451.22   468.81   469.44
eigval :      474.42   487.25   487.26   494.59   505.04   514.56
eigval :      519.16   530.07   537.38   551.84   571.27   589.26
eigval :      596.36   603.60   615.45   631.84   632.16   643.74
eigval :      646.52   650.54   651.28   651.76   652.50   652.61
eigval :      664.92   674.18   690.41   701.35   706.90   707.63
eigval :      724.80   734.89   757.58   769.02   769.56   772.16
eigval :      772.57   811.23   819.26   820.15   854.15   862.03
eigval :      862.08   862.14   862.36   867.18   889.92   904.01
eigval :      904.06   904.17   904.36   907.88   908.37   911.99
eigval :      916.65   916.84   917.74   917.75   918.00   918.06
eigval :      962.68   988.11  1032.16  1045.11  1045.16  1055.30
eigval :     1056.00  1066.32  1101.87  1102.16  1102.74  1102.76
eigval :     1133.85  1145.44  1147.05  1152.02  1152.10  1157.37
eigval :     1158.83  1176.34  1178.62  1179.04  1179.27  1188.77
eigval :     1189.22  1222.44  1224.05  1242.61  1242.79  1248.45
eigval :     1250.55  1251.66  1257.06  1285.21  1286.56  1299.20
eigval :     1307.32  1307.49  1316.15  1324.82  1328.26  1328.80
eigval :     1330.97  1333.16  1366.41  1375.54  1377.64  1403.06
eigval :     1404.90  1404.99  1409.89  1417.04  1419.51  1447.49
eigval :     1448.99  1449.69  1458.32  1464.43  1467.30  1473.09
eigval :     1506.29  1522.29  1550.91  1550.93  1564.40  1564.69
eigval :     1567.16  1569.28  1569.32  1577.58  1585.82  1587.09
eigval :     2320.87  2343.97  3092.51  3092.52  3092.81  3092.84
eigval :     3093.01  3093.21  3094.56  3095.21  3095.29  3095.64
eigval :     3095.72  3105.11  3106.14  3106.32  3108.53  3108.60
eigval :     3108.70  3108.90  3113.78  3113.94  3114.07  3114.82

   temp. (K)  partition function   enthalpy   heat capacity  entropy
                                   cal/mol     cal/K/mol   cal/K/mol   J/K/mol
 298.15  VIB  0.567E+20            23467.881    144.331    147.699
         ROT  0.108E+09              888.752      2.981     39.739
         INT  0.612E+28            24356.633    147.312    187.439
         TR   0.170E+29             1481.254      4.968     45.388
         TOT                       25837.8869   152.2797   232.8271   974.1486

       T/K    H(0)-H(T)+PV         H(T)/Eh          T*S/Eh         G(T)/Eh
   ------------------------------------------------------------------------
    298.15    0.411753E-01    0.549038E+00    0.110624E+00    0.438415E+00
   ------------------------------------------------------------------------

         :::::::::::::::::::::::::::::::::::::::::::::::::::::
         ::                  THERMODYNAMIC                  ::
         :::::::::::::::::::::::::::::::::::::::::::::::::::::
         :: total free energy        -124.678638552962 Eh   ::
         ::.................................................::
         :: total energy             -125.117053268103 Eh   ::
         :: zero point energy           0.507863088694 Eh   ::
         :: G(RRHO) w/o ZPVE           -0.069448373553 Eh   ::
         :: G(RRHO) contrib.            0.438414715141 Eh   ::
         :::::::::::::::::::::::::::::::::::::::::::::::::::::

           -------------------------------------------------
          | TOTAL ENERGY             -125.117053268103 Eh   |
          | TOTAL ENTHALPY           -124.568014885692 Eh   |
          | TOTAL FREE ENERGY        -124.678638552962 Eh   |
          | GRADIENT NORM               0.000171664650 Eh/α |
           -------------------------------------------------

 * finished run on 2025/07/17 at 05:23:10.279
