   * xtb version 6.7.1 (edcfbbe) compiled by 'albert@albert-system' on 2024-07-22

   ID    Z sym.   atoms
    1    7 N      1, 4, 10, 29, 47, 50
    2    6 C      2, 3, 5-9, 11-16, 18-28, 30-35, 37-46, 48, 49
    3   16 S      17, 36
    4    1 H      51-72

          program call               : xtb data2507/gas/PTZ-DCPP/PTZ-DCPP_gas_S0_crest.xyz --gfn 2 --ohess vtight --parallel 40 --molden --ceasefiles --namespace data2507/gas/PTZ-DCPP/PTZ-DCPP_gas_S0_finalOpt
          :  Hamiltonian                  GFN2-xTB          :
 * total energy  :  -125.1669804 Eh     change       -0.4145448E-08 Eh
 * total energy  :  -125.1669719 Eh     change        0.8569504E-05 Eh
 * total energy  :  -125.1669823 Eh     change       -0.1047037E-04 Eh
 * total energy  :  -125.1669767 Eh     change        0.5652079E-05 Eh
 * total energy  :  -125.1669841 Eh     change       -0.7446281E-05 Eh
 * total energy  :  -125.1669852 Eh     change       -0.1101908E-05 Eh
 * total energy  :  -125.1669879 Eh     change       -0.2626100E-05 Eh
 * total energy  :  -125.1669896 Eh     change       -0.1724901E-05 Eh
 * total energy  :  -125.1669911 Eh     change       -0.1552917E-05 Eh
 * total energy  :  -125.1669938 Eh     change       -0.2611879E-05 Eh
 * total energy  :  -125.1670264 Eh     change       -0.4026003E-07 Eh
 * total energy  :  -125.1670266 Eh     change       -0.2357879E-06 Eh
 * total energy  :  -125.1670266 Eh     change       -0.3117816E-07 Eh
 * total energy  :  -125.1670266 Eh     change        0.6425002E-07 Eh
 * total energy  :  -125.1670267 Eh     change       -0.1794691E-06 Eh
 * total energy  :  -125.1670269 Eh     change       -0.1143753E-06 Eh
 * total energy  :  -125.1670270 Eh     change       -0.1111709E-06 Eh
 * total energy  :  -125.1670271 Eh     change       -0.1441957E-06 Eh
 * total energy  :  -125.1670272 Eh     change       -0.6626327E-07 Eh
   *** GEOMETRY OPTIMIZATION CONVERGED AFTER 40 ITERATIONS ***

 final structure:
================
72
 xtb: 6.7.1 (edcfbbe)
N           -2.48903326974199       -8.06070934763435        0.10439953026493
C           -1.88120644207737       -7.09073037565611        0.04862997682707
C           -1.09746769031307       -5.91319467847784       -0.02572373854325
N           -1.69049613005551       -4.74123268345632        0.14031507080439
C           -0.94014613970758       -3.64240812414256        0.08258156517035
C           -1.56259004586736       -2.35795374400254        0.20258280112295
C           -2.95658954431271       -2.25764801503684        0.29365173802680
C           -3.58094412732350       -1.04197243816156        0.34809742372022
C           -2.82714399101898        0.14537531568021        0.30021435848809
N           -3.46099314437886        1.37191790687440        0.29183493406885
C           -2.79715053919015        2.58122052114075       -0.00737947425526
C           -1.73917734497029        3.04544609774335        0.76714935844063
C           -1.08517009168427        4.21520683291577        0.42545818696364
C           -1.49611576181556        4.95103446236632       -0.67408408004334
C           -2.59032854105028        4.53778279351027       -1.41047458639366
C           -3.24275276290407        3.36218386693825       -1.07304293863447
S           -4.67524862610248        2.85964800961896       -1.98754692319366
C           -5.56596837431085        2.15784925436162       -0.62445900778792
C           -6.94505254426569        2.28196449018061       -0.55850960165290
C           -7.63094022346348        1.75030477297926        0.51766585794286
C           -6.93742458645869        1.12243839160188        1.54058482065743
C           -5.56129806553818        1.00333402999343        1.47850955497723
C           -4.86482519354132        1.49217473192031        0.37813114614562
C           -1.44109552909086        0.04623337923794        0.19239100763700
C           -0.78413840764332       -1.18101096870150        0.16979555758165
C            0.66780014258379       -1.28234304850569        0.10217710223805
C            1.50091247952177       -0.17708487322092        0.25096310242198
C            2.89001719884191       -0.27830208003717        0.17753445496756
N            3.68372319996648        0.83347118733250        0.36978369611585
C            5.07973289982584        0.83764311581838        0.15586854453661
C            5.92686575717204       -0.05523671988852        0.80399764263778
C            7.28646537377186       -0.03348881467743        0.55089901831189
C            7.82041707184889        0.89637738586104       -0.32700635384153
C            6.99830398763376        1.83564913846570       -0.92148170565450
C            5.63565657682961        1.81166866678390       -0.67146759630748
S            4.58198985000075        3.05984408414696       -1.36419615709843
C            3.52328018505711        3.22594666413634        0.04910481711991
C            3.07642226238843        4.47702800708585        0.44379911279881
C            2.29014286228472        4.59878184044743        1.57428984154194
C            1.96150409915048        3.47326705363955        2.31533821513819
C            2.40616486751713        2.22490827660863        1.92228221075916
C            3.17539879703424        2.08556078483584        0.77095095307271
C            3.45065776659185       -1.52091782868588       -0.16928468160758
C            2.65188662933780       -2.62568734663089       -0.28484509093446
C            1.26570097205038       -2.54461563354970       -0.10449694149010
C            0.46475185806040       -3.73182097635368       -0.12460698354938
N            1.05142034838105       -4.91269589177413       -0.31130065760768
C            0.29576538524760       -5.99929466202074       -0.27536314432119
C            0.90550157676124       -7.26075611778178       -0.48301681014326
N            1.37168205364202       -8.29508303678885       -0.64521536748185
H           -3.53115153947750       -3.17047389409115        0.30216472724692
H           -4.65763800957378       -0.99864951367361        0.38465117226765
H           -1.43346873173056        2.48359524775540        1.63721042482272
H           -0.25055231377059        4.55046386927720        1.02030496438165
H           -0.97738620025061        5.85729145814837       -0.94511757038467
H           -2.94516420435824        5.11303256520721       -2.25139111298952
H           -7.46675228216907        2.78832829542982       -1.35560222278322
H           -8.70523648539354        1.83750529574055        0.56396826461901
H           -7.46895499788310        0.72549952270559        2.39167769722424
H           -5.01385980177451        0.52018697715342        2.27407825676426
H           -0.86646434161418        0.94936804432394        0.08012775690811
H            1.06880932262242        0.79463570216484        0.42331360091063
H            5.51315547456911       -0.76363656086208        1.50571587214199
H            7.93093486104211       -0.74301710254673        1.04657486148091
H            8.87977196577062        0.90562137299532       -0.53060790834837
H            7.39980085231191        2.58944667330198       -1.58065753677600
H            3.35313361435949        5.34285066451649       -0.13716657882721
H            1.95159146829914        5.57484098719605        1.88782395331553
H            1.36449906562173        3.56871837822904        3.20983590676359
H            2.16658140507455        1.34784713003223        2.50482115359069
H            4.50908616684946       -1.60982684531881       -0.35098998074722
H            3.07826652810902       -3.59009787402369       -0.51182433344641

          :  Hamiltonian                  GFN2-xTB          :
         :: gradient norm              0.000083106531 Eh/a0 ::
         :: HOMO-LUMO gap              1.631074105769 eV    ::
         :: SCC energy              -127.419796780394 Eh    ::
         :: -> dispersion             -0.117145805566 Eh    ::
         :: repulsion energy           2.252769606445 Eh    ::

    * Orbital Energies and Occupations

         #    Occupation            Energy/Eh            Energy/eV
      -------------------------------------------------------------
         1        2.0000           -0.7347833             -19.9945
       ...           ...                  ...                  ...
       104        2.0000           -0.4304801             -11.7140
       105        2.0000           -0.4297232             -11.6934
       106        2.0000           -0.4287336             -11.6664
       107        2.0000           -0.4264216             -11.6035
       108        2.0000           -0.4246751             -11.5560
       109        2.0000           -0.4223108             -11.4917
       110        2.0000           -0.4176182             -11.3640
       111        2.0000           -0.4042690             -11.0007
       112        2.0000           -0.3920595             -10.6685
       113        2.0000           -0.3876861             -10.5495
       114        2.0000           -0.3688475             -10.0369
       115        2.0000           -0.3670498              -9.9879
       116        2.0000           -0.3643605              -9.9148 (HOMO)
       117                         -0.3044195              -8.2837 (LUMO)
       118                         -0.2995859              -8.1521
       119                         -0.2616160              -7.1189
       120                         -0.2591217              -7.0511
       121                         -0.2577465              -7.0136
       122                         -0.2559487              -6.9647
       123                         -0.2538419              -6.9074
       124                         -0.2524879              -6.8705
       125                         -0.2507305              -6.8227
       126                         -0.2492910              -6.7836
       127                         -0.2479414              -6.7468
       ...                                ...                  ...
       232                          1.1764165              32.0119
      -------------------------------------------------------------
                  HL-Gap            0.0599410 Eh            1.6311 eV

     #   Z          covCN         q      C6AA      α(0)
     1   7 N        0.911    -0.204    25.432     7.294
     2   6 C        1.909     0.111    28.355     8.600
     3   6 C        2.954     0.096    25.866     8.342
     4   7 N        1.853    -0.226    26.786     7.671
     5   6 C        2.965     0.085    26.098     8.380
     6   6 C        2.988    -0.013    28.325     8.730
     7   6 C        2.921    -0.025    28.633     8.775
     8   6 C        2.920    -0.052    29.296     8.876
     9   6 C        2.912     0.073    26.368     8.420
    10   7 N        2.752    -0.068    22.563     7.055
    11   6 C        2.972     0.057    26.708     8.477
    12   6 C        2.923    -0.044    29.100     8.846
    13   6 C        2.919    -0.036    28.888     8.814
    14   6 C        2.921    -0.031    28.779     8.797
    15   6 C        2.961    -0.036    28.887     8.816
    16   6 C        2.973     0.036    27.180     8.552
    17  16 S        2.115    -0.131   146.537    20.374
    18   6 C        2.972     0.036    27.189     8.553
    19   6 C        2.959    -0.036    28.890     8.816
    20   6 C        2.921    -0.031    28.776     8.797
    21   6 C        2.919    -0.032    28.792     8.799
    22   6 C        2.923    -0.043    29.069     8.842
    23   6 C        2.976     0.058    26.705     8.477
    24   6 C        2.926    -0.064    29.599     8.922
    25   6 C        2.976     0.009    27.817     8.651
    26   6 C        2.977     0.009    27.820     8.652
    27   6 C        2.927    -0.062    29.553     8.915
    28   6 C        2.911     0.072    26.384     8.423
    29   7 N        2.753    -0.065    22.501     7.045
    30   6 C        2.977     0.057    26.715     8.478
    31   6 C        2.922    -0.044    29.082     8.844
    32   6 C        2.919    -0.032    28.791     8.799
    33   6 C        2.921    -0.031    28.773     8.796
    34   6 C        2.958    -0.036    28.884     8.815
    35   6 C        2.973     0.036    27.185     8.552
    36  16 S        2.115    -0.134   146.669    20.383
    37   6 C        2.972     0.036    27.198     8.554
    38   6 C        2.957    -0.036    28.897     8.817
    39   6 C        2.920    -0.032    28.806     8.801
    40   6 C        2.919    -0.033    28.811     8.802
    41   6 C        2.922    -0.044    29.093     8.845
    42   6 C        2.979     0.058    26.694     8.475
    43   6 C        2.920    -0.054    29.333     8.882
    44   6 C        2.921    -0.025    28.636     8.775
    45   6 C        2.988    -0.013    28.323     8.730
    46   6 C        2.965     0.085    26.101     8.380
    47   7 N        1.853    -0.226    26.790     7.671
    48   6 C        2.954     0.096    25.870     8.342
    49   6 C        1.909     0.111    28.357     8.600
    50   7 N        0.911    -0.204    25.436     7.294
    51   1 H        0.926     0.062     2.178     2.308
    52   1 H        0.926     0.039     2.456     2.450
    53   1 H        0.926     0.044     2.401     2.423
    54   1 H        0.926     0.042     2.420     2.433
    55   1 H        0.926     0.044     2.395     2.420
    56   1 H        0.926     0.052     2.297     2.370
    57   1 H        0.926     0.051     2.302     2.373
    58   1 H        0.926     0.046     2.374     2.409
    59   1 H        0.926     0.045     2.387     2.416
    60   1 H        0.926     0.046     2.365     2.405
    61   1 H        0.926     0.038     2.475     2.460
    62   1 H        0.926     0.036     2.506     2.475
    63   1 H        0.926     0.048     2.345     2.394
    64   1 H        0.926     0.045     2.381     2.413
    65   1 H        0.926     0.046     2.370     2.407
    66   1 H        0.926     0.052     2.300     2.371
    67   1 H        0.926     0.051     2.306     2.375
    68   1 H        0.926     0.042     2.419     2.432
    69   1 H        0.926     0.041     2.429     2.437
    70   1 H        0.926     0.045     2.378     2.411
    71   1 H        0.926     0.041     2.430     2.438
    72   1 H        0.926     0.062     2.175     2.306

molecular dipole:
                 x           y           z       tot (Debye)
 q only:        0.471       4.428       1.127
   full:        0.592       5.043       1.525      13.475

 projected vibrational frequencies (cm⁻¹)
eigval :       -0.00    -0.00    -0.00    -0.00    -0.00     0.00
eigval :        9.46    13.10    21.01    21.76    32.37    42.10
eigval :       47.98    56.45    57.88    71.95    77.99    84.51
eigval :       86.98    94.30    97.49   114.93   130.57   146.19
eigval :      149.56   153.08   153.42   168.14   170.13   196.04
eigval :      211.99   217.32   242.00   246.21   262.24   263.22
eigval :      279.03   309.85   316.93   318.16   329.54   340.80
eigval :      343.29   352.75   370.43   377.04   388.28   388.35
eigval :      397.91   402.05   421.30   423.53   424.62   428.73
eigval :      438.00   443.40   443.76   450.63   456.06   475.52
eigval :      486.87   496.53   497.51   512.35   514.12   521.72
eigval :      527.30   542.12   547.11   556.95   585.43   586.27
eigval :      593.18   608.55   609.88   624.77   644.88   654.41
eigval :      657.70   658.29   659.68   678.56   679.20   686.27
eigval :      688.70   691.39   694.04   698.29   710.62   713.36
eigval :      736.64   755.85   758.45   777.99   780.56   781.31
eigval :      785.85   810.62   821.54   823.39   851.55   857.50
eigval :      882.73   884.58   885.47   886.40   897.43   902.29
eigval :      902.90   913.22   913.89   917.16   919.04   921.48
eigval :      921.94   930.67   931.73   932.71   941.09   957.45
eigval :      994.44  1038.13  1042.27  1043.59  1055.36  1060.50
eigval :     1074.84  1085.88  1086.35  1087.24  1088.03  1149.06
eigval :     1149.52  1155.58  1156.06  1156.84  1170.07  1171.79
eigval :     1173.97  1175.51  1175.85  1178.33  1196.37  1200.83
eigval :     1227.59  1228.80  1231.88  1240.06  1242.15  1244.09
eigval :     1262.59  1276.80  1283.78  1291.43  1293.10  1313.57
eigval :     1314.58  1319.66  1319.90  1330.27  1333.23  1344.14
eigval :     1346.27  1353.49  1398.32  1411.64  1413.41  1414.99
eigval :     1420.90  1422.57  1424.25  1441.72  1444.17  1447.36
eigval :     1450.32  1456.58  1466.56  1469.00  1490.54  1497.99
eigval :     1533.15  1540.89  1562.30  1563.08  1568.89  1570.04
eigval :     1572.14  1572.34  1581.19  1581.93  1588.14  1594.80
eigval :     2364.42  2365.92  3082.72  3086.46  3087.27  3088.37
eigval :     3088.82  3093.55  3094.05  3094.39  3097.23  3100.13
eigval :     3100.64  3103.49  3103.82  3105.17  3105.94  3107.84
eigval :     3108.13  3113.85  3113.97  3114.57  3117.31  3131.26

   temp. (K)  partition function   enthalpy   heat capacity  entropy
                                   cal/mol     cal/K/mol   cal/K/mol   J/K/mol
 298.15  VIB  0.213E+18            22933.160    144.414    142.076
         ROT  0.102E+09              888.752      2.981     39.633
         INT  0.217E+26            23821.912    147.395    181.709
         TR   0.170E+29             1481.254      4.968     45.388
         TOT                       25303.1663   152.3627   227.0973   950.1752

       T/K    H(0)-H(T)+PV         H(T)/Eh          T*S/Eh         G(T)/Eh
   ------------------------------------------------------------------------
    298.15    0.403232E-01    0.552460E+00    0.107901E+00    0.444559E+00
   ------------------------------------------------------------------------

         :::::::::::::::::::::::::::::::::::::::::::::::::::::
         ::                  THERMODYNAMIC                  ::
         :::::::::::::::::::::::::::::::::::::::::::::::::::::
         :: total free energy        -124.722468264213 Eh   ::
         ::.................................................::
         :: total energy             -125.167027173924 Eh   ::
         :: zero point energy           0.512137015463 Eh   ::
         :: G(RRHO) w/o ZPVE           -0.067578105752 Eh   ::
         :: G(RRHO) contrib.            0.444558909711 Eh   ::
         :::::::::::::::::::::::::::::::::::::::::::::::::::::

           -------------------------------------------------
          | TOTAL ENERGY             -125.167027173924 Eh   |
          | TOTAL ENTHALPY           -124.614566996304 Eh   |
          | TOTAL FREE ENERGY        -124.722468264213 Eh   |
          | GRADIENT NORM               0.000082498025 Eh/α |
          | HOMO-LUMO GAP               1.631078689534 eV   |
           -------------------------------------------------

 * finished run on 2025/07/17 at 05:17:36.779
