   * xtb version 6.7.1 (edcfbbe) compiled by 'albert@albert-system' on 2024-07-22

   ID    Z sym.   atoms
    1    8 O      1, 3
    2   16 S      2, 15
    3    6 C      4-7, 9-14, 16-27, 29-42
    4    7 N      8, 28
    5    1 H      43-66

          program call               : xtb data2507/toluene/SFPC/SFPC_toluene_S0_finalOpt.xtbopt.xyz --gfn 2 --uhf 2 --gbsa toluene --ohess vtight --parallel 40 --molden --ceasefiles --namespace data2507/toluene/SFPC/SFPC_toluene_T1_preOpt
      * Solvation model:               GBSA
        Solvent                        toluene
        Solvent mass                       9.2140E+01 g/mol
          :  Hamiltonian                  GFN2-xTB          :
 * total energy  :  -109.7583483 Eh     change       -0.1398661E-08 Eh
 * total energy  :  -109.7606537 Eh     change       -0.2305432E-02 Eh
 * total energy  :  -109.7613930 Eh     change       -0.7393559E-03 Eh
 * total energy  :  -109.7615834 Eh     change       -0.1903795E-03 Eh
 * total energy  :  -109.7617994 Eh     change       -0.2159255E-03 Eh
 * total energy  :  -109.7619380 Eh     change       -0.1386251E-03 Eh
 * total energy  :  -109.7620808 Eh     change       -0.1428324E-03 Eh
 * total energy  :  -109.7621974 Eh     change       -0.1166205E-03 Eh
 * total energy  :  -109.7622848 Eh     change       -0.8735825E-04 Eh
 * total energy  :  -109.7623675 Eh     change       -0.8272425E-04 Eh
 * total energy  :  -109.7636745 Eh     change       -0.3833794E-06 Eh
 * total energy  :  -109.7636748 Eh     change       -0.2831303E-06 Eh
 * total energy  :  -109.7636750 Eh     change       -0.2200431E-06 Eh
 * total energy  :  -109.7636752 Eh     change       -0.2082070E-06 Eh
 * total energy  :  -109.7636754 Eh     change       -0.1916928E-06 Eh
 * total energy  :  -109.7636756 Eh     change       -0.1945146E-06 Eh
 * total energy  :  -109.7636758 Eh     change       -0.1733810E-06 Eh
 * total energy  :  -109.7636759 Eh     change       -0.1172920E-06 Eh
 * total energy  :  -109.7636760 Eh     change       -0.6968436E-07 Eh
   *** GEOMETRY OPTIMIZATION CONVERGED AFTER 113 ITERATIONS ***

 final structure:
================
66
 xtb: 6.7.1 (edcfbbe)
O           -0.30930471245018        4.07283239039014        2.43398336579484
S           -0.22925113396087        3.66328094776581        1.04038154107912
O           -0.13877429742555        4.72315824940022        0.04821029760623
C            1.13492254369709        2.56726555603987        0.83926652842347
C            1.68698428065392        2.36621903400242       -0.43502743094754
C            2.64447950652569        1.41096089203421       -0.63421838875619
C            3.10676667266649        0.61052038024867        0.44398147171084
N            4.10663724101261       -0.32436343675013        0.25839032551964
C            4.58118657849009       -1.15347813725897        1.27977204748909
C            4.96567506942235       -0.64104726424811        2.52817722720280
C            5.42870530720336       -1.48057306966047        3.51557131500524
C            5.52884796687609       -2.85284123283725        3.29207907247155
C            5.21033083808501       -3.36948369688498        2.04807187173882
C            4.75756496068666       -2.52939828838197        1.04448584410521
S            4.39343369659769       -3.18051028041428       -0.55537953413255
C            4.97872156312021       -1.79034079692285       -1.47207517937372
C            5.62544660778462       -1.97997544508796       -2.68179427670501
C            6.11223281494669       -0.89140099363251       -3.38464347572115
C            5.98155026440389        0.38956818508090       -2.85055165395241
C            5.32729475471603        0.58792758060178       -1.65618301129676
C            4.77641563239364       -0.49678869243647       -0.95690373364772
C            2.45042770243234        0.74410270657955        1.69607045160771
C            1.49452556401872        1.70307526500984        1.88505420112367
C           -1.60932738382748        2.62768407815774        0.65945538769963
C           -2.01801991856401        2.48167503980740       -0.66827747481148
C           -2.99048881878995        1.56710278303575       -0.99102398040447
C           -3.56357039735670        0.76565245192442        0.01011055005036
N           -4.55647038529972       -0.16399576802697       -0.31314436178007
C           -5.69102158529132        0.08924060070579       -1.05757465968306
C           -6.13557055927222        1.28187377733755       -1.61403147061328
C           -7.33723273969366        1.26754627919693       -2.29867222938350
C           -8.08742811183192        0.09946013935126       -2.42405661624637
C           -7.66263837487688       -1.08652759072109       -1.85136007158184
C           -6.46098820566144       -1.09671200163150       -1.15808061673886
C           -5.74338028726523       -2.11035201776675       -0.43445886912622
C           -5.97681003641413       -3.45527266512971       -0.18616725109489
C           -5.04126865304595       -4.16635340808417        0.54474507786658
C           -3.87905325644511       -3.55555184623888        1.01282528194104
C           -3.62583526186242       -2.21585119168712        0.78077224737121
C           -4.57355637858907       -1.48968200644867        0.07065303024815
C           -3.13663803171748        0.90839295412167        1.34103226041122
C           -2.16561061233601        1.82561722645648        1.65907992023625
H            1.33842890322753        2.98807442490735       -1.24417472951010
H            3.02784803152433        1.24958927496029       -1.62827230112065
H            4.91797555344585        0.42490129025353        2.68964287928612
H            5.72412571560648       -1.06784286803714        4.46785637330827
H            5.87879162478861       -3.50740479687688        4.07397584622795
H            5.31691764819959       -4.42298798241850        1.84191228914054
H            5.74790039426751       -2.98284186721467       -3.05986198718524
H            6.61328156819447       -1.03949219462908       -4.32760496680974
H            6.40286163264556        1.23520855046288       -3.37196847783906
H            5.25126407461137        1.57522940899482       -1.22718766376258
H            2.68361307425855        0.06809510017481        2.50213983935824
H            1.00105240883110        1.82254567937205        2.83640013862565
H           -1.56385242379987        3.11240178251937       -1.41624679761772
H           -3.30521002909398        1.44140835715813       -2.01590684085240
H           -5.56961008818382        2.19425395310918       -1.50464775437442
H           -7.70374926775230        2.18202354155432       -2.74082098012103
H           -9.01936651095265        0.12693061203819       -2.96892210179445
H           -8.25440447017594       -1.98523967342286       -1.93648725121957
H           -6.86778037147102       -3.93540872683339       -0.56126037616709
H           -5.20612746834586       -5.21379470931160        0.74933689679983
H           -3.15886234316351       -4.14137919545625        1.56417005608906
H           -2.71581089883309       -1.75283704007148        1.13007222646654
H           -3.60241345208629        0.31435427852835        2.11277698426928
H           -1.83707019701999        1.97277204997615        2.67587202151991

          :  Hamiltonian                  GFN2-xTB          :
         :: gradient norm              0.000031562962 Eh/a0 ::
         :: HOMO-LUMO gap              0.263200643387 eV    ::
         :: SCC energy              -111.607777221111 Eh    ::
         :: -> dispersion             -0.095278323044 Eh    ::
         :: -> Gsolv                  -0.059830291125 Eh    ::
         :: repulsion energy           1.844101254269 Eh    ::

    * Orbital Energies and Occupations

         #    Occupation            Energy/Eh            Energy/eV
      -------------------------------------------------------------
         1        2.0000           -0.7563380             -20.5810
       ...           ...                  ...                  ...
        90        2.0000           -0.4241913             -11.5428
        91        2.0000           -0.4229803             -11.5099
        92        2.0000           -0.4212071             -11.4616
        93        2.0000           -0.4184001             -11.3852
        94        2.0000           -0.4174258             -11.3587
        95        2.0000           -0.4126772             -11.2295
        96        2.0000           -0.4120629             -11.2128
        97        2.0000           -0.3953926             -10.7592
        98        2.0000           -0.3932533             -10.7010
        99        2.0000           -0.3856954             -10.4953
       100        1.8347           -0.3706047             -10.0847
       101        1.1653           -0.3675280             -10.0009
       102        0.9930           -0.2641677              -7.1884 (HOMO)
       103        0.0053           -0.2544957              -6.9252 (LUMO)
       104        0.0017           -0.2534151              -6.8958
       105        0.0000           -0.2478641              -6.7447
       106        0.0000           -0.2468700              -6.7177
       107        0.0000           -0.2448881              -6.6637
       108                         -0.2341992              -6.3729
       109                         -0.2317800              -6.3071
       110                         -0.2299558              -6.2574
       111                         -0.2269758              -6.1763
       112                         -0.2150167              -5.8509
       113                         -0.1996200              -5.4319
       ...                                ...                  ...
       202                          1.1515333              31.3348
      -------------------------------------------------------------
                  HL-Gap            0.0096721 Eh            0.2632 eV

     #   Z          covCN         q      C6AA      α(0)
     1   8 O        0.860    -0.591    25.900     6.823
     2  16 S        3.832     0.874   110.348    17.680
     3   8 O        0.860    -0.591    25.894     6.823
     4   6 C        2.964    -0.093    30.333     9.034
     5   6 C        2.952    -0.035    28.867     8.812
     6   6 C        2.916    -0.046    29.145     8.853
     7   6 C        2.911     0.040    27.107     8.537
     8   7 N        2.749    -0.000    21.271     6.850
     9   6 C        2.981     0.045    26.991     8.522
    10   6 C        2.919    -0.043    29.056     8.839
    11   6 C        2.916    -0.027    28.687     8.783
    12   6 C        2.919    -0.034    28.840     8.806
    13   6 C        2.959    -0.035    28.867     8.813
    14   6 C        2.969     0.030    27.333     8.576
    15  16 S        2.121    -0.050   143.115    20.135
    16   6 C        2.969     0.030    27.335     8.576
    17   6 C        2.959    -0.035    28.869     8.813
    18   6 C        2.919    -0.034    28.841     8.807
    19   6 C        2.916    -0.027    28.687     8.783
    20   6 C        2.919    -0.042    29.055     8.839
    21   6 C        2.982     0.045    26.990     8.522
    22   6 C        2.916    -0.046    29.150     8.854
    23   6 C        2.953    -0.035    28.874     8.813
    24   6 C        2.967    -0.091    30.287     9.027
    25   6 C        2.956    -0.035    28.865     8.812
    26   6 C        2.918    -0.042    29.037     8.837
    27   6 C        2.911     0.045    26.994     8.520
    28   7 N        2.799    -0.013    21.502     6.887
    29   6 C        3.073     0.045    26.921     8.507
    30   6 C        2.909    -0.044    29.083     8.843
    31   6 C        2.922    -0.033    28.829     8.805
    32   6 C        2.919    -0.035    28.869     8.811
    33   6 C        2.911    -0.031    28.763     8.794
    34   6 C        3.064    -0.014    28.285     8.721
    35   6 C        3.064    -0.013    28.284     8.721
    36   6 C        2.911    -0.030    28.760     8.794
    37   6 C        2.919    -0.035    28.869     8.811
    38   6 C        2.922    -0.033    28.831     8.805
    39   6 C        2.909    -0.044    29.087     8.843
    40   6 C        3.074     0.045    26.924     8.508
    41   6 C        2.918    -0.042    29.036     8.836
    42   6 C        2.956    -0.035    28.867     8.813
    43   1 H        0.926     0.042     2.429     2.437
    44   1 H        0.926     0.056     2.248     2.345
    45   1 H        0.926     0.055     2.260     2.351
    46   1 H        0.926     0.054     2.274     2.358
    47   1 H        0.926     0.054     2.275     2.358
    48   1 H        0.926     0.058     2.220     2.330
    49   1 H        0.926     0.058     2.222     2.331
    50   1 H        0.926     0.054     2.276     2.359
    51   1 H        0.926     0.054     2.276     2.359
    52   1 H        0.926     0.055     2.262     2.352
    53   1 H        0.926     0.056     2.243     2.342
    54   1 H        0.926     0.041     2.430     2.438
    55   1 H        0.926     0.043     2.413     2.429
    56   1 H        0.926     0.053     2.285     2.364
    57   1 H        0.926     0.037     2.490     2.468
    58   1 H        0.926     0.037     2.483     2.464
    59   1 H        0.926     0.038     2.473     2.459
    60   1 H        0.926     0.041     2.434     2.440
    61   1 H        0.926     0.041     2.439     2.442
    62   1 H        0.926     0.039     2.465     2.455
    63   1 H        0.926     0.039     2.459     2.452
    64   1 H        0.926     0.039     2.468     2.457
    65   1 H        0.926     0.053     2.282     2.362
    66   1 H        0.926     0.043     2.415     2.430

molecular dipole:
                 x           y           z       tot (Debye)
 q only:        2.018      -5.121      -1.227
   full:        2.080      -4.620      -1.099      13.178

 projected vibrational frequencies (cm⁻¹)
eigval :       -0.00    -0.00    -0.00     0.00     0.00     0.00
eigval :        4.31    10.21    13.75    26.80    40.60    42.73
eigval :       44.83    61.16    66.01    78.03    99.67   101.77
eigval :      113.21   125.54   133.25   139.87   152.41   156.15
eigval :      157.64   188.33   233.19   236.46   242.19   243.58
eigval :      264.50   269.48   279.23   297.60   316.20   325.89
eigval :      352.18   365.35   375.42   378.73   380.52   388.49
eigval :      395.04   405.07   411.19   413.38   415.94   420.79
eigval :      432.19   432.60   436.73   444.03   472.59   486.54
eigval :      510.29   513.30   516.00   533.20   536.06   539.36
eigval :      574.47   578.06   587.50   598.23   607.35   608.49
eigval :      621.44   639.49   644.34   653.08   664.93   671.47
eigval :      681.53   690.54   707.52   729.11   733.69   754.82
eigval :      761.06   763.43   764.22   772.87   782.53   795.61
eigval :      820.42   850.82   865.83   867.41   868.98   873.24
eigval :      887.86   890.35   893.73   894.08   895.42   897.24
eigval :      898.96   899.99   901.30   907.10   910.36   916.46
eigval :      918.69   919.94   927.53   931.69   968.33   986.49
eigval :     1007.58  1019.03  1029.29  1033.60  1044.24  1064.37
eigval :     1067.73  1073.57  1075.39  1094.14  1108.33  1118.22
eigval :     1131.11  1137.36  1138.30  1146.16  1159.87  1163.97
eigval :     1165.93  1167.76  1172.77  1174.81  1180.64  1193.56
eigval :     1206.40  1217.45  1226.22  1230.44  1234.82  1235.42
eigval :     1241.08  1270.82  1277.61  1286.64  1315.83  1317.81
eigval :     1327.38  1328.50  1332.30  1335.74  1345.61  1357.40
eigval :     1360.72  1373.06  1378.31  1393.72  1401.80  1403.29
eigval :     1406.71  1411.37  1423.50  1436.45  1438.52  1439.70
eigval :     1452.23  1458.81  1458.85  1477.49  1489.22  1503.94
eigval :     1530.78  1553.04  1558.92  1570.72  1577.71  1584.16
eigval :     3077.66  3078.68  3083.58  3084.97  3086.73  3088.93
eigval :     3089.14  3089.94  3091.33  3092.96  3096.94  3097.02
eigval :     3097.40  3098.20  3098.43  3099.98  3100.66  3101.23
eigval :     3101.55  3103.03  3110.46  3110.96  3112.06  3113.02

   temp. (K)  partition function   enthalpy   heat capacity  entropy
                                   cal/mol     cal/K/mol   cal/K/mol   J/K/mol
 298.15  VIB  0.418E+16            19904.593    127.047    123.803
         ROT  0.742E+08              888.752      2.981     38.993
         INT  0.310E+24            20793.345    130.028    162.797
         TR   0.135E+29             1481.254      4.968     44.941
         TOT                       22274.5993   134.9962   207.7376   869.1742

       T/K    H(0)-H(T)+PV         H(T)/Eh          T*S/Eh         G(T)/Eh
   ------------------------------------------------------------------------
    298.15    0.354968E-01    0.518789E+00    0.987028E-01    0.420086E+00
   ------------------------------------------------------------------------

         :::::::::::::::::::::::::::::::::::::::::::::::::::::
         ::                  THERMODYNAMIC                  ::
         :::::::::::::::::::::::::::::::::::::::::::::::::::::
         :: total free energy        -109.343589941544 Eh   ::
         ::.................................................::
         :: total energy             -109.763675968896 Eh   ::
         :: zero point energy           0.483292034776 Eh   ::
         :: G(RRHO) w/o ZPVE           -0.063206007424 Eh   ::
         :: G(RRHO) contrib.            0.420086027353 Eh   ::
         :::::::::::::::::::::::::::::::::::::::::::::::::::::

           -------------------------------------------------
          | TOTAL ENERGY             -109.763675968896 Eh   |
          | TOTAL ENTHALPY           -109.244887100600 Eh   |
          | TOTAL FREE ENERGY        -109.343589941544 Eh   |
          | GRADIENT NORM               0.000032946283 Eh/α |
          | HOMO-LUMO GAP               0.263190779086 eV   |
           -------------------------------------------------

 * finished run on 2025/08/26 at 02:31:40.328
