   * xtb version 6.7.1 (edcfbbe) compiled by 'albert@albert-system' on 2024-07-22

   ID    Z sym.   atoms
    1    8 O      1, 3
    2   16 S      2, 15
    3    6 C      4-7, 9-14, 16-27, 29-42
    4    7 N      8, 28
    5    1 H      43-66

          program call               : xtb data2507/toluene/SFPC/SFPC.xyz --gfn 2 --gbsa toluene --ohess vtight --parallel 40 --molden --ceasefiles --namespace data2507/toluene/SFPC/SFPC_toluene_S0_preOpt
      * Solvation model:               GBSA
        Solvent                        toluene
        Solvent mass                       9.2140E+01 g/mol
          :  Hamiltonian                  GFN2-xTB          :
 * total energy  :  -109.8426739 Eh     change       -0.9211334E-09 Eh
 * total energy  :  -109.8570799 Eh     change       -0.1440605E-01 Eh
 * total energy  :  -109.8611470 Eh     change       -0.4067097E-02 Eh
 * total energy  :  -109.8617756 Eh     change       -0.6285344E-03 Eh
 * total energy  :  -109.8620852 Eh     change       -0.3096445E-03 Eh
 * total energy  :  -109.8621802 Eh     change       -0.9500086E-04 Eh
 * total energy  :  -109.8622410 Eh     change       -0.6075583E-04 Eh
 * total energy  :  -109.8622883 Eh     change       -0.4729325E-04 Eh
 * total energy  :  -109.8623405 Eh     change       -0.5220985E-04 Eh
 * total energy  :  -109.8623919 Eh     change       -0.5142783E-04 Eh
 * total energy  :  -109.8627175 Eh     change       -0.1644814E-06 Eh
 * total energy  :  -109.8627177 Eh     change       -0.1709207E-06 Eh
 * total energy  :  -109.8627179 Eh     change       -0.2435720E-06 Eh
 * total energy  :  -109.8627181 Eh     change       -0.2525420E-06 Eh
 * total energy  :  -109.8627184 Eh     change       -0.2537188E-06 Eh
 * total energy  :  -109.8627186 Eh     change       -0.2059524E-06 Eh
 * total energy  :  -109.8627188 Eh     change       -0.1457968E-06 Eh
 * total energy  :  -109.8627189 Eh     change       -0.1071216E-06 Eh
 * total energy  :  -109.8627189 Eh     change       -0.1902833E-08 Eh
   *** GEOMETRY OPTIMIZATION CONVERGED AFTER 94 ITERATIONS ***

 final structure:
================
66
 xtb: 6.7.1 (edcfbbe)
O            0.34287075166622        4.59598516464213        0.43052514938807
S            0.32935693813786        3.61910691320639       -0.63600398485841
O            0.44224492935371        4.11520332652005       -1.99025258843911
C            1.65388311209236        2.43774940106625       -0.34718229172079
C            2.04843940675242        1.61238937448220       -1.38442764715599
C            3.03973310567413        0.67353848335429       -1.16295458467827
C            3.62224263650847        0.56778904746318        0.09855721623930
N            4.64650226281129       -0.39234888499585        0.34433071033650
C            5.96381742273647        0.00577187755068        0.11700440473276
C            6.22494961067320        1.25696598911483       -0.44540209430800
C            7.51836485853564        1.68770222099945       -0.68317888595546
C            8.59345142800890        0.87429746275605       -0.37787673697585
C            8.35546762094677       -0.37118286461845        0.17666230738552
C            7.06238423173544       -0.79838769702623        0.43107170148007
S            6.89237095569277       -2.38288136634434        1.20842945131845
C            5.16425206634886       -2.70331989151634        0.97103140801797
C            4.74066217183238       -4.00025524672282        1.21170365199768
C            3.39971496061458       -4.33349390713741        1.13277735515597
C            2.48374385945467       -3.34990840452779        0.81024005892342
C            2.90618457716905       -2.05793638719130        0.54993871369645
C            4.25522368445464       -1.70359076784870        0.61457707103846
C            3.21671123622792        1.40405612861414        1.13272804327319
C            2.22454595926364        2.34363765429646        0.90712247673582
C           -1.15503791278391        2.62548266669736       -0.50241522770395
C           -1.74443305295615        2.11847417397938       -1.64595925525960
C           -2.86867160036036        1.32266814056869       -1.53722107826161
C           -3.39602021927330        1.02699775734238       -0.27800216011872
N           -4.53236657981695        0.22667008053786       -0.16468776093745
C           -5.65628546901570        0.51676846334245        0.59229882367257
C           -5.94706091917960        1.64180111339068        1.35034896445664
C           -7.17581654738345        1.69525273055023        1.98217036954740
C           -8.10254434115655        0.66236638045293        1.86018517691821
C           -7.82949480756609       -0.44713759173020        1.08444462150443
C           -6.60122608882043       -0.52269829707071        0.44036374135060
C           -6.01042939461763       -1.48922883019831       -0.44491213541976
C           -6.43904169393992       -2.71417798926036       -0.93994355511898
C           -5.59503649111838       -3.42331761947335       -1.77194514365553
C           -4.33238222850561       -2.93264909813450       -2.09648148152896
C           -3.88446552488114       -1.71610104922410       -1.61532075582485
C           -4.73897750410998       -0.98648041553133       -0.80140644918294
C           -2.78399978650532        1.54214956633929        0.86743944331908
C           -1.66400211328110        2.34269599588512        0.75216889636992
H            1.59031676931240        1.72865990512542       -2.35346805789979
H            3.36988674002870        0.02327650935974       -1.95906507736902
H            5.40239046446015        1.90796465621147       -0.69622925584714
H            7.67666362695096        2.66542764786319       -1.11241420167247
H            9.60508681301410        1.19975602660470       -0.56264194153779
H            9.17437491821924       -1.02635727104452        0.43357535295941
H            5.47935752866569       -4.74120336227427        1.47862809573065
H            3.08139820547501       -5.34485004262427        1.33091294936521
H            1.43057843498530       -3.58029821612863        0.75649827963555
H            2.17260620596074       -1.30750503557246        0.30188453549779
H            3.68159606582098        1.31621686025280        2.10277709698505
H            1.89596667602288        3.01640563292183        1.68327197492664
H           -1.32903749849286        2.37872869914329       -2.60670868856653
H           -3.35691758973452        0.94591860733891       -2.42247291241678
H           -5.24740851652404        2.45917496233740        1.43590424806413
H           -7.42375947936226        2.56007444650688        2.58001562286063
H           -9.05084427122275        0.74037049613779        2.37113992483739
H           -8.55520722669752       -1.23861981572244        0.97314124678405
H           -7.41041181839069       -3.10228864678095       -0.67302323186283
H           -5.91035917157630       -4.37640796113889       -2.17021898875169
H           -3.68670926522511       -3.51711496708445       -2.73547833362065
H           -2.89615874193389       -1.35710182148518       -1.85829748189937
H           -3.18156409458469        1.29873232568374        1.84040477190196
H           -1.18167528657372        2.76061755977588        1.62131613213492

          :  Hamiltonian                  GFN2-xTB          :
         :: gradient norm              0.000026756881 Eh/a0 ::
         :: HOMO-LUMO gap              1.799230328614 eV    ::
         :: SCC energy              -111.727171312012 Eh    ::
         :: -> dispersion             -0.095093242362 Eh    ::
         :: -> Gsolv                  -0.052798672184 Eh    ::
         :: repulsion energy           1.864452449862 Eh    ::

    * Orbital Energies and Occupations

         #    Occupation            Energy/Eh            Energy/eV
      -------------------------------------------------------------
         1        2.0000           -0.7813399             -21.2613
       ...           ...                  ...                  ...
        89        2.0000           -0.4276179             -11.6361
        90        2.0000           -0.4264024             -11.6030
        91        2.0000           -0.4260714             -11.5940
        92        2.0000           -0.4225604             -11.4985
        93        2.0000           -0.4222790             -11.4908
        94        2.0000           -0.4181603             -11.3787
        95        2.0000           -0.4154801             -11.3058
        96        2.0000           -0.4148385             -11.2883
        97        2.0000           -0.4095785             -11.1452
        98        2.0000           -0.3848181             -10.4714
        99        2.0000           -0.3833091             -10.4304
       100        2.0000           -0.3703943             -10.0789
       101        2.0000           -0.3443066              -9.3691 (HOMO)
       102                         -0.2781862              -7.5698 (LUMO)
       103                         -0.2605642              -7.0903
       104                         -0.2596561              -7.0656
       105                         -0.2535832              -6.9004
       106                         -0.2479557              -6.7472
       107                         -0.2453826              -6.6772
       108                         -0.2342818              -6.3751
       109                         -0.2290631              -6.2331
       110                         -0.2265342              -6.1643
       111                         -0.2049068              -5.5758
       112                         -0.2006120              -5.4589
       ...                                ...                  ...
       202                          1.1645335              31.6886
      -------------------------------------------------------------
                  HL-Gap            0.0661205 Eh            1.7992 eV

     #   Z          covCN         q      C6AA      α(0)
     1   8 O        0.860    -0.573    25.455     6.765
     2  16 S        3.817     0.942   108.324    17.517
     3   8 O        0.860    -0.573    25.462     6.765
     4   6 C        2.971    -0.073    29.824     8.958
     5   6 C        2.957    -0.024    28.607     8.773
     6   6 C        2.922    -0.031    28.771     8.796
     7   6 C        2.931     0.077    26.278     8.407
     8   7 N        2.749    -0.072    22.640     7.067
     9   6 C        2.942     0.058    26.693     8.474
    10   6 C        2.928    -0.060    29.481     8.904
    11   6 C        2.919    -0.034    28.840     8.807
    12   6 C        2.918    -0.039    28.980     8.828
    13   6 C        2.985    -0.041    28.999     8.833
    14   6 C        2.971     0.034    27.235     8.560
    15  16 S        2.131    -0.169   148.191    20.489
    16   6 C        2.971     0.034    27.232     8.560
    17   6 C        2.986    -0.040    28.995     8.833
    18   6 C        2.918    -0.040    28.982     8.828
    19   6 C        2.919    -0.034    28.844     8.807
    20   6 C        2.928    -0.060    29.499     8.907
    21   6 C        2.941     0.058    26.698     8.474
    22   6 C        2.923    -0.031    28.764     8.795
    23   6 C        2.954    -0.022    28.547     8.763
    24   6 C        2.971    -0.079    29.971     8.980
    25   6 C        2.955    -0.024    28.597     8.771
    26   6 C        2.924    -0.038    28.936     8.821
    27   6 C        2.912     0.074    26.345     8.417
    28   7 N        2.801    -0.035    21.908     6.952
    29   6 C        3.068     0.044    26.936     8.510
    30   6 C        2.910    -0.051    29.277     8.872
    31   6 C        2.924    -0.033    28.824     8.804
    32   6 C        2.920    -0.040    28.997     8.831
    33   6 C        2.912    -0.033    28.824     8.804
    34   6 C        3.066    -0.015    28.316     8.726
    35   6 C        3.066    -0.015    28.313     8.725
    36   6 C        2.912    -0.033    28.822     8.803
    37   6 C        2.920    -0.040    28.998     8.831
    38   6 C        2.924    -0.033    28.827     8.805
    39   6 C        2.910    -0.052    29.284     8.873
    40   6 C        3.068     0.044    26.940     8.511
    41   6 C        2.924    -0.038    28.936     8.821
    42   6 C        2.957    -0.025    28.624     8.775
    43   1 H        0.926     0.067     2.116     2.275
    44   1 H        0.926     0.070     2.081     2.256
    45   1 H        0.926     0.034     2.535     2.490
    46   1 H        0.926     0.039     2.457     2.451
    47   1 H        0.926     0.040     2.445     2.445
    48   1 H        0.926     0.043     2.412     2.428
    49   1 H        0.926     0.043     2.414     2.430
    50   1 H        0.926     0.041     2.439     2.442
    51   1 H        0.926     0.041     2.430     2.438
    52   1 H        0.926     0.036     2.505     2.475
    53   1 H        0.926     0.071     2.078     2.254
    54   1 H        0.926     0.070     2.086     2.259
    55   1 H        0.926     0.065     2.144     2.290
    56   1 H        0.926     0.070     2.089     2.260
    57   1 H        0.926     0.033     2.547     2.496
    58   1 H        0.926     0.034     2.535     2.490
    59   1 H        0.926     0.032     2.559     2.501
    60   1 H        0.926     0.035     2.514     2.480
    61   1 H        0.926     0.035     2.519     2.482
    62   1 H        0.926     0.032     2.558     2.501
    63   1 H        0.926     0.035     2.520     2.483
    64   1 H        0.926     0.034     2.526     2.485
    65   1 H        0.926     0.070     2.087     2.259
    66   1 H        0.926     0.063     2.168     2.303

molecular dipole:
                 x           y           z       tot (Debye)
 q only:       -0.989      -2.134       0.229
   full:       -1.041      -1.776       0.088       5.237

 projected vibrational frequencies (cm⁻¹)
eigval :       -0.00    -0.00    -0.00    -0.00     0.00     0.00
eigval :        6.50     9.65    11.83    25.00    30.13    35.03
eigval :       37.33    42.94    44.80    72.94   101.56   102.81
eigval :      111.59   116.63   128.63   135.91   143.81   155.78
eigval :      158.64   186.58   229.40   230.74   239.90   246.33
eigval :      252.89   271.45   279.88   301.02   316.25   351.82
eigval :      368.06   368.62   378.49   379.91   389.55   391.90
eigval :      393.79   400.64   409.32   411.65   422.78   425.47
eigval :      428.09   439.07   472.85   490.96   492.32   504.42
eigval :      506.84   517.58   527.83   534.35   540.43   549.87
eigval :      580.38   587.36   591.60   602.61   611.17   632.50
eigval :      648.96   651.22   653.07   671.19   673.38   677.41
eigval :      685.17   706.20   708.13   735.94   747.53   758.06
eigval :      768.64   769.35   770.45   781.14   813.12   819.14
eigval :      857.69   858.89   867.05   874.52   876.14   881.46
eigval :      897.03   898.34   899.87   903.26   904.16   907.06
eigval :      908.33   914.42   916.03   917.37   919.97   921.64
eigval :      925.63   927.93   928.20   931.97   999.22  1003.83
eigval :     1011.08  1040.60  1048.87  1067.20  1070.21  1075.00
eigval :     1102.11  1106.19  1106.88  1109.92  1114.38  1117.37
eigval :     1120.67  1150.92  1151.47  1156.91  1165.21  1169.68
eigval :     1176.28  1178.24  1179.88  1181.76  1195.50  1196.18
eigval :     1205.26  1232.87  1240.30  1243.14  1245.42  1246.18
eigval :     1256.02  1293.94  1294.87  1298.09  1307.29  1311.82
eigval :     1315.02  1322.03  1331.10  1353.93  1356.81  1357.55
eigval :     1389.90  1397.20  1407.11  1418.69  1420.60  1425.93
eigval :     1453.30  1460.50  1468.88  1472.31  1477.31  1484.95
eigval :     1555.57  1568.45  1568.72  1569.81  1570.73  1573.92
eigval :     1575.88  1578.45  1587.39  1591.63  1597.04  1610.74
eigval :     3074.67  3075.14  3080.54  3081.37  3084.31  3085.06
eigval :     3087.39  3088.40  3088.68  3089.37  3094.43  3094.98
eigval :     3096.39  3096.55  3099.40  3100.22  3100.30  3100.91
eigval :     3107.14  3107.83  3108.43  3109.16  3110.09  3110.59

   temp. (K)  partition function   enthalpy   heat capacity  entropy
                                   cal/mol     cal/K/mol   cal/K/mol   J/K/mol
 298.15  VIB  0.129E+17            19786.095    123.914    123.250
         ROT  0.755E+08              888.752      2.981     39.028
         INT  0.977E+24            20674.848    126.895    162.278
         TR   0.135E+29             1481.254      4.968     44.941
         TOT                       22156.1015   131.8628   207.2190   867.0043

       T/K    H(0)-H(T)+PV         H(T)/Eh          T*S/Eh         G(T)/Eh
   ------------------------------------------------------------------------
    298.15    0.353080E-01    0.523535E+00    0.984564E-01    0.425078E+00
   ------------------------------------------------------------------------

         :::::::::::::::::::::::::::::::::::::::::::::::::::::
         ::                  THERMODYNAMIC                  ::
         :::::::::::::::::::::::::::::::::::::::::::::::::::::
         :: total free energy        -109.437640421581 Eh   ::
         ::.................................................::
         :: total energy             -109.862718857366 Eh   ::
         :: zero point energy           0.488226877072 Eh   ::
         :: G(RRHO) w/o ZPVE           -0.063148441287 Eh   ::
         :: G(RRHO) contrib.            0.425078435785 Eh   ::
         :::::::::::::::::::::::::::::::::::::::::::::::::::::

           -------------------------------------------------
          | TOTAL ENERGY             -109.862718857366 Eh   |
          | TOTAL ENTHALPY           -109.339183985132 Eh   |
          | TOTAL FREE ENERGY        -109.437640421581 Eh   |
          | GRADIENT NORM               0.000026759290 Eh/α |
          | HOMO-LUMO GAP               1.799229932332 eV   |
           -------------------------------------------------

 * finished run on 2025/08/26 at 02:24:33.428
