   * xtb version 6.7.1 (edcfbbe) compiled by 'albert@albert-system' on 2024-07-22

   ID    Z sym.   atoms
    1    8 O      1, 3
    2   16 S      2, 15
    3    6 C      4-7, 9-14, 16-27, 29-42
    4    7 N      8, 28
    5    1 H      43-66

          program call               : xtb data2507/toluene/SFPC/SFPC_toluene_S0_crest.xyz --gfn 2 --gbsa toluene --ohess vtight --parallel 40 --molden --ceasefiles --namespace data2507/toluene/SFPC/SFPC_toluene_S0_finalOpt
      * Solvation model:               GBSA
        Solvent                        toluene
        Solvent mass                       9.2140E+01 g/mol
          :  Hamiltonian                  GFN2-xTB          :
 * total energy  :  -109.8645792 Eh     change       -0.2688125E-09 Eh
 * total energy  :  -109.8646977 Eh     change       -0.1185007E-03 Eh
 * total energy  :  -109.8647656 Eh     change       -0.6786620E-04 Eh
 * total energy  :  -109.8647774 Eh     change       -0.1183457E-04 Eh
 * total energy  :  -109.8647934 Eh     change       -0.1592211E-04 Eh
 * total energy  :  -109.8647992 Eh     change       -0.5852652E-05 Eh
 * total energy  :  -109.8648100 Eh     change       -0.1073074E-04 Eh
 * total energy  :  -109.8648181 Eh     change       -0.8130337E-05 Eh
 * total energy  :  -109.8648256 Eh     change       -0.7532028E-05 Eh
 * total energy  :  -109.8648342 Eh     change       -0.8633902E-05 Eh
 * total energy  :  -109.8650502 Eh     change       -0.2651263E-06 Eh
 * total energy  :  -109.8650505 Eh     change       -0.3138061E-06 Eh
 * total energy  :  -109.8650511 Eh     change       -0.5191297E-06 Eh
 * total energy  :  -109.8650519 Eh     change       -0.8805541E-06 Eh
 * total energy  :  -109.8650532 Eh     change       -0.1284216E-05 Eh
 * total energy  :  -109.8650546 Eh     change       -0.1342760E-05 Eh
 * total energy  :  -109.8650557 Eh     change       -0.1111695E-05 Eh
 * total energy  :  -109.8650566 Eh     change       -0.9563058E-06 Eh
 * total energy  :  -109.8650567 Eh     change       -0.1285687E-07 Eh
   *** GEOMETRY OPTIMIZATION CONVERGED AFTER 68 ITERATIONS ***

 final structure:
================
66
 xtb: 6.7.1 (edcfbbe)
O           -0.31919744161131        3.68859932245495        2.51795596409212
S           -0.25581578124260        3.34039893319482        1.11188389045970
O           -0.23004852661688        4.44154030572532        0.16965614190205
C            1.16597520176276        2.30188060472593        0.82717009061298
C            2.01744787942733        2.54943290142609       -0.23374909120976
C            3.10851503119985        1.73496075311812       -0.44824190026207
C            3.37506974854387        0.65307198892230        0.40625922656743
N            4.46342020000034       -0.16154045732515        0.19747647777674
C            4.71899349717093       -1.32052998704560        0.96633361224424
C            4.89267958255131       -1.25843083765351        2.34505487296368
C            5.13167966018763       -2.41314510353896        3.06872735585608
C            5.22467297860921       -3.63663318798478        2.42319941209097
C            5.11170995653075       -3.70290032505313        1.04639960583783
C            4.86743067203037       -2.54676739998205        0.32119109000406
S            4.77106988272081       -2.60863650733842       -1.45106594454870
C            5.58163718860460       -1.05805037468268       -1.75543856748116
C            6.44712376466002       -0.92350843322935       -2.83018989262446
C            7.10467693812003        0.27590192507899       -3.03391067044476
C            6.92545198278214        1.32478859158589       -2.14511231782220
C            6.06575829499427        1.18942540784857       -1.06968792811863
C            5.35555510293395        0.00749501116813       -0.88650499996841
C            2.46298120833180        0.38831479735547        1.44153797569602
C            1.37601828530138        1.20882522977139        1.64958487755537
C           -1.65798687221619        2.28763846905795        0.72938822531372
C           -1.90414819068427        1.95934327291342       -0.59133696575023
C           -2.95591275048408        1.11800452446300       -0.89945930099209
C           -3.76525272552733        0.60953375172005        0.11919124033489
N           -4.82935313759942       -0.23989673695428       -0.18813284487461
C           -5.79214937248947       -0.01835827020400       -1.15881129867958
C           -5.96878297607358        1.07202418119368       -1.99852638183775
C           -7.04812035341186        1.05401571970929       -2.86249059010180
C           -7.94039539450140       -0.01548141452621       -2.89051518594212
C           -7.78547774803480       -1.09058709338954       -2.03771603994529
C           -6.70834932392395       -1.09440409278140       -1.16071955087396
C           -6.26727328974672       -2.01128260623745       -0.14531255814763
C           -6.73857132106535       -3.24025764215648        0.29851481982662
C           -6.04798320854661       -3.89031806931813        1.30231206696165
C           -4.89186208371411       -3.33767689363865        1.84877857643247
C           -4.40386805036443       -2.11624764591333        1.42261084344996
C           -5.10972837033609       -1.44494003211079        0.43451118738298
C           -3.50586633315319        0.95427547159259        1.44691770142081
C           -2.44660264653639        1.78908210632819        1.74900061342645
H            1.81325343387412        3.39062993989627       -0.87779978935355
H            3.74811442164395        1.92750278385170       -1.29405718190859
H            4.83275818252587       -0.30138982923703        2.84107806204172
H            5.24973468408693       -2.35548163529209        4.13993377245004
H            5.40473612124936       -4.53749555786262        2.98911579366174
H            5.20721432418035       -4.64262958655776        0.52455882431625
H            6.59372059147783       -1.75888167210018       -3.49738019190420
H            7.77097746572836        0.38475223091261       -3.87559813662292
H            7.45983863446524        2.25176002559628       -2.28596791752716
H            5.93280535244660        1.99844921735241       -0.36731414521466
H            2.59785010288840       -0.47474042353437        2.07275797052438
H            0.68591982628125        1.01518854769982        2.45554789453324
H           -1.27065985790001        2.36946086150318       -1.36192387433293
H           -3.14645060243795        0.83606013059535       -1.92338905023004
H           -5.29713368574853        1.91654246490527       -1.97226157077054
H           -7.20428968302358        1.89014808609932       -3.52833530744912
H           -8.76924624945376        0.00619343814734       -3.58258422577091
H           -8.48763625396182       -1.91062124506113       -2.04552625486273
H           -7.62414677179637       -3.67663743510422       -0.13827313045617
H           -6.39958699601805       -4.84520434760249        1.66435959751766
H           -4.36203673532359       -3.87673766512116        2.62048027914733
H           -3.49577152891824       -1.70867293820574        1.83972071417493
H           -4.14675518661234        0.58189474851203        2.23108332096249
H           -2.22854398552465        2.08210617562070        2.76431500959283

          :  Hamiltonian                  GFN2-xTB          :
         :: gradient norm              0.000068151191 Eh/a0 ::
         :: HOMO-LUMO gap              2.610635898235 eV    ::
         :: SCC energy              -111.729777585856 Eh    ::
         :: -> dispersion             -0.094941785508 Eh    ::
         :: -> Gsolv                  -0.054205963576 Eh    ::
         :: repulsion energy           1.864720930214 Eh    ::

    * Orbital Energies and Occupations

         #    Occupation            Energy/Eh            Energy/eV
      -------------------------------------------------------------
         1        2.0000           -0.7719803             -21.0067
       ...           ...                  ...                  ...
        89        2.0000           -0.4254562             -11.5773
        90        2.0000           -0.4250469             -11.5661
        91        2.0000           -0.4243992             -11.5485
        92        2.0000           -0.4215469             -11.4709
        93        2.0000           -0.4210250             -11.4567
        94        2.0000           -0.4206630             -11.4468
        95        2.0000           -0.4169325             -11.3453
        96        2.0000           -0.4088407             -11.1251
        97        2.0000           -0.4067121             -11.0672
        98        2.0000           -0.3850962             -10.4790
        99        2.0000           -0.3818294             -10.3901
       100        2.0000           -0.3684647             -10.0264
       101        2.0000           -0.3617277              -9.8431 (HOMO)
       102                         -0.2657887              -7.2325 (LUMO)
       103                         -0.2529316              -6.8826
       104                         -0.2498249              -6.7981
       105                         -0.2473242              -6.7300
       106                         -0.2463831              -6.7044
       107                         -0.2435746              -6.6280
       108                         -0.2423286              -6.5941
       109                         -0.2382736              -6.4838
       110                         -0.2285562              -6.2193
       111                         -0.2250539              -6.1240
       112                         -0.2067203              -5.6251
       ...                                ...                  ...
       202                          1.1629716              31.6461
      -------------------------------------------------------------
                  HL-Gap            0.0959391 Eh            2.6106 eV

     #   Z          covCN         q      C6AA      α(0)
     1   8 O        0.860    -0.582    25.674     6.794
     2  16 S        3.819     0.926   108.799    17.556
     3   8 O        0.860    -0.581    25.655     6.791
     4   6 C        2.969    -0.089    30.221     9.017
     5   6 C        2.952    -0.025    28.626     8.775
     6   6 C        2.924    -0.054    29.343     8.883
     7   6 C        2.912     0.076    26.309     8.411
     8   7 N        2.752    -0.061    22.412     7.031
     9   6 C        2.975     0.053    26.796     8.491
    10   6 C        2.922    -0.044    29.094     8.845
    11   6 C        2.919    -0.031    28.777     8.797
    12   6 C        2.920    -0.031    28.765     8.795
    13   6 C        2.956    -0.036    28.896     8.817
    14   6 C        2.972     0.037    27.171     8.550
    15  16 S        2.111    -0.149   147.314    20.428
    16   6 C        2.972     0.037    27.173     8.551
    17   6 C        2.956    -0.036    28.896     8.817
    18   6 C        2.920    -0.031    28.765     8.795
    19   6 C        2.919    -0.031    28.777     8.797
    20   6 C        2.922    -0.044    29.093     8.845
    21   6 C        2.975     0.054    26.793     8.491
    22   6 C        2.924    -0.054    29.333     8.882
    23   6 C        2.960    -0.028    28.701     8.787
    24   6 C        2.970    -0.077    29.909     8.971
    25   6 C        2.958    -0.025    28.632     8.777
    26   6 C        2.924    -0.038    28.946     8.823
    27   6 C        2.912     0.073    26.366     8.420
    28   7 N        2.801    -0.036    21.937     6.956
    29   6 C        3.069     0.045    26.926     8.509
    30   6 C        2.910    -0.051    29.278     8.873
    31   6 C        2.924    -0.033    28.830     8.805
    32   6 C        2.920    -0.041    29.008     8.832
    33   6 C        2.912    -0.033    28.831     8.805
    34   6 C        3.066    -0.015    28.325     8.727
    35   6 C        3.066    -0.015    28.323     8.727
    36   6 C        2.912    -0.033    28.829     8.804
    37   6 C        2.920    -0.041    29.008     8.832
    38   6 C        2.924    -0.033    28.831     8.805
    39   6 C        2.910    -0.052    29.282     8.873
    40   6 C        3.069     0.045    26.929     8.509
    41   6 C        2.924    -0.038    28.954     8.824
    42   6 C        2.952    -0.023    28.584     8.769
    43   1 H        0.926     0.053     2.279     2.361
    44   1 H        0.926     0.056     2.251     2.346
    45   1 H        0.926     0.052     2.299     2.371
    46   1 H        0.926     0.051     2.309     2.376
    47   1 H        0.926     0.051     2.302     2.373
    48   1 H        0.926     0.053     2.283     2.363
    49   1 H        0.926     0.053     2.284     2.363
    50   1 H        0.926     0.051     2.305     2.374
    51   1 H        0.926     0.051     2.313     2.378
    52   1 H        0.926     0.051     2.303     2.373
    53   1 H        0.926     0.057     2.240     2.340
    54   1 H        0.926     0.048     2.349     2.397
    55   1 H        0.926     0.057     2.233     2.337
    56   1 H        0.926     0.068     2.111     2.272
    57   1 H        0.926     0.032     2.562     2.503
    58   1 H        0.926     0.033     2.541     2.493
    59   1 H        0.926     0.032     2.561     2.502
    60   1 H        0.926     0.035     2.516     2.480
    61   1 H        0.926     0.035     2.519     2.482
    62   1 H        0.926     0.032     2.558     2.501
    63   1 H        0.926     0.034     2.527     2.486
    64   1 H        0.926     0.033     2.543     2.494
    65   1 H        0.926     0.067     2.116     2.275
    66   1 H        0.926     0.062     2.175     2.306

molecular dipole:
                 x           y           z       tot (Debye)
 q only:        1.459      -3.012      -0.657
   full:        1.539      -2.615      -0.476       7.806

 projected vibrational frequencies (cm⁻¹)
eigval :       -0.00    -0.00    -0.00     0.00     0.00     0.00
eigval :        4.02     6.68     8.81    27.87    39.67    44.84
eigval :       47.39    61.28    64.36    74.28    91.68   100.64
eigval :      114.52   126.68   131.18   144.36   149.45   153.90
eigval :      162.08   190.25   228.88   238.74   244.43   247.37
eigval :      266.73   271.69   283.35   317.55   324.14   327.08
eigval :      353.10   369.00   375.67   379.47   384.87   390.61
eigval :      398.90   404.52   408.14   424.17   424.67   429.06
eigval :      438.47   442.88   471.38   482.65   496.51   503.69
eigval :      517.90   523.49   526.83   533.95   541.10   549.79
eigval :      580.63   585.73   591.81   606.68   610.91   625.57
eigval :      651.32   658.43   662.11   673.77   681.14   685.56
eigval :      690.24   690.49   708.75   734.42   745.92   757.91
eigval :      768.78   776.09   780.12   780.50   801.90   817.04
eigval :      855.80   866.87   874.00   881.27   881.48   883.95
eigval :      896.99   899.82   902.46   903.88   904.19   908.52
eigval :      911.53   916.49   917.66   919.13   920.66   924.99
eigval :      927.02   931.78   932.32   933.80   993.30  1003.57
eigval :     1011.10  1040.20  1045.42  1063.47  1069.82  1073.36
eigval :     1084.50  1085.77  1108.00  1115.04  1118.86  1121.92
eigval :     1135.10  1148.50  1150.34  1153.62  1168.03  1172.70
eigval :     1174.34  1174.86  1179.22  1183.49  1192.75  1194.83
eigval :     1209.96  1226.49  1232.88  1240.44  1241.84  1245.04
eigval :     1257.77  1283.62  1295.05  1297.93  1311.28  1315.89
eigval :     1320.94  1337.97  1339.74  1354.18  1357.13  1357.49
eigval :     1396.86  1403.40  1417.83  1418.34  1420.95  1425.90
eigval :     1441.69  1453.48  1469.78  1472.44  1478.25  1485.05
eigval :     1559.91  1565.52  1567.20  1570.37  1570.61  1570.72
eigval :     1573.66  1576.63  1584.09  1587.31  1597.13  1611.07
eigval :     3074.19  3074.44  3080.01  3080.75  3087.00  3087.25
eigval :     3087.84  3088.89  3090.99  3091.46  3093.91  3095.34
eigval :     3096.25  3096.98  3097.45  3097.67  3098.03  3099.48
eigval :     3104.38  3104.44  3104.82  3107.16  3113.45  3115.97

   temp. (K)  partition function   enthalpy   heat capacity  entropy
                                   cal/mol     cal/K/mol   cal/K/mol   J/K/mol
 298.15  VIB  0.797E+16            19628.014    124.934    123.344
         ROT  0.787E+08              888.752      2.981     39.113
         INT  0.627E+24            20516.766    127.915    162.456
         TR   0.135E+29             1481.254      4.968     44.941
         TOT                       21998.0204   132.8834   207.3973   867.7504

       T/K    H(0)-H(T)+PV         H(T)/Eh          T*S/Eh         G(T)/Eh
   ------------------------------------------------------------------------
    298.15    0.350561E-01    0.523721E+00    0.985412E-01    0.425180E+00
   ------------------------------------------------------------------------

         :::::::::::::::::::::::::::::::::::::::::::::::::::::
         ::                  THERMODYNAMIC                  ::
         :::::::::::::::::::::::::::::::::::::::::::::::::::::
         :: total free energy        -109.439876497821 Eh   ::
         ::.................................................::
         :: total energy             -109.865056650065 Eh   ::
         :: zero point energy           0.488665239505 Eh   ::
         :: G(RRHO) w/o ZPVE           -0.063485087262 Eh   ::
         :: G(RRHO) contrib.            0.425180152243 Eh   ::
         :::::::::::::::::::::::::::::::::::::::::::::::::::::

           -------------------------------------------------
          | TOTAL ENERGY             -109.865056650065 Eh   |
          | TOTAL ENTHALPY           -109.341335333634 Eh   |
          | TOTAL FREE ENERGY        -109.439876497821 Eh   |
          | GRADIENT NORM               0.000068151051 Eh/α |
          | HOMO-LUMO GAP               2.610634635161 eV   |
           -------------------------------------------------

 * finished run on 2025/08/26 at 02:31:29.910
