   * xtb version 6.7.1 (edcfbbe) compiled by 'albert@albert-system' on 2024-07-22

   ID    Z sym.   atoms
    1    8 O      1, 3
    2   16 S      2, 15
    3    6 C      4-7, 9-14, 16-27, 29-42
    4    7 N      8, 28
    5    1 H      43-66

          program call               : xtb data2507/toluene/SFPC/SFPC_toluene_T1_crest.xyz --gfn 2 --uhf 2 --gbsa toluene --ohess vtight --parallel 40 --molden --ceasefiles --namespace data2507/toluene/SFPC/SFPC_toluene_T1_finalOpt
      * Solvation model:               GBSA
        Solvent                        toluene
        Solvent mass                       9.2140E+01 g/mol
          :  Hamiltonian                  GFN2-xTB          :
 * total energy  :  -109.7747354 Eh     change       -0.3156657E-08 Eh
 * total energy  :  -109.7750208 Eh     change       -0.2853970E-03 Eh
 * total energy  :  -109.7752527 Eh     change       -0.2318941E-03 Eh
 * total energy  :  -109.7752934 Eh     change       -0.4068184E-04 Eh
 * total energy  :  -109.7753508 Eh     change       -0.5747551E-04 Eh
 * total energy  :  -109.7754062 Eh     change       -0.5533408E-04 Eh
 * total energy  :  -109.7754663 Eh     change       -0.6014253E-04 Eh
 * total energy  :  -109.7755293 Eh     change       -0.6298898E-04 Eh
 * total energy  :  -109.7755827 Eh     change       -0.5342556E-04 Eh
 * total energy  :  -109.7756146 Eh     change       -0.3189233E-04 Eh
 * total energy  :  -109.7764575 Eh     change       -0.3055010E-05 Eh
 * total energy  :  -109.7764603 Eh     change       -0.2861872E-05 Eh
 * total energy  :  -109.7764631 Eh     change       -0.2731631E-05 Eh
 * total energy  :  -109.7764657 Eh     change       -0.2637893E-05 Eh
 * total energy  :  -109.7764682 Eh     change       -0.2494355E-05 Eh
 * total energy  :  -109.7764704 Eh     change       -0.2173397E-05 Eh
 * total energy  :  -109.7764722 Eh     change       -0.1850535E-05 Eh
 * total energy  :  -109.7764739 Eh     change       -0.1664544E-05 Eh
 * total energy  :  -109.7764739 Eh     change       -0.1440057E-08 Eh
   *** GEOMETRY OPTIMIZATION CONVERGED AFTER 185 ITERATIONS ***

 final structure:
================
66
 xtb: 6.7.1 (edcfbbe)
O            0.14294940479406        4.78349054784428        1.73422002800466
S            0.01932137904622        4.15911893345336        0.42864778811327
O           -0.04879716832677        5.04479399486916       -0.72043386328014
C            1.31789901319311        2.97900393567381        0.20155720437756
C            1.80238124242100        2.28269583803476        1.31302442565277
C            2.58173502733306        1.16524698248054        1.13397584646452
C            2.87386344039328        0.72566002295692       -0.16301811814877
N            3.61495182966270       -0.48396765837254       -0.34629976404862
C            4.97958132136637       -0.38417210889138       -0.45263103101995
C            5.59673665888031        0.88021906097094       -0.44562142327501
C            6.95782010562218        1.01786028642846       -0.54499884750095
C            7.78494235279722       -0.11602550332401       -0.65049657028748
C            7.21725202650454       -1.36426358144429       -0.65329173132614
C            5.83173383068193       -1.52375548250242       -0.55959795054521
S            5.23026627467184       -3.15151121787822       -0.54335777031494
C            3.51012639175335       -2.93763115821378       -0.45933048729701
C            2.73129894341891       -4.09846855688082       -0.45612554046530
C            1.36342707379601       -4.02975624429401       -0.38758855309380
C            0.73891290413723       -2.77030977301578       -0.32191492017343
C            1.48786647266581       -1.62143248241239       -0.31256961723356
C            2.89393624901271       -1.65309967420173       -0.37697658104582
C            2.41281795485516        1.43987778771659       -1.27728415111729
C            1.63320106553855        2.55618750390050       -1.09248163575902
C           -1.36729675591459        3.05182175107053        0.41891915981921
C           -1.91840671644456        2.66306097180537       -0.79916523949767
C           -2.80782471739866        1.61329746568280       -0.84580912490450
C           -3.15122150502649        0.93264272935082        0.32857718525650
N           -4.01830297136194       -0.16642223847829        0.27750653517250
C           -3.76171962275894       -1.41501424054875        0.80956225071061
C           -2.63764181787747       -1.87530616939672        1.48209203852151
C           -2.62293401015199       -3.19664223414774        1.88807120376318
C           -3.69577880057037       -4.04822534298424        1.63023530919789
C           -4.80984049652048       -3.60118230271668        0.94616445363077
C           -4.84672245432940       -2.27803106542046        0.52536539266716
C           -5.80418625941290       -1.49956121409327       -0.21047421945032
C           -7.05476849899742       -1.77849471351893       -0.74603276366260
C           -7.73757220925867       -0.76800252591144       -1.39502400117323
C           -7.19481522933541        0.51169699789783       -1.50056955274543
C           -5.95171572116510        0.81333173130849       -0.97733874815623
C           -5.25058195507575       -0.20392617409085       -0.34405006714866
C           -2.60860990355929        1.34383331148000        1.55211416734061
C           -1.71532977988080        2.39043742751613        1.59381614493995
H            1.55092865180641        2.64764765836205        2.29581917066663
H            2.96157280827469        0.61388178693721        1.98078373950683
H            4.97611740964581        1.75797637639807       -0.36110787840321
H            7.39640568630997        2.00290349619887       -0.54076558045922
H            8.85397874505724       -0.00119257461023       -0.72587452721099
H            7.82774213465345       -2.25127777969019       -0.72859535784818
H            3.23769211800712       -5.05024960510990       -0.51145652322044
H            0.76842328543338       -4.92842909397117       -0.38698264008050
H           -0.33650310620925       -2.70769389678448       -0.27429603723835
H            0.99181307509533       -0.66562034055292       -0.25946714096594
H            2.66380852461621        1.09783380617144       -2.26986189920379
H            1.25251249586287        3.12662896902160       -1.92446123057277
H           -1.63002523952753        3.19949817113733       -1.68949279388957
H           -3.22702271445572        1.29345706229810       -1.78775664212184
H           -1.79819042119113       -1.22520662296390        1.67627569914692
H           -1.75972955124460       -3.57747327260029        2.41402456882991
H           -3.64871876846040       -5.07370165878676        1.96603901691031
H           -5.63521945744603       -4.26485596133002        0.73641870828035
H           -7.48351688490743       -2.76493264050579       -0.65136705445950
H           -8.71099432238498       -0.96472841691784       -1.81974532970937
H           -7.75954807967475        1.28574990363896       -1.99948303209964
H           -5.54542909646589        1.81100374086997       -1.04913418559917
H           -2.90356107135928        0.83969287414068        2.45993582417171
H           -1.28301223790129        2.72836445601053        2.52252944850893

          :  Hamiltonian                  GFN2-xTB          :
         :: gradient norm              0.000070852467 Eh/a0 ::
         :: HOMO-LUMO gap              0.028854944068 eV    ::
         :: SCC energy              -111.623641290421 Eh    ::
         :: -> dispersion             -0.098773506533 Eh    ::
         :: -> Gsolv                  -0.057672536127 Eh    ::
         :: repulsion energy           1.847167394816 Eh    ::

    * Orbital Energies and Occupations

         #    Occupation            Energy/Eh            Energy/eV
      -------------------------------------------------------------
         1        2.0000           -0.7613531             -20.7175
       ...           ...                  ...                  ...
        90        2.0000           -0.4245055             -11.5514
        91        2.0000           -0.4218908             -11.4802
        92        2.0000           -0.4206563             -11.4466
        93        2.0000           -0.4186908             -11.3932
        94        2.0000           -0.4164447             -11.3320
        95        2.0000           -0.4121126             -11.2142
        96        2.0000           -0.4074053             -11.0861
        97        2.0000           -0.4045093             -11.0073
        98        2.0000           -0.3986096             -10.8467
        99        2.0000           -0.3807577             -10.3609
       100        1.9406           -0.3655624              -9.9475
       101        1.0594           -0.3603144              -9.8047
       102        0.6360           -0.2679252              -7.2906 (HOMO)
       103        0.3640           -0.2668649              -7.2618 (LUMO)
       104                         -0.2481104              -6.7514
       105                         -0.2451031              -6.6696
       106                         -0.2414052              -6.5690
       107                         -0.2407695              -6.5517
       108                         -0.2407200              -6.5503
       109                         -0.2359274              -6.4199
       110                         -0.2242941              -6.1034
       111                         -0.2179474              -5.9306
       112                         -0.2156091              -5.8670
       113                         -0.1949739              -5.3055
       ...                                ...                  ...
       202                          1.1596721              31.5563
      -------------------------------------------------------------
                  HL-Gap            0.0010603 Eh            0.0289 eV

     #   Z          covCN         q      C6AA      α(0)
     1   8 O        0.860    -0.587    25.793     6.809
     2  16 S        3.840     0.893   109.780    17.635
     3   8 O        0.860    -0.587    25.789     6.809
     4   6 C        2.967    -0.095    30.388     9.042
     5   6 C        2.960    -0.035    28.874     8.814
     6   6 C        2.917    -0.038    28.942     8.822
     7   6 C        2.939     0.034    27.251     8.562
     8   7 N        2.749     0.011    21.072     6.818
     9   6 C        2.944     0.048    26.924     8.510
    10   6 C        2.919    -0.045    29.113     8.848
    11   6 C        2.915    -0.031    28.774     8.796
    12   6 C        2.915    -0.031    28.778     8.797
    13   6 C        2.988    -0.036    28.876     8.815
    14   6 C        2.964     0.017    27.633     8.622
    15  16 S        2.160     0.035   139.649    19.889
    16   6 C        2.964     0.017    27.625     8.621
    17   6 C        2.989    -0.035    28.870     8.814
    18   6 C        2.915    -0.031    28.765     8.795
    19   6 C        2.915    -0.030    28.760     8.794
    20   6 C        2.919    -0.045    29.108     8.847
    21   6 C        2.946     0.047    26.940     8.513
    22   6 C        2.916    -0.039    28.963     8.825
    23   6 C        2.959    -0.034    28.853     8.811
    24   6 C        2.968    -0.091    30.277     9.026
    25   6 C        2.958    -0.034    28.845     8.809
    26   6 C        2.920    -0.042    29.041     8.837
    27   6 C        2.912     0.054    26.784     8.486
    28   7 N        2.800    -0.034    21.902     6.951
    29   6 C        3.075     0.045    26.917     8.506
    30   6 C        2.909    -0.051    29.267     8.871
    31   6 C        2.923    -0.035    28.863     8.810
    32   6 C        2.919    -0.041    29.015     8.833
    33   6 C        2.912    -0.033    28.831     8.805
    34   6 C        3.066    -0.017    28.356     8.732
    35   6 C        3.066    -0.017    28.365     8.733
    36   6 C        2.912    -0.034    28.838     8.806
    37   6 C        2.919    -0.041    29.012     8.833
    38   6 C        2.923    -0.034    28.853     8.809
    39   6 C        2.909    -0.050    29.235     8.866
    40   6 C        3.075     0.046    26.903     8.504
    41   6 C        2.920    -0.042    29.038     8.837
    42   6 C        2.959    -0.034    28.848     8.810
    43   1 H        0.926     0.047     2.361     2.403
    44   1 H        0.926     0.054     2.274     2.358
    45   1 H        0.926     0.050     2.315     2.379
    46   1 H        0.926     0.049     2.328     2.386
    47   1 H        0.926     0.053     2.283     2.363
    48   1 H        0.926     0.057     2.229     2.335
    49   1 H        0.926     0.058     2.224     2.332
    50   1 H        0.926     0.054     2.272     2.357
    51   1 H        0.926     0.051     2.308     2.375
    52   1 H        0.926     0.048     2.350     2.397
    53   1 H        0.926     0.055     2.260     2.351
    54   1 H        0.926     0.047     2.358     2.401
    55   1 H        0.926     0.045     2.383     2.414
    56   1 H        0.926     0.054     2.267     2.355
    57   1 H        0.926     0.032     2.552     2.498
    58   1 H        0.926     0.035     2.516     2.480
    59   1 H        0.926     0.032     2.557     2.500
    60   1 H        0.926     0.034     2.536     2.490
    61   1 H        0.926     0.034     2.526     2.485
    62   1 H        0.926     0.031     2.573     2.509
    63   1 H        0.926     0.031     2.566     2.505
    64   1 H        0.926     0.030     2.587     2.515
    65   1 H        0.926     0.055     2.262     2.352
    66   1 H        0.926     0.045     2.383     2.414

molecular dipole:
                 x           y           z       tot (Debye)
 q only:        2.699      -5.451      -0.734
   full:        2.573      -4.942      -0.694      14.272

 projected vibrational frequencies (cm⁻¹)
eigval :       -0.00    -0.00     0.00     0.00     0.00     0.00
eigval :        1.54    14.98    16.83    23.25    29.02    38.57
eigval :       41.19    48.00    53.81    72.89    91.47   104.75
eigval :      107.72   109.36   126.86   141.05   144.94   148.82
eigval :      154.32   178.45   215.82   217.69   238.66   241.66
eigval :      248.95   272.02   275.93   307.98   323.88   332.02
eigval :      365.20   369.48   371.08   377.79   378.59   386.50
eigval :      393.70   394.74   395.25   406.99   413.22   422.46
eigval :      423.90   436.51   443.06   452.10   477.53   484.11
eigval :      514.58   516.52   517.32   526.53   534.47   539.84
eigval :      576.95   577.67   590.28   601.13   608.74   622.90
eigval :      627.48   629.81   641.73   647.67   663.20   672.06
eigval :      676.09   707.30   711.98   733.01   740.08   749.95
eigval :      754.53   756.51   766.24   777.46   786.45   800.84
eigval :      845.26   853.64   856.84   859.66   870.74   872.03
eigval :      889.32   892.37   894.06   895.53   898.82   899.58
eigval :      900.10   900.94   901.33   902.48   906.59   910.17
eigval :      914.24   920.61   923.38   923.55   981.93   992.27
eigval :     1007.89  1009.85  1034.79  1050.07  1065.16  1066.77
eigval :     1067.19  1067.70  1070.61  1090.01  1110.64  1112.19
eigval :     1117.03  1144.87  1147.64  1152.03  1163.50  1166.92
eigval :     1169.38  1169.75  1173.54  1174.52  1178.89  1193.45
eigval :     1197.35  1213.36  1225.10  1232.28  1232.83  1238.82
eigval :     1244.56  1280.74  1293.78  1295.11  1314.20  1321.18
eigval :     1327.31  1329.23  1345.01  1350.48  1354.16  1357.63
eigval :     1371.41  1391.26  1397.53  1401.46  1403.38  1415.50
eigval :     1417.03  1418.08  1420.46  1423.04  1443.94  1457.26
eigval :     1466.17  1467.32  1483.78  1484.48  1486.21  1512.19
eigval :     1531.39  1566.15  1575.74  1580.96  1588.19  1601.10
eigval :     3072.87  3073.93  3078.52  3080.04  3086.21  3087.55
eigval :     3088.15  3088.71  3089.09  3089.28  3089.94  3091.90
eigval :     3092.64  3094.39  3099.22  3099.66  3100.58  3101.96
eigval :     3105.71  3107.49  3109.24  3109.76  3114.69  3115.60

   temp. (K)  partition function   enthalpy   heat capacity  entropy
                                   cal/mol     cal/K/mol   cal/K/mol   J/K/mol
 298.15  VIB  0.292E+17            20059.117    126.112    125.890
         ROT  0.618E+08              888.752      2.981     38.631
         INT  0.180E+25            20947.870    129.093    164.520
         TR   0.135E+29             1481.254      4.968     44.941
         TOT                       22429.1235   134.0609   209.4615   876.3871

       T/K    H(0)-H(T)+PV         H(T)/Eh          T*S/Eh         G(T)/Eh
   ------------------------------------------------------------------------
    298.15    0.357431E-01    0.519439E+00    0.995219E-01    0.419917E+00
   ------------------------------------------------------------------------

         :::::::::::::::::::::::::::::::::::::::::::::::::::::
         ::                  THERMODYNAMIC                  ::
         :::::::::::::::::::::::::::::::::::::::::::::::::::::
         :: total free energy        -109.356556557825 Eh   ::
         ::.................................................::
         :: total energy             -109.776473892373 Eh   ::
         :: zero point energy           0.483696191089 Eh   ::
         :: G(RRHO) w/o ZPVE           -0.063778856541 Eh   ::
         :: G(RRHO) contrib.            0.419917334548 Eh   ::
         :::::::::::::::::::::::::::::::::::::::::::::::::::::

           -------------------------------------------------
          | TOTAL ENERGY             -109.776473892373 Eh   |
          | TOTAL ENTHALPY           -109.257034617909 Eh   |
          | TOTAL FREE ENERGY        -109.356556557825 Eh   |
          | GRADIENT NORM               0.000070603746 Eh/α |
          | HOMO-LUMO GAP               0.028852438471 eV   |
           -------------------------------------------------

 * finished run on 2025/08/26 at 02:38:07.326
