   * xtb version 6.7.1 (edcfbbe) compiled by 'albert@albert-system' on 2024-07-22

   ID    Z sym.   atoms
    1    6 C      1-54
    2    1 H      55-92

          program call               : xtb data2507/gas/PABP/PABP_gas_S0_crest.xyz --gfn 2 --ohess vtight --parallel 40 --molden --ceasefiles --namespace data2507/gas/PABP/PABP_gas_S0_finalOpt
          :  Hamiltonian                  GFN2-xTB          :
 * total energy  :  -135.0217868 Eh     change       -0.2063274E-08 Eh
   *** GEOMETRY OPTIMIZATION CONVERGED AFTER 1 ITERATIONS ***

 final structure:
================
92
 xtb: 6.7.1 (edcfbbe)
C           -0.70125566040000       -1.69280132990000       -1.80245235290000
C           -1.44221667700000       -0.81083033610000       -0.84283582360000
C           -2.82756717410000       -0.78087719770000       -0.83099099140000
C           -3.52835105600000        0.04193388870000        0.04421930610000
C           -5.00604811850000        0.06080557480000        0.02776493200000
C           -5.72373403980000       -1.05471592890000        0.48119935720000
C           -5.06921225670000       -2.20542052210000        0.99442579830000
C           -5.77457620060000       -3.29176859260000        1.41097810980000
C           -7.18185838290000       -3.29693574620000        1.33613567580000
C           -7.84866871900000       -2.20572569060000        0.87139926010000
C           -7.15289470310000       -1.04285068170000        0.44746668940000
C           -7.82989570370000        0.09541518260000       -0.01199259280000
C           -9.30833787140000        0.11292195480000       -0.03391037710000
C          -10.03082183200000        0.16584752580000        1.15398953150000
C          -11.41366383390000        0.18401356480000        1.13222340130000
C          -12.09105623580000        0.14506516550000       -0.07505321440000
C          -11.37937660610000        0.09011375980000       -1.26176212210000
C           -9.99643224960000        0.07635600030000       -1.24264581930000
C           -7.11254763220000        1.21684597720000       -0.45119360120000
C           -7.76765053790000        2.39603984520000       -0.89449122680000
C           -7.06164117430000        3.47041806030000       -1.34012560780000
C           -5.65336226410000        3.43093555570000       -1.37507865280000
C           -4.98659079500000        2.32797752730000       -0.93907332090000
C           -5.68313017750000        1.19378462840000       -0.44471283670000
C           -2.81851139310000        0.84572727580000        0.92873524520000
C           -1.43684917270000        0.81916897410000        0.93080027100000
C           -0.74071339430000        0.00058923550000        0.05178455850000
C            0.74022446270000        0.00436801280000        0.05839135660000
C            1.42695170270000        0.82305237390000       -0.82805679940000
C            2.80831985350000        0.84897455680000       -0.84147074520000
C            3.52756152080000        0.04386378500000        0.03426810690000
C            5.00546380060000        0.05602628880000        0.02056323710000
C            5.69774101620000        1.18526842080000        0.47940803240000
C            5.01708652580000        2.31789029690000        0.99879117930000
C            5.69764733000000        3.41799905050000        1.42044310700000
C            7.10438736940000        3.45592511770000        1.34477686270000
C            7.79588172340000        2.38298530730000        0.87359698750000
C            7.12670636930000        1.20668566840000        0.44390915350000
C            7.82913676050000        0.08733791750000       -0.02379910130000
C            9.30752055760000        0.10536098790000       -0.05032026780000
C            9.99037118240000        0.16844450370000       -1.26093472910000
C           11.37316159280000        0.18874558680000       -1.28457297760000
C           12.09001077200000        0.14169676500000       -0.10060284310000
C           11.41788751340000        0.07634165150000        1.10845173630000
C           10.03507744440000        0.06051677820000        1.13477569580000
C            7.13734000620000       -1.04810415450000       -0.46782558560000
C            7.81886238380000       -2.20879963650000       -0.91997866360000
C            7.13722420800000       -3.29695095840000       -1.37012101040000
C            5.72826821850000       -3.29086225440000       -1.40070720010000
C            5.03688366710000       -2.20641726970000       -0.95672253720000
C            5.70777641630000       -1.05861710420000       -0.45830261380000
C            2.83640962310000       -0.77479176570000        0.92082301970000
C            1.45102800230000       -0.80354150360000        0.94859984340000
C            0.71951395470000       -1.68391788100000        1.91678858820000
H           -0.16999066070000       -1.08850488420000       -2.53759850890000
H            0.04083921970000       -2.29474141470000       -1.27959066090000
H           -1.38630874500000       -2.35405650050000       -2.32749680660000
H           -3.38153955350000       -1.40295945670000       -1.52075320980000
H           -3.99075363720000       -2.20101404010000        1.05134330480000
H           -5.26222727950000       -4.15985163320000        1.79963271340000
H           -7.72560115260000       -4.17426664430000        1.65493618370000
H           -8.92722777480000       -2.20958569160000        0.81554786350000
H           -9.49950885760000        0.19874757820000        2.09461038280000
H          -11.96474664580000        0.22849780230000        2.06044022360000
H          -13.17096504640000        0.15747218670000       -0.09101955870000
H          -11.90366525220000        0.05867624960000       -2.20596544210000
H           -9.43850824980000        0.03208935940000       -2.16734111850000
H           -8.84694210080000        2.42612024880000       -0.86901203850000
H           -7.57456330710000        4.36063619450000       -1.67392566310000
H           -5.10912756510000        4.28614530690000       -1.74852917950000
H           -3.90739756480000        2.29803927940000       -0.96493002400000
H           -3.35377938990000        1.48502235590000        1.61582511580000
H           -0.88431244270000        1.44515715410000        1.61748815900000
H            0.86687667030000        1.44734403030000       -1.51013559190000
H            3.33640145680000        1.48708530820000       -1.53518166600000
H            3.93902070700000        2.28875524900000        1.05548595960000
H            5.16565774040000        4.27215221320000        1.81342631610000
H            7.62795728050000        4.34395758920000        1.66768643940000
H            8.87400566380000        2.41212534580000        0.81681276340000
H            9.42835578850000        0.20757022230000       -2.18331302880000
H           11.89334336050000        0.24129554910000       -2.23007778720000
H           13.16984204310000        0.15598017580000       -0.12013149140000
H           11.97302873460000        0.03806370050000        2.03456008210000
H            9.50795469140000        0.00729921110000        2.07683827940000
H            8.89865146640000       -2.21323634210000       -0.89803779140000
H            7.67016070020000       -4.17244642490000       -1.71141557050000
H            5.20353609920000       -4.15662242080000       -1.77785084600000
H            3.95718134950000       -2.20136422620000       -0.97967728490000
H            3.39776935650000       -1.39568516420000        1.60565761840000
H            1.41252859960000       -2.32518200840000        2.45594638810000
H            0.17187527680000       -1.07862000040000        2.63883519390000
H           -0.00779375240000       -2.30703435910000        1.39762251110000

          :  Hamiltonian                  GFN2-xTB          :
         :: gradient norm              0.000183666876 Eh/a0 ::
         :: HOMO-LUMO gap              2.127346882870 eV    ::
         :: SCC energy              -137.666600205671 Eh    ::
         :: -> dispersion             -0.132059738518 Eh    ::
         :: repulsion energy           2.644813355601 Eh    ::

    * Orbital Energies and Occupations

         #    Occupation            Energy/Eh            Energy/eV
      -------------------------------------------------------------
         1        2.0000           -0.6513404             -17.7239
       ...           ...                  ...                  ...
       115        2.0000           -0.4027964             -10.9606
       116        2.0000           -0.3999959             -10.8844
       117        2.0000           -0.3979540             -10.8289
       118        2.0000           -0.3964349             -10.7875
       119        2.0000           -0.3960753             -10.7778
       120        2.0000           -0.3957860             -10.7699
       121        2.0000           -0.3957436             -10.7687
       122        2.0000           -0.3951180             -10.7517
       123        2.0000           -0.3940897             -10.7237
       124        2.0000           -0.3867665             -10.5245
       125        2.0000           -0.3850212             -10.4770
       126        2.0000           -0.3548071              -9.6548
       127        2.0000           -0.3546659              -9.6510 (HOMO)
       128                         -0.2764874              -7.5236 (LUMO)
       129                         -0.2762682              -7.5176
       130                         -0.2278940              -6.2013
       131                         -0.2278764              -6.2008
       132                         -0.2229293              -6.0662
       133                         -0.2224384              -6.0529
       134                         -0.2223102              -6.0494
       135                         -0.2221289              -6.0444
       136                         -0.2221151              -6.0441
       137                         -0.2189300              -5.9574
       138                         -0.2183625              -5.9419
       ...                                ...                  ...
       254                          0.7192545              19.5719
      -------------------------------------------------------------
                  HL-Gap            0.0781786 Eh            2.1273 eV

     #   Z          covCN         q      C6AA      α(0)
     1   6 C        3.758    -0.104    22.540     6.769
     2   6 C        2.969     0.011    27.756     8.642
     3   6 C        2.929    -0.044    29.084     8.844
     4   6 C        2.976     0.011    27.762     8.643
     5   6 C        2.978    -0.006    28.162     8.705
     6   6 C        2.984     0.006    27.886     8.662
     7   6 C        2.917    -0.035    28.860     8.809
     8   6 C        2.914    -0.031    28.770     8.796
     9   6 C        2.914    -0.031    28.765     8.795
    10   6 C        2.917    -0.035    28.863     8.810
    11   6 C        2.984     0.006    27.884     8.662
    12   6 C        2.977    -0.007    28.195     8.710
    13   6 C        2.977     0.016    27.645     8.625
    14   6 C        2.924    -0.032    28.799     8.801
    15   6 C        2.919    -0.030    28.747     8.792
    16   6 C        2.920    -0.032    28.795     8.800
    17   6 C        2.919    -0.030    28.747     8.792
    18   6 C        2.924    -0.032    28.799     8.801
    19   6 C        2.984     0.006    27.882     8.662
    20   6 C        2.917    -0.035    28.864     8.810
    21   6 C        2.914    -0.030    28.761     8.794
    22   6 C        2.914    -0.031    28.764     8.795
    23   6 C        2.917    -0.034    28.857     8.809
    24   6 C        2.984     0.006    27.883     8.662
    25   6 C        2.923    -0.038    28.952     8.824
    26   6 C        2.922    -0.036    28.887     8.814
    27   6 C        2.983     0.001    27.996     8.679
    28   6 C        2.983     0.001    27.996     8.679
    29   6 C        2.923    -0.036    28.885     8.814
    30   6 C        2.923    -0.038    28.951     8.824
    31   6 C        2.976     0.011    27.761     8.643
    32   6 C        2.978    -0.006    28.162     8.705
    33   6 C        2.984     0.006    27.883     8.662
    34   6 C        2.917    -0.034    28.855     8.809
    35   6 C        2.914    -0.031    28.764     8.795
    36   6 C        2.914    -0.030    28.760     8.794
    37   6 C        2.917    -0.035    28.864     8.810
    38   6 C        2.984     0.006    27.882     8.662
    39   6 C        2.977    -0.007    28.195     8.710
    40   6 C        2.977     0.016    27.645     8.625
    41   6 C        2.924    -0.032    28.799     8.801
    42   6 C        2.919    -0.030    28.747     8.792
    43   6 C        2.920    -0.032    28.795     8.800
    44   6 C        2.919    -0.030    28.747     8.792
    45   6 C        2.924    -0.032    28.800     8.801
    46   6 C        2.984     0.006    27.884     8.662
    47   6 C        2.917    -0.035    28.862     8.810
    48   6 C        2.914    -0.031    28.765     8.795
    49   6 C        2.914    -0.031    28.770     8.795
    50   6 C        2.917    -0.035    28.860     8.810
    51   6 C        2.984     0.006    27.886     8.662
    52   6 C        2.929    -0.044    29.085     8.844
    53   6 C        2.968     0.011    27.757     8.642
    54   6 C        3.758    -0.104    22.541     6.769
    55   1 H        0.925     0.045     2.382     2.414
    56   1 H        0.925     0.042     2.422     2.434
    57   1 H        0.925     0.039     2.457     2.451
    58   1 H        0.925     0.029     2.605     2.524
    59   1 H        0.926     0.031     2.571     2.508
    60   1 H        0.926     0.027     2.629     2.535
    61   1 H        0.926     0.027     2.626     2.534
    62   1 H        0.926     0.031     2.579     2.511
    63   1 H        0.926     0.029     2.596     2.520
    64   1 H        0.926     0.029     2.599     2.521
    65   1 H        0.926     0.028     2.608     2.525
    66   1 H        0.926     0.029     2.599     2.521
    67   1 H        0.926     0.029     2.597     2.520
    68   1 H        0.926     0.031     2.578     2.511
    69   1 H        0.926     0.027     2.623     2.533
    70   1 H        0.926     0.027     2.622     2.532
    71   1 H        0.926     0.032     2.565     2.504
    72   1 H        0.926     0.028     2.614     2.528
    73   1 H        0.926     0.027     2.634     2.538
    74   1 H        0.926     0.027     2.634     2.538
    75   1 H        0.926     0.028     2.615     2.529
    76   1 H        0.926     0.031     2.565     2.505
    77   1 H        0.926     0.027     2.622     2.532
    78   1 H        0.926     0.027     2.623     2.533
    79   1 H        0.926     0.031     2.578     2.511
    80   1 H        0.926     0.029     2.597     2.520
    81   1 H        0.926     0.029     2.599     2.521
    82   1 H        0.926     0.028     2.608     2.525
    83   1 H        0.926     0.029     2.599     2.521
    84   1 H        0.926     0.029     2.596     2.520
    85   1 H        0.926     0.031     2.579     2.511
    86   1 H        0.926     0.027     2.625     2.534
    87   1 H        0.926     0.027     2.629     2.535
    88   1 H        0.926     0.031     2.572     2.508
    89   1 H        0.925     0.029     2.605     2.524
    90   1 H        0.925     0.039     2.458     2.452
    91   1 H        0.925     0.045     2.382     2.414
    92   1 H        0.925     0.042     2.420     2.433

molecular dipole:
                 x           y           z       tot (Debye)
 q only:        0.002      -0.202       0.002
   full:        0.002      -0.185      -0.003       0.470

 projected vibrational frequencies (cm⁻¹)
eigval :       -0.00    -0.00    -0.00     0.00     0.00     0.00
eigval :        7.19     8.72     8.96    18.27    22.75    25.62
eigval :       34.42    35.47    42.92    44.82    60.00    63.91
eigval :       67.65    68.91    76.83    80.21    81.22    82.83
eigval :       85.23    86.77   110.11   110.58   165.47   165.96
eigval :      174.87   180.83   198.91   199.03   199.97   215.76
eigval :      216.26   222.49   222.89   224.70   230.52   242.74
eigval :      242.99   294.62   332.73   346.06   368.70   369.08
eigval :      375.42   379.84   381.97   389.23   395.54   399.86
eigval :      401.20   408.66   412.70   421.94   433.35   441.43
eigval :      447.32   448.16   458.96   459.01   459.48   467.13
eigval :      474.55   488.69   514.00   540.81   554.51   557.11
eigval :      579.04   579.25   586.52   586.58   588.80   597.33
eigval :      598.22   599.62   616.07   621.02   621.95   630.12
eigval :      632.82   650.28   668.87   675.28   675.40   692.90
eigval :      693.12   700.98   702.79   704.17   716.23   733.67
eigval :      738.97   741.47   759.07   759.15   774.42   774.68
eigval :      776.10   776.15   829.77   829.88   833.29   834.63
eigval :      874.11   874.18   875.29   875.31   881.12   881.20
eigval :      890.26   890.70   896.64   896.71   904.49   904.56
eigval :      911.74   911.77   917.51   917.77   918.46   918.54
eigval :      921.68   922.17   927.63   927.66   927.97   928.04
eigval :      931.35   931.42   932.33   932.39   933.62   933.69
eigval :      984.37   988.13   995.62  1000.05  1000.23  1022.81
eigval :     1023.07  1030.99  1034.11  1081.23  1081.31  1082.02
eigval :     1082.12  1083.42  1083.44  1118.36  1118.40  1129.19
eigval :     1135.23  1135.25  1145.09  1146.27  1161.17  1181.30
eigval :     1181.36  1182.06  1182.06  1183.01  1183.89  1188.58
eigval :     1191.41  1195.70  1195.75  1215.80  1216.84  1226.84
eigval :     1228.58  1228.66  1243.49  1255.39  1256.09  1258.58
eigval :     1261.75  1264.76  1265.44  1281.29  1281.33  1297.59
eigval :     1307.77  1308.22  1312.36  1312.39  1326.14  1333.93
eigval :     1350.51  1350.52  1370.00  1377.37  1385.14  1385.19
eigval :     1404.71  1410.65  1412.42  1414.80  1421.36  1421.78
eigval :     1428.09  1428.11  1430.62  1430.65  1444.45  1445.80
eigval :     1465.78  1472.64  1477.32  1479.82  1479.91  1488.14
eigval :     1489.74  1491.62  1495.10  1513.87  1527.12  1527.17
eigval :     1531.11  1531.28  1543.17  1543.25  1561.46  1562.97
eigval :     1580.47  1580.47  1599.75  1599.75  1602.46  1602.69
eigval :     1608.77  1608.79  1622.98  1623.00  3002.01  3002.51
eigval :     3019.09  3020.13  3041.23  3041.52  3068.61  3068.77
eigval :     3069.14  3069.78  3070.33  3070.44  3071.47  3071.51
eigval :     3072.11  3072.12  3072.45  3072.47  3078.53  3078.61
eigval :     3079.10  3079.12  3079.59  3079.63  3083.50  3083.58
eigval :     3083.67  3083.86  3089.07  3089.13  3089.59  3089.78
eigval :     3091.37  3091.39  3092.91  3092.99  3094.03  3094.08

   temp. (K)  partition function   enthalpy   heat capacity  entropy
                                   cal/mol     cal/K/mol   cal/K/mol   J/K/mol
 298.15  VIB  0.913E+22            26362.408    162.827    167.652
         ROT  0.141E+09              888.752      2.981     40.272
         INT  0.129E+31            27251.160    165.808    207.925
         TR   0.174E+29             1481.254      4.968     45.441
         TOT                       28732.4143   170.7757   253.3661  1060.0839

       T/K    H(0)-H(T)+PV         H(T)/Eh          T*S/Eh         G(T)/Eh
   ------------------------------------------------------------------------
    298.15    0.457880E-01    0.768764E+00    0.120382E+00    0.648382E+00
   ------------------------------------------------------------------------

         :::::::::::::::::::::::::::::::::::::::::::::::::::::
         ::                  THERMODYNAMIC                  ::
         :::::::::::::::::::::::::::::::::::::::::::::::::::::
         :: total free energy        -134.373404828393 Eh   ::
         ::.................................................::
         :: total energy             -135.021786850057 Eh   ::
         :: zero point energy           0.722976435721 Eh   ::
         :: G(RRHO) w/o ZPVE           -0.074594414057 Eh   ::
         :: G(RRHO) contrib.            0.648382021664 Eh   ::
         :::::::::::::::::::::::::::::::::::::::::::::::::::::

           -------------------------------------------------
          | TOTAL ENERGY             -135.021786850057 Eh   |
          | TOTAL ENTHALPY           -134.253022397599 Eh   |
          | TOTAL FREE ENERGY        -134.373404828393 Eh   |
          | GRADIENT NORM               0.000183625913 Eh/α |
          | HOMO-LUMO GAP               2.127346821320 eV   |
           -------------------------------------------------

 * finished run on 2025/07/19 at 00:30:21.124
