   * xtb version 6.7.1 (edcfbbe) compiled by 'albert@albert-system' on 2024-07-22

   ID    Z sym.   atoms
    1    6 C      1-54
    2    1 H      55-92

          program call               : xtb data2507/gas/PABP/PABP_gas_T1_crest.xyz --gfn 2 --spinpol --tblite --uhf 2 --ohess vtight --parallel 40 --molden --ceasefiles --namespace data2507/gas/PABP/PABP_gas_T1_finalOpt
 * total energy  :  -134.9577664 Eh     change       -0.1921609E-07 Eh
 * total energy  :  -134.9578049 Eh     change       -0.3854418E-04 Eh
 * total energy  :  -134.9578165 Eh     change       -0.1154143E-04 Eh
 * total energy  :  -134.9578219 Eh     change       -0.5443113E-05 Eh
 * total energy  :  -134.9578334 Eh     change       -0.1145055E-04 Eh
 * total energy  :  -134.9578468 Eh     change       -0.1339968E-04 Eh
 * total energy  :  -134.9578602 Eh     change       -0.1346335E-04 Eh
 * total energy  :  -134.9578698 Eh     change       -0.9593630E-05 Eh
 * total energy  :  -134.9578733 Eh     change       -0.3487732E-05 Eh
 * total energy  :  -134.9578748 Eh     change       -0.1522791E-05 Eh
 * total energy  :  -134.9579108 Eh     change       -0.1264533E-05 Eh
 * total energy  :  -134.9579122 Eh     change       -0.1390376E-05 Eh
 * total energy  :  -134.9579125 Eh     change       -0.3072109E-06 Eh
 * total energy  :  -134.9579136 Eh     change       -0.1113396E-05 Eh
 * total energy  :  -134.9579138 Eh     change       -0.1304408E-06 Eh
 * total energy  :  -134.9579140 Eh     change       -0.2297663E-06 Eh
 * total energy  :  -134.9579142 Eh     change       -0.2429352E-06 Eh
 * total energy  :  -134.9579144 Eh     change       -0.1986636E-06 Eh
 * total energy  :  -134.9579144 Eh     change       -0.4449277E-08 Eh
   *** GEOMETRY OPTIMIZATION CONVERGED AFTER 50 ITERATIONS ***

 final structure:
================
92
 xtb: 6.7.1 (edcfbbe)
C           -0.71377022881426       -1.26885635486501        2.15393758846606
C           -1.44929796047464       -0.61426643929787        1.02326590025735
C           -2.83472326152113       -0.60514471727717        0.98920304203293
C           -3.53127586627110       -0.01137912381363       -0.05771000268973
C           -5.00930646842379       -0.01761865419932       -0.07043727047214
C           -5.71812027644259        0.76633697562817        0.85043476703708
C           -5.05392907581649        1.59928273052322        1.78904771878992
C           -5.75101853275475        2.34007630663245        2.69266039127256
C           -7.15924614700501        2.29090637438001        2.71684289146557
C           -7.83489450275973        1.52198109265685        1.82037904365157
C           -7.14765790724141        0.75016955783014        0.84666130979149
C           -7.83355227755035       -0.02880008670012       -0.09559825042963
C           -9.31223171264694       -0.03517790792770       -0.10842861588927
C          -10.01926458022687        1.08714599524836       -0.52835769464226
C          -11.40235405012779        1.07882112843488       -0.54181504379135
C          -12.09539358654290       -0.04794129043538       -0.13201048521866
C          -11.39911754793486       -1.16840591290422        0.28948863936893
C          -10.01602954505111       -1.16400810557557        0.29944275356028
C           -7.12480221596193       -0.80230904385305       -1.02540812503422
C           -7.78844027559598       -1.57962454307751       -2.01102271541663
C           -7.09075126824871       -2.34335958369532       -2.89496755800442
C           -5.68284772690957       -2.38114151705618       -2.84578006597345
C           -5.00780339934774       -1.63459593427758       -1.93022480805740
C           -5.69536273860959       -0.80711473400348       -1.00373811465401
C           -2.81699287196878        0.58751609092795       -1.08900142704407
C           -1.43549174450192        0.59191637298729       -1.06179710232618
C           -0.74317708782746       -0.00452971201218       -0.01627416319035
C            0.73699398672314        0.00522284237049       -0.01460564713572
C            1.43621180046480       -1.10109268397371       -0.48168576099597
C            2.81575661091184       -1.11697147508534       -0.48830346822294
C            3.53595605204016       -0.01099727928638       -0.03282722190463
C            4.99779908951269       -0.01223585126620       -0.04165023258956
C            5.70595196297584        1.00719934838822       -0.75241216266470
C            5.04030076589656        1.97778506529742       -1.50300443883685
C            5.73273691477568        3.01086191826377       -2.13533904966118
C            7.10197498321008        3.08747427850020       -2.02195570420748
C            7.79645852194847        2.09971766933039       -1.32309639690257
C            7.13207586936161        1.02827169584766       -0.72354368190452
C            7.84344551208473       -0.02688397087032       -0.07133066082059
C            9.30688678753126       -0.03703623693515       -0.09189611560912
C           10.00395993632017       -0.05195800345283       -1.30226143876565
C           11.38506558812231       -0.06842118346040       -1.32039905472300
C           12.09979371960528       -0.05885812912265       -0.13321295512490
C           11.42072320977715       -0.03800639418029        1.07454508289774
C           10.03952904566198       -0.03275475436933        1.09729906743084
C            7.13547694492992       -1.07264363131137        0.59916208346720
C            7.80054650761559       -2.15020317294711        1.18705035098103
C            7.11016261811285       -3.12842579057233        1.90319591110235
C            5.74451113259366       -3.03670485395897        2.04522672637091
C            5.05023810121072       -1.99769219316388        1.42459320843527
C            5.71061634505382       -1.03627820635579        0.65782458232567
C            2.82452282817505        1.09805901388149        0.43002429042036
C            1.44109417252702        1.12000940683878        0.44993881421215
C            0.70001479483213        2.31812500731227        0.96335525563680
H           -1.39730661810190       -1.53641468926754        2.95610017717123
H           -0.21717594570963       -2.17475498444087        1.80643452122250
H            0.05560163749930       -0.60685807615328        2.54905422839099
H           -3.39187972974589       -1.07391168592459        1.78886142685920
H           -3.97474443726500        1.63624105374714        1.77027282651723
H           -5.23140535861507        2.96939723042464        3.40052096735532
H           -7.69652181673495        2.87240235700538        3.45182576525667
H           -8.91413963510146        1.48554084502739        1.83846482900529
H           -9.47596732176334        1.96448372225821       -0.84975173583114
H          -11.94138036920078        1.95480646104540       -0.87265773900538
H          -13.17544847308749       -0.05288542361058       -0.14111524503735
H          -11.93561457501556       -2.04935925347092        0.61110477929047
H           -9.47011208118528       -2.03637339889628        0.62982585938674
H           -8.86744598583450       -1.55175864436133       -2.04842817116097
H           -7.61018930253488       -2.92943914569511       -3.63906869482431
H           -5.14556213612273       -3.00595894479832       -3.54431376805858
H           -3.92884060603821       -1.66216042623189       -1.89314014322270
H           -3.34889134920488        1.05389419054569       -1.90563172157537
H           -0.87989592689913        1.05732999558080       -1.86391121352317
H            0.88442228991103       -1.95458185314503       -0.85031092701081
H            3.34768085602206       -1.97452172147561       -0.87386269803005
H            3.96686687318923        1.92871945084631       -1.60263568057113
H            5.18483036027818        3.75006206344448       -2.70066927797628
H            7.64817783021123        3.89888413232815       -2.47954367989228
H            8.87048538707572        2.17061169794720       -1.24363349533778
H            9.44856028295399       -0.07658189576278       -2.22900677854423
H           11.90818162699510       -0.09091763170260       -2.26559861214378
H           13.17954654669602       -0.06755055337772       -0.14920807322212
H           11.97184918383638       -0.02380352733254        2.00386014232454
H            9.51234335851821        0.00090353940228        2.04010844416262
H            8.87168019512197       -2.23366798456758        1.08449247111611
H            7.65697035630099       -3.94475205560709        2.35119247584237
H            5.20063837479654       -3.76876662025626        2.62356515605427
H            3.97943939985356       -1.93723596142896        1.54518235581328
H            3.37489764430031        1.94850146346874        0.80835864067874
H            0.15191242367059        2.79988309163913        0.15396071747649
H           -0.02759142812180        2.02538663654628        1.71930982061454
H            1.38691584135104        3.04146085824371        1.39587546874920

 projected vibrational frequencies (cm⁻¹)
eigval :       -0.00    -0.00    -0.00    -0.00     0.00     0.00
eigval :        7.15     8.40     8.99    18.16    20.69    29.26
eigval :       35.49    42.38    45.97    52.58    59.40    65.53
eigval :       70.53    72.06    74.09    79.41    81.89    84.05
eigval :       87.55    90.80   110.04   121.14   163.66   170.07
eigval :      177.67   182.58   193.86   198.76   199.01   215.73
eigval :      222.13   223.88   226.75   229.29   237.77   242.86
eigval :      251.74   292.01   335.79   340.48   358.68   368.81
eigval :      370.95   376.60   380.86   385.61   391.24   394.07
eigval :      400.19   403.61   407.13   413.70   417.64   426.14
eigval :      439.76   447.55   455.08   458.87   466.25   470.85
eigval :      472.75   487.19   514.29   535.68   553.18   554.71
eigval :      568.07   579.05   581.90   583.19   585.32   586.65
eigval :      597.19   597.81   602.12   616.56   618.98   624.94
eigval :      631.09   647.28   664.88   672.03   674.10   675.33
eigval :      692.99   698.30   701.65   702.81   713.73   716.80
eigval :      733.54   740.23   746.16   755.43   759.01   760.32
eigval :      774.33   775.88   824.29   829.70   833.01   833.59
eigval :      842.22   846.51   873.99   875.14   877.67   881.06
eigval :      884.75   887.85   890.23   892.72   896.69   899.48
eigval :      904.21   904.50   905.82   907.78   909.15   911.65
eigval :      917.52   918.31   921.75   925.56   927.36   927.72
eigval :      931.06   931.30   932.38   933.88   933.91   944.70
eigval :      984.25   987.10   994.42   996.41  1000.07  1022.21
eigval :     1022.48  1030.52  1033.42  1081.80  1082.47  1082.93
eigval :     1083.45  1099.88  1103.15  1112.34  1118.56  1120.03
eigval :     1125.18  1131.33  1135.57  1145.43  1161.61  1175.75
eigval :     1180.74  1181.04  1181.13  1181.78  1182.75  1183.26
eigval :     1186.14  1189.69  1195.17  1199.22  1214.34  1217.79
eigval :     1228.63  1231.28  1237.36  1250.10  1254.43  1255.31
eigval :     1257.93  1259.64  1264.80  1280.32  1281.13  1285.90
eigval :     1295.33  1307.07  1307.70  1310.97  1312.34  1313.43
eigval :     1328.75  1344.73  1350.24  1368.39  1373.49  1376.07
eigval :     1378.37  1384.84  1403.50  1407.27  1408.96  1412.14
eigval :     1414.54  1421.11  1425.72  1427.84  1429.11  1430.26
eigval :     1444.74  1461.59  1464.79  1474.57  1476.34  1478.54
eigval :     1478.76  1482.32  1485.97  1487.27  1491.67  1508.02
eigval :     1516.60  1526.90  1531.00  1531.87  1542.20  1542.98
eigval :     1561.40  1561.65  1564.60  1580.21  1585.81  1587.32
eigval :     1599.56  1602.00  1608.43  1622.69  3001.01  3002.49
eigval :     3018.64  3019.58  3039.95  3040.84  3068.29  3068.53
eigval :     3068.98  3069.69  3069.77  3069.98  3070.72  3071.13
eigval :     3071.83  3072.20  3075.40  3075.61  3078.33  3078.81
eigval :     3079.34  3079.51  3082.83  3083.12  3083.33  3083.85
eigval :     3084.53  3084.80  3088.62  3089.25  3091.49  3091.69
eigval :     3092.02  3094.03  3094.41  3095.17  3097.71  3098.52

   temp. (K)  partition function   enthalpy   heat capacity  entropy
                                   cal/mol     cal/K/mol   cal/K/mol   J/K/mol
 298.15  VIB  0.542E+22            26423.346    164.298    167.766
         ROT  0.142E+09              888.752      2.981     40.281
         INT  0.768E+30            27312.099    167.279    208.046
         TR   0.174E+29             1481.254      4.968     45.441
         TOT                       28793.3527   172.2475   253.4878  1060.5930

       T/K    H(0)-H(T)+PV         H(T)/Eh          T*S/Eh         G(T)/Eh
   ------------------------------------------------------------------------
    298.15    0.458851E-01    0.766297E+00    0.120440E+00    0.645857E+00
   ------------------------------------------------------------------------

         :::::::::::::::::::::::::::::::::::::::::::::::::::::
         ::                  THERMODYNAMIC                  ::
         :::::::::::::::::::::::::::::::::::::::::::::::::::::
         :: total free energy        -134.312057569477 Eh   ::
         ::.................................................::
         :: total energy             -134.957914483533 Eh   ::
         :: zero point energy           0.720412021860 Eh   ::
         :: G(RRHO) w/o ZPVE           -0.074555107805 Eh   ::
         :: G(RRHO) contrib.            0.645856914055 Eh   ::
         :::::::::::::::::::::::::::::::::::::::::::::::::::::

           -------------------------------------------------
          | TOTAL ENERGY             -134.957914483533 Eh   |
          | TOTAL ENTHALPY           -134.191617333454 Eh   |
          | TOTAL FREE ENERGY        -134.312057569477 Eh   |
          | GRADIENT NORM               0.000134947853 Eh/α |
           -------------------------------------------------

 * finished run on 2025/07/19 at 00:38:17.387
