   * xtb version 6.7.1 (edcfbbe) compiled by 'albert@albert-system' on 2024-07-22

   ID    Z sym.   atoms
    1    6 C      1-54
    2    1 H      55-92

          program call               : xtb data2507/gas/PABP/PABP_gas_S0_finalOpt.xtbopt.xyz --gfn 2 --spinpol --tblite --uhf 2 --ohess vtight --parallel 40 --molden --ceasefiles --namespace data2507/gas/PABP/PABP_gas_T1_preOpt
 * total energy  :  -134.9486603 Eh     change       -0.8529619E-07 Eh
 * total energy  :  -134.9518652 Eh     change       -0.3204879E-02 Eh
 * total energy  :  -134.9526074 Eh     change       -0.7421769E-03 Eh
 * total energy  :  -134.9526263 Eh     change       -0.1889630E-04 Eh
 * total energy  :  -134.9527091 Eh     change       -0.8281860E-04 Eh
 * total energy  :  -134.9527421 Eh     change       -0.3296952E-04 Eh
 * total energy  :  -134.9527861 Eh     change       -0.4399734E-04 Eh
 * total energy  :  -134.9528458 Eh     change       -0.5970132E-04 Eh
 * total energy  :  -134.9529237 Eh     change       -0.7795389E-04 Eh
 * total energy  :  -134.9529980 Eh     change       -0.7428397E-04 Eh
 * total energy  :  -134.9534221 Eh     change       -0.8371325E-07 Eh
 * total energy  :  -134.9534225 Eh     change       -0.4112803E-06 Eh
 * total energy  :  -134.9534228 Eh     change       -0.2567531E-06 Eh
 * total energy  :  -134.9534230 Eh     change       -0.1463027E-06 Eh
 * total energy  :  -134.9534232 Eh     change       -0.2937433E-06 Eh
 * total energy  :  -134.9534235 Eh     change       -0.2266281E-06 Eh
 * total energy  :  -134.9534237 Eh     change       -0.2063198E-06 Eh
 * total energy  :  -134.9534238 Eh     change       -0.1157742E-06 Eh
 * total energy  :  -134.9534239 Eh     change       -0.9318964E-07 Eh
   *** GEOMETRY OPTIMIZATION CONVERGED AFTER 152 ITERATIONS ***

 final structure:
================
92
 xtb: 6.7.1 (edcfbbe)
C           -0.69729932038434       -1.64793241338329       -1.83947398980733
C           -1.44075806468863       -0.75973758491032       -0.88747276556588
C           -2.82518633645474       -0.74351500962073       -0.86613587982019
C           -3.53269408437001        0.09091981965151       -0.00303956466980
C           -5.00292207248021        0.08676390648603       -0.00039856306902
C           -5.70099916300898       -1.08904555297460        0.36560914143687
C           -5.02527222220530       -2.25172479538254        0.78169793470177
C           -5.70993617823075       -3.40569015808369        1.09648045715178
C           -7.09772920466239       -3.44063053937326        1.00114268251812
C           -7.79337288056971       -2.30947619949965        0.63191056206248
C           -7.12898299587771       -1.10316096373264        0.34015230079739
C           -7.83743571249962        0.07563488929151        0.00432947244889
C           -9.30817931032833        0.06991939757439        0.00626524471620
C          -10.01620633000345       -0.16685711943738        1.18366384336173
C          -11.39844588318715       -0.16735087581466        1.18464048878917
C          -12.09672772681187        0.05980858635458        0.00997844109548
C          -11.40325353792105        0.29195223426633       -1.16655545841501
C          -10.02105028804344        0.30146601067986       -1.16925142002895
C           -7.13923504400480        1.26010745207015       -0.33310660528129
C           -7.81389566634087        2.46132398308660       -0.62212307485161
C           -7.12807764354217        3.59818863564978       -0.99230541551287
C           -5.74030287396200        3.57434346264608       -1.09126864577058
C           -5.04562835634229        2.42544943138580       -0.77976295207286
C           -5.71126491059285        1.25724705515634       -0.36305482751145
C           -2.81990517030230        0.92389418206566        0.85590938214673
C           -1.43896211524586        0.90460825779082        0.85394433694042
C           -0.73982573228590        0.07070830574064       -0.00888792485987
C            0.74053235535769        0.06924752914772        0.00528576138636
C            1.44143105348516        0.90187767812209       -0.85738174557812
C            2.82238790669511        0.91895895135473       -0.85869275332689
C            3.53353690323925        0.08521261533018        0.00094303037360
C            5.00368217513616        0.07989248828963       -0.00043195299249
C            5.71235118448699        1.25104266468411        0.35955946331725
C            5.04706214440401        2.42030092747439        0.77390556223315
C            5.74193935837705        3.56987059782604        1.08226753399712
C            7.12967856907814        3.59345436497351        0.98231597238443
C            7.81519569864817        2.45560630430323        0.61476924155971
C            7.14030560941599        1.25363328631000        0.32932638409889
C            7.83826298138010        0.06808144603949       -0.00469614289781
C            9.30898124224239        0.06215044431198       -0.00741208101676
C           10.01617697763090       -0.17902669006982       -1.18442430779420
C           11.39841826145311       -0.17971862870209       -1.18636969919487
C           12.09755757481812        0.05164835729846       -0.01303047904264
C           11.40491571202139        0.28817468038332        1.16312375978170
C           10.02270636011989        0.29787167233395        1.16675678917530
C            7.12952343212860       -1.11165025855581       -0.33653895922324
C            7.79372995196266       -2.31916013035086       -0.62384192751834
C            7.09799621529898       -3.45133949252284       -0.98958029117545
C            5.71025749764873       -3.41619525512027       -1.08610392319916
C            5.02578241923436       -2.26098796681857       -0.77564951784575
C            5.70155710521149       -1.09720634006597       -0.36266811531074
C            2.82425430091307       -0.74820481709729        0.86355798951074
C            1.43976349846416       -0.76246278661093        0.88398215455555
C            0.69473579115809       -1.64885781189377        1.83645267693997
H           -0.12958191037261       -1.04811980095271       -2.55041559467901
H            0.01382836448676       -2.27709206696257       -1.30547291715411
H           -1.38465006928527       -2.28407236563029       -2.39171467417170
H           -3.37655973875102       -1.37918723241183       -1.54539768564360
H           -3.94861762104559       -2.23173647761455        0.85780671709093
H           -5.16757686993154       -4.28531626741134        1.41074872940348
H           -7.63193956530424       -4.35264800214280        1.22333402702015
H           -8.86993844950149       -2.34513059561526        0.56026926642543
H           -9.47141022550466       -0.33410405806401        2.10198107149889
H          -11.93401872819247       -0.34491681709274        2.10609353069583
H          -13.17671596985975        0.05598040097080        0.01143943428150
H          -11.94255023711299        0.46571068242538       -2.08656063640792
H           -9.47993095553084        0.47278380711396       -2.08899245785964
H           -8.89050289925251        2.48855035069121       -0.54734496377648
H           -7.67009165989316        4.50615610177583       -1.21215417238122
H           -5.20564782134247        4.45858706856526       -1.40560950135212
H           -3.96902100608758        2.41418064939727       -0.85815725638523
H           -3.35514317697047        1.56971509613411        1.53680965083845
H           -0.88805104713177        1.54542561678832        1.52819201746121
H            0.89184290650075        1.54356402109290       -1.53189006741740
H            3.35892943727285        1.56374943523206       -1.53953826129093
H            3.97050972313304        2.40930297262255        0.85307530144333
H            5.20756573848052        4.45490967709390        1.39488546359419
H            7.67179538040117        4.50201647126076        1.19946740815534
H            8.89176788183349        2.48252633449919        0.53935761217489
H            9.47070370682762       -0.34955007100695       -2.10172963845029
H           11.93329452325207       -0.36075968348944       -2.10754214497352
H           13.17754558437625        0.04766602871461       -0.01522691163319
H           11.94485898627963        0.46523232928262        2.08211453006557
H            9.48224943303637        0.47254089859118        2.08624871261465
H            8.87024737561931       -2.35484468472730       -0.55144481916119
H            7.63203644536738       -4.36432094173755       -1.20822554490231
H            5.16784924193697       -4.29668666826857       -1.39789480996907
H            3.94920344740664       -2.24091529001921       -0.85275735743893
H            3.37415030657949       -1.38449138735354        1.54343604373753
H            1.37941489520372       -2.29866975788991        2.37598320957321
H            0.14339929891733       -1.04729944459387        2.55883068603440
H           -0.03093912167650       -2.26358948490105        1.30538130521882

 projected vibrational frequencies (cm⁻¹)
eigval :       -0.00    -0.00    -0.00     0.00     0.00     0.00
eigval :        8.34     8.62     9.28    17.05    23.47    34.23
eigval :       41.91    44.30    51.69    52.87    59.31    64.42
eigval :       66.55    70.61    75.50    79.07    79.34    82.40
eigval :       87.39    88.99   115.69   116.27   166.32   168.38
eigval :      174.73   182.79   197.51   197.67   200.56   222.62
eigval :      222.86   224.82   227.14   228.57   231.33   247.70
eigval :      248.06   295.14   330.49   345.72   369.03   369.77
eigval :      370.89   371.30   380.07   381.72   393.58   397.57
eigval :      404.81   409.64   411.28   415.09   422.19   429.18
eigval :      433.18   439.85   455.47   465.77   466.77   466.88
eigval :      473.65   484.20   512.65   541.23   551.27   556.23
eigval :      573.72   574.70   584.10   584.35   584.42   590.68
eigval :      591.00   596.74   610.78   612.28   616.27   625.08
eigval :      625.78   648.15   665.09   674.92   675.22   680.19
eigval :      680.59   699.64   701.93   702.00   715.66   725.60
eigval :      726.06   735.79   756.45   756.64   758.15   758.23
eigval :      763.98   764.11   826.55   828.18   834.02   834.49
eigval :      854.36   854.55   855.59   855.72   880.74   880.79
eigval :      890.25   890.63   896.05   896.14   897.84   897.93
eigval :      900.81   901.00   907.33   907.42   910.16   910.37
eigval :      911.88   912.40   912.60   912.68   922.99   923.62
eigval :      931.74   931.76   932.82   932.84   942.67   942.84
eigval :      984.34   987.68   994.33   998.27   998.79  1022.36
eigval :     1022.97  1030.54  1034.06  1083.02  1083.06  1098.28
eigval :     1098.66  1098.79  1098.86  1118.92  1118.94  1127.51
eigval :     1128.49  1128.56  1138.12  1139.94  1161.88  1181.69
eigval :     1181.70  1181.94  1182.35  1182.44  1184.41  1186.42
eigval :     1187.92  1194.74  1194.98  1208.81  1210.92  1222.17
eigval :     1230.54  1230.61  1240.38  1256.26  1256.94  1257.43
eigval :     1257.58  1279.92  1279.92  1291.61  1305.66  1306.61
eigval :     1312.37  1312.40  1319.66  1319.85  1329.04  1333.43
eigval :     1349.42  1349.46  1349.79  1349.98  1359.61  1369.51
eigval :     1378.75  1402.54  1403.17  1404.58  1406.24  1407.02
eigval :     1411.75  1416.44  1418.21  1420.21  1420.34  1425.11
eigval :     1428.97  1428.98  1468.27  1468.76  1472.93  1476.92
eigval :     1479.68  1481.62  1487.82  1488.33  1504.98  1507.32
eigval :     1509.07  1509.15  1533.42  1533.59  1544.27  1551.77
eigval :     1552.52  1556.38  1556.57  1572.08  1572.08  1591.81
eigval :     1592.08  1594.51  1594.79  3002.54  3003.13  3019.47
eigval :     3019.84  3041.68  3042.18  3068.82  3069.13  3069.52
eigval :     3070.11  3070.57  3070.67  3071.42  3071.48  3074.16
eigval :     3074.26  3074.61  3074.71  3079.40  3079.49  3082.06
eigval :     3082.48  3082.58  3082.80  3083.67  3083.73  3083.89
eigval :     3084.11  3090.49  3091.83  3092.28  3092.57  3092.63
eigval :     3093.01  3093.24  3095.90  3095.98  3096.63  3347.88

   temp. (K)  partition function   enthalpy   heat capacity  entropy
                                   cal/mol     cal/K/mol   cal/K/mol   J/K/mol
 298.15  VIB  0.290E+22            26384.556    164.459    167.469
         ROT  0.708E+08              888.752      2.981     38.900
         INT  0.205E+30            27273.308    167.440    206.369
         TR   0.174E+29             1481.254      4.968     45.441
         TOT                       28754.5622   172.4085   251.8103  1053.5745

       T/K    H(0)-H(T)+PV         H(T)/Eh          T*S/Eh         G(T)/Eh
   ------------------------------------------------------------------------
    298.15    0.458233E-01    0.770408E+00    0.119643E+00    0.650765E+00
   ------------------------------------------------------------------------

         :::::::::::::::::::::::::::::::::::::::::::::::::::::
         ::                  THERMODYNAMIC                  ::
         :::::::::::::::::::::::::::::::::::::::::::::::::::::
         :: total free energy        -134.302659373306 Eh   ::
         ::.................................................::
         :: total energy             -134.953423901333 Eh   ::
         :: zero point energy           0.724584435182 Eh   ::
         :: G(RRHO) w/o ZPVE           -0.073819907156 Eh   ::
         :: G(RRHO) contrib.            0.650764528026 Eh   ::
         :::::::::::::::::::::::::::::::::::::::::::::::::::::

           -------------------------------------------------
          | TOTAL ENERGY             -134.953423901333 Eh   |
          | TOTAL ENTHALPY           -134.183016154521 Eh   |
          | TOTAL FREE ENERGY        -134.302659373306 Eh   |
          | GRADIENT NORM               0.000068750192 Eh/α |
           -------------------------------------------------

 * finished run on 2025/07/19 at 00:30:54.335
