   * xtb version 6.7.1 (edcfbbe) compiled by 'albert@albert-system' on 2024-07-22

   ID    Z sym.   atoms
    1    6 C      1-54
    2    1 H      55-92

          program call               : xtb data2507/gas/PABP/PABP.xyz --gfn 2 --ohess vtight --parallel 40 --molden --ceasefiles --namespace data2507/gas/PABP/PABP_gas_S0_preOpt
          :  Hamiltonian                  GFN2-xTB          :
 * total energy  :  -134.9949973 Eh     change       -0.5944116E-09 Eh
 * total energy  :  -135.0143617 Eh     change       -0.1936434E-01 Eh
 * total energy  :  -135.0196741 Eh     change       -0.5312384E-02 Eh
 * total energy  :  -135.0203064 Eh     change       -0.6323013E-03 Eh
 * total energy  :  -135.0206439 Eh     change       -0.3375734E-03 Eh
 * total energy  :  -135.0207686 Eh     change       -0.1246321E-03 Eh
 * total energy  :  -135.0208531 Eh     change       -0.8448727E-04 Eh
 * total energy  :  -135.0209116 Eh     change       -0.5855232E-04 Eh
 * total energy  :  -135.0209477 Eh     change       -0.3611167E-04 Eh
 * total energy  :  -135.0209552 Eh     change       -0.7476940E-05 Eh
 * total energy  :  -135.0217334 Eh     change       -0.2349916E-06 Eh
 * total energy  :  -135.0217337 Eh     change       -0.2564117E-06 Eh
 * total energy  :  -135.0217340 Eh     change       -0.2750653E-06 Eh
 * total energy  :  -135.0217318 Eh     change        0.2112004E-05 Eh
 * total energy  :  -135.0217337 Eh     change       -0.1825662E-05 Eh
 * total energy  :  -135.0217337 Eh     change       -0.8195684E-09 Eh
 * total energy  :  -135.0217342 Eh     change       -0.5584309E-06 Eh
 * total energy  :  -135.0217344 Eh     change       -0.1402775E-06 Eh
 * total energy  :  -135.0217344 Eh     change       -0.2858954E-07 Eh
   *** GEOMETRY OPTIMIZATION CONVERGED AFTER 157 ITERATIONS ***

 final structure:
================
92
 xtb: 6.7.1 (edcfbbe)
C           -0.70289345040000        1.53193265153506        1.91664010449721
C           -1.44222569972669        0.68260189401019        0.92669560515157
C           -2.82785770863083        0.65752273850593        0.90960963810489
C           -3.52813575637664       -0.12228956154646       -0.00388885255488
C           -5.00679350500169       -0.12533752967689       -0.00466071721559
C           -5.70386623714753        0.52224478938390       -1.03361011380029
C           -5.02648081169018        1.21073814359383       -2.07424495575675
C           -5.71228041559076        1.84948595155258       -3.06053757415568
C           -7.12159112771091        1.85009184745464       -3.06065058874269
C           -7.80902152929265        1.21086550987928       -2.07562314622469
C           -7.13345947145882        0.52053561776502       -1.03491148590633
C           -7.83050571148486       -0.13165565348994       -0.00831431034047
C           -9.30934543729807       -0.13551201651077       -0.01049598296843
C          -10.01129383027696       -0.88921197466264       -0.94586667639336
C          -11.39443873476521       -0.89387489117889       -0.94559093151513
C          -12.09253311702778       -0.14319217863524       -0.01448104587037
C          -11.40127560040258        0.61136513954637        0.91859110567564
C          -10.01813362833695        0.61432820193347        0.92281999237594
C           -7.13314513663149       -0.78027315621226        1.02035189690393
C           -7.80825043769731       -1.47355019047639        2.05939412860252
C           -7.12041674335640       -2.10897703314947        3.04660219448581
C           -5.71112927151061       -2.10134377696919        3.05052088599780
C           -5.02563665421463       -1.45986222137499        2.06579518027392
C           -5.70355207582349       -0.77539397282861        1.02287303572919
C           -2.81857703963434       -0.89512389762285       -0.91553552200492
C           -1.43689571312027       -0.88081718732989       -0.90580666615989
C           -0.74041422646713       -0.09799521536310        0.00524992412727
C            0.74039466011444       -0.09789323749897       -0.00543731567490
C            1.43683831319942       -0.87849983440730        0.90755299797394
C            2.81851116211425       -0.89255174340288        0.91758157886945
C            3.52811863757966       -0.12169033801470        0.00429632826721
C            5.00676711829855       -0.12495720002483        0.00519424436777
C            5.70338850215733       -0.77733701833559       -1.02097109914884
C            5.02537425122803       -1.46357450430749       -2.06266730408989
C            5.71077163844639       -2.10720622196632       -3.04605553009791
C            7.12005294484252       -2.11540579191552       -3.04190574108049
C            7.80797550745013       -1.47831615522990       -2.05583407839144
C            7.13296904468827       -0.78274831997493       -1.01826024091502
C            7.83046413701677       -0.13234415428878        0.00919380100437
C            9.30931040028967       -0.13630899875861        0.01102718303511
C           10.01158521795600       -0.88851184693740        0.94730288683054
C           11.39474593237798       -0.89378090594990        0.94622069616997
C           12.09248697269035       -0.14457189013994        0.01364848668229
C           11.40095291319639        0.60839045379378       -0.92045478337054
C           10.01782162850543        0.61184160084695       -0.92392064953370
C            7.13357841546415        0.52198951337352        1.03449898386986
C            7.80930523236583        1.21368032241728        2.07419545066281
C            7.12200337239372        1.85503568609146        3.05792604181875
C            5.71268870079080        1.85568734002714        3.05721163040439
C            5.02675429594297        1.21534500655810        2.07204278395770
C            5.70397912962287        0.52436412804782        1.03295334679041
C            2.82788505221380        0.65592650300673       -0.91110314643707
C            1.44224550273480        0.68072310332522       -0.92852148663641
C            0.70295449562667        1.52761526473328       -1.92058508851429
H           -0.19800771503953        0.90464956054295        2.65112199533734
H            0.05992294529830        2.12860528619301        1.41821602789374
H           -1.38544201141311        2.19618575857701        2.44114120502771
H           -3.38214747640915        1.26088159272529        1.61553162138526
H           -3.94654546582777        1.22292075959137       -2.06420041805613
H           -5.18298022557365        2.36901029226228       -3.84604822257367
H           -7.65030223190594        2.37079028801438       -3.84572830817919
H           -8.88890875682499        1.22545859032139       -2.06759779305094
H           -9.46395947839026       -1.47598322510496       -1.66994665915725
H          -11.92956399651357       -1.48503282317668       -1.67463472761425
H          -13.17262448183843       -0.14621701752616       -0.01599159521483
H          -11.94175425491778        1.19950509868431        1.64613501720655
H           -9.47615266506224        1.20407823493243        1.64851833789978
H           -8.88802344855741       -1.49357061825965        2.04829613504734
H           -7.64878425168868       -2.63207516323579        3.83031917745016
H           -5.18155606991776       -2.61797254766178        3.83773008561168
H           -3.94570759474391       -1.46722019976735        2.05834971902988
H           -3.35408257434410       -1.50820119239942       -1.62591830575486
H           -0.88456748439723       -1.48733069668697       -1.60986135709641
H            0.88446625466876       -1.48348987883117        1.61288154238713
H            3.35398893301114       -1.50392769676840        1.62944864030789
H            3.94544377883204       -1.47049892436937       -2.05540701841153
H            5.18111562648498       -2.62511628409009       -3.83236423056248
H            7.64835269519458       -2.64023184648773       -3.82451038738808
H            8.88773596941119       -1.49874642072071       -2.04452011101674
H            9.46450249418792       -1.47456381456980        1.67222112011394
H           11.93012619682403       -1.48362798035536        1.67607911348332
H           13.17258700616254       -0.14788210844805        0.01445183428539
H           11.94119742279797        1.19487903226036       -1.64949914766027
H            9.47559570583841        1.20075777185289       -1.65012007817104
H            8.88920801870569        1.22753679098220        2.06644427554055
H            7.65081962538457        2.37680434263877        3.84222724434520
H            5.18350900503139        2.37700551194724        3.84161246299251
H            3.94682382053583        1.22803753478198        2.06176710046197
H            3.38220387569344        1.25776623561717       -1.61829954233304
H           -0.05988845249071        2.12551207112667       -1.42366830656806
H            1.38552243362285        2.19058056857982       -2.44668866735355
H            0.19810371989433        0.89852432771888       -2.65354287875638

          :  Hamiltonian                  GFN2-xTB          :
         :: gradient norm              0.000187997661 Eh/a0 ::
         :: HOMO-LUMO gap              2.137499654596 eV    ::
         :: SCC energy              -137.666799551965 Eh    ::
         :: -> dispersion             -0.132018282904 Eh    ::
         :: repulsion energy           2.645065156209 Eh    ::

    * Orbital Energies and Occupations

         #    Occupation            Energy/Eh            Energy/eV
      -------------------------------------------------------------
         1        2.0000           -0.6513986             -17.7255
       ...           ...                  ...                  ...
       115        2.0000           -0.4021930             -10.9442
       116        2.0000           -0.3996411             -10.8748
       117        2.0000           -0.3981820             -10.8351
       118        2.0000           -0.3969159             -10.8006
       119        2.0000           -0.3960933             -10.7782
       120        2.0000           -0.3958510             -10.7717
       121        2.0000           -0.3958261             -10.7710
       122        2.0000           -0.3953141             -10.7570
       123        2.0000           -0.3941813             -10.7262
       124        2.0000           -0.3876238             -10.5478
       125        2.0000           -0.3842797             -10.4568
       126        2.0000           -0.3549402              -9.6584
       127        2.0000           -0.3548073              -9.6548 (HOMO)
       128                         -0.2762557              -7.5173 (LUMO)
       129                         -0.2762441              -7.5170
       130                         -0.2278860              -6.2011
       131                         -0.2278801              -6.2009
       132                         -0.2248804              -6.1193
       133                         -0.2224249              -6.0525
       134                         -0.2224031              -6.0519
       135                         -0.2221203              -6.0442
       136                         -0.2221155              -6.0441
       137                         -0.2188643              -5.9556
       138                         -0.2183292              -5.9410
       ...                                ...                  ...
       254                          0.7191569              19.5693
      -------------------------------------------------------------
                  HL-Gap            0.0785517 Eh            2.1375 eV

     #   Z          covCN         q      C6AA      α(0)
     1   6 C        3.758    -0.104    22.542     6.769
     2   6 C        2.969     0.011    27.758     8.642
     3   6 C        2.929    -0.044    29.088     8.845
     4   6 C        2.976     0.011    27.758     8.642
     5   6 C        2.978    -0.006    28.159     8.704
     6   6 C        2.984     0.006    27.885     8.662
     7   6 C        2.917    -0.034    28.857     8.809
     8   6 C        2.914    -0.031    28.766     8.795
     9   6 C        2.914    -0.031    28.762     8.794
    10   6 C        2.917    -0.035    28.863     8.810
    11   6 C        2.984     0.006    27.883     8.662
    12   6 C        2.977    -0.007    28.193     8.710
    13   6 C        2.977     0.016    27.645     8.625
    14   6 C        2.924    -0.032    28.800     8.801
    15   6 C        2.919    -0.030    28.746     8.792
    16   6 C        2.920    -0.032    28.796     8.800
    17   6 C        2.919    -0.030    28.747     8.792
    18   6 C        2.924    -0.032    28.801     8.801
    19   6 C        2.984     0.006    27.883     8.662
    20   6 C        2.917    -0.035    28.863     8.810
    21   6 C        2.914    -0.030    28.760     8.794
    22   6 C        2.914    -0.031    28.763     8.794
    23   6 C        2.917    -0.034    28.854     8.809
    24   6 C        2.984     0.006    27.883     8.662
    25   6 C        2.923    -0.038    28.954     8.824
    26   6 C        2.923    -0.035    28.879     8.813
    27   6 C        2.983     0.001    28.001     8.680
    28   6 C        2.983     0.001    28.001     8.680
    29   6 C        2.923    -0.035    28.879     8.813
    30   6 C        2.923    -0.038    28.954     8.824
    31   6 C        2.976     0.011    27.758     8.642
    32   6 C        2.978    -0.006    28.159     8.704
    33   6 C        2.984     0.006    27.883     8.662
    34   6 C        2.917    -0.034    28.855     8.809
    35   6 C        2.914    -0.031    28.763     8.794
    36   6 C        2.914    -0.030    28.760     8.794
    37   6 C        2.917    -0.035    28.863     8.810
    38   6 C        2.984     0.006    27.883     8.662
    39   6 C        2.977    -0.007    28.193     8.710
    40   6 C        2.977     0.016    27.644     8.625
    41   6 C        2.924    -0.032    28.800     8.801
    42   6 C        2.919    -0.030    28.746     8.792
    43   6 C        2.920    -0.032    28.796     8.800
    44   6 C        2.919    -0.030    28.747     8.792
    45   6 C        2.924    -0.032    28.801     8.801
    46   6 C        2.984     0.006    27.883     8.662
    47   6 C        2.917    -0.035    28.863     8.810
    48   6 C        2.914    -0.031    28.762     8.794
    49   6 C        2.914    -0.031    28.766     8.795
    50   6 C        2.917    -0.034    28.857     8.809
    51   6 C        2.984     0.006    27.885     8.662
    52   6 C        2.929    -0.044    29.088     8.845
    53   6 C        2.969     0.011    27.758     8.642
    54   6 C        3.758    -0.104    22.542     6.769
    55   1 H        0.925     0.045     2.382     2.414
    56   1 H        0.925     0.042     2.420     2.433
    57   1 H        0.925     0.039     2.456     2.451
    58   1 H        0.925     0.028     2.610     2.526
    59   1 H        0.926     0.031     2.576     2.510
    60   1 H        0.926     0.027     2.626     2.534
    61   1 H        0.926     0.027     2.624     2.533
    62   1 H        0.926     0.031     2.578     2.511
    63   1 H        0.926     0.029     2.597     2.520
    64   1 H        0.926     0.029     2.599     2.521
    65   1 H        0.926     0.028     2.608     2.525
    66   1 H        0.926     0.029     2.599     2.521
    67   1 H        0.926     0.029     2.598     2.521
    68   1 H        0.926     0.031     2.578     2.511
    69   1 H        0.926     0.027     2.623     2.533
    70   1 H        0.926     0.027     2.623     2.533
    71   1 H        0.926     0.032     2.565     2.504
    72   1 H        0.926     0.028     2.619     2.531
    73   1 H        0.926     0.027     2.633     2.538
    74   1 H        0.926     0.027     2.633     2.538
    75   1 H        0.926     0.028     2.619     2.531
    76   1 H        0.926     0.032     2.565     2.504
    77   1 H        0.926     0.027     2.623     2.533
    78   1 H        0.926     0.027     2.623     2.533
    79   1 H        0.926     0.031     2.578     2.511
    80   1 H        0.926     0.029     2.597     2.520
    81   1 H        0.926     0.029     2.598     2.521
    82   1 H        0.926     0.028     2.608     2.525
    83   1 H        0.926     0.029     2.599     2.521
    84   1 H        0.926     0.029     2.598     2.521
    85   1 H        0.926     0.031     2.577     2.511
    86   1 H        0.926     0.027     2.624     2.533
    87   1 H        0.926     0.027     2.626     2.534
    88   1 H        0.926     0.031     2.576     2.510
    89   1 H        0.925     0.028     2.610     2.526
    90   1 H        0.925     0.042     2.420     2.433
    91   1 H        0.925     0.039     2.456     2.451
    92   1 H        0.925     0.045     2.382     2.414

molecular dipole:
                 x           y           z       tot (Debye)
 q only:        0.000       0.203      -0.000
   full:        0.000       0.187      -0.000       0.474

 projected vibrational frequencies (cm⁻¹)
eigval :       -0.00    -0.00     0.00     0.00     0.00     0.00
eigval :        6.28     8.63    10.94    19.23    20.26    23.14
eigval :       33.24    35.49    38.61    49.80    55.85    66.36
eigval :       69.56    74.82    79.51    80.61    81.69    83.75
eigval :       84.12    89.70   107.19   107.97   163.03   166.04
eigval :      176.08   179.02   197.03   202.67   202.72   212.08
eigval :      212.09   219.27   223.06   224.46   231.49   245.11
eigval :      247.55   289.72   338.02   345.25   368.50   368.99
eigval :      372.96   380.94   382.35   391.61   394.47   398.68
eigval :      400.26   408.88   409.94   426.47   428.79   437.28
eigval :      447.02   447.34   458.87   458.90   462.99   467.98
eigval :      475.71   490.88   515.50   536.22   554.86   556.26
eigval :      579.09   579.46   586.36   586.46   588.93   598.10
eigval :      599.45   600.60   613.80   616.08   624.62   627.91
eigval :      635.66   650.43   669.00   675.07   676.01   692.43
eigval :      692.60   700.41   702.88   705.16   716.60   733.19
eigval :      739.73   741.80   758.67   759.00   774.34   774.50
eigval :      775.99   776.00   829.51   830.03   833.05   833.54
eigval :      874.21   874.25   875.30   875.32   881.01   881.02
eigval :      889.27   889.71   896.43   896.52   904.58   904.66
eigval :      911.75   911.78   917.50   917.58   918.18   918.21
eigval :      921.01   921.65   927.67   927.67   927.77   927.80
eigval :      931.21   931.21   932.12   932.15   933.60   933.62
eigval :      983.98   987.97   995.53  1000.00  1000.27  1022.66
eigval :     1023.28  1031.29  1033.72  1081.03  1081.04  1081.80
eigval :     1081.85  1083.37  1083.39  1118.33  1118.35  1129.32
eigval :     1135.32  1135.33  1145.16  1146.41  1160.60  1181.30
eigval :     1181.33  1182.10  1182.12  1183.01  1183.94  1188.25
eigval :     1191.32  1195.58  1195.61  1215.57  1216.65  1226.79
eigval :     1228.61  1228.62  1243.12  1255.29  1256.25  1258.69
eigval :     1261.93  1264.82  1265.19  1281.31  1281.51  1297.55
eigval :     1307.60  1307.69  1312.34  1312.35  1326.28  1334.00
eigval :     1350.56  1350.58  1370.01  1377.55  1385.18  1385.19
eigval :     1405.03  1409.85  1412.14  1415.02  1421.30  1421.88
eigval :     1427.97  1427.99  1430.71  1430.73  1444.71  1446.15
eigval :     1465.78  1472.90  1477.91  1479.79  1480.13  1488.14
eigval :     1489.79  1491.64  1495.35  1514.11  1527.22  1527.23
eigval :     1531.59  1531.63  1543.45  1543.50  1560.75  1563.88
eigval :     1580.51  1581.22  1599.81  1599.82  1602.71  1602.80
eigval :     1608.84  1608.87  1623.11  1623.14  3001.94  3002.20
eigval :     3020.23  3020.55  3041.24  3041.31  3068.75  3068.83
eigval :     3069.24  3069.81  3070.43  3070.47  3071.40  3071.43
eigval :     3072.13  3072.15  3072.34  3072.35  3078.45  3078.56
eigval :     3078.99  3079.02  3079.50  3079.55  3083.53  3083.66
eigval :     3083.76  3083.96  3088.78  3088.81  3089.40  3089.53
eigval :     3091.46  3091.48  3092.78  3092.83  3093.93  3093.94

   temp. (K)  partition function   enthalpy   heat capacity  entropy
                                   cal/mol     cal/K/mol   cal/K/mol   J/K/mol
 298.15  VIB  0.982E+22            26365.896    162.869    167.626
         ROT  0.705E+08              888.752      2.981     38.893
         INT  0.693E+30            27254.648    165.850    206.519
         TR   0.174E+29             1481.254      4.968     45.441
         TOT                       28735.9023   170.8179   251.9608  1054.2040

       T/K    H(0)-H(T)+PV         H(T)/Eh          T*S/Eh         G(T)/Eh
   ------------------------------------------------------------------------
    298.15    0.457936E-01    0.768745E+00    0.119715E+00    0.649030E+00
   ------------------------------------------------------------------------

         :::::::::::::::::::::::::::::::::::::::::::::::::::::
         ::                  THERMODYNAMIC                  ::
         :::::::::::::::::::::::::::::::::::::::::::::::::::::
         :: total free energy        -134.372704355285 Eh   ::
         ::.................................................::
         :: total energy             -135.021734395700 Eh   ::
         :: zero point energy           0.722951175793 Eh   ::
         :: G(RRHO) w/o ZPVE           -0.073921135378 Eh   ::
         :: G(RRHO) contrib.            0.649030040415 Eh   ::
         :::::::::::::::::::::::::::::::::::::::::::::::::::::

           -------------------------------------------------
          | TOTAL ENERGY             -135.021734395700 Eh   |
          | TOTAL ENTHALPY           -134.252989644679 Eh   |
          | TOTAL FREE ENERGY        -134.372704355285 Eh   |
          | GRADIENT NORM               0.000187983119 Eh/α |
          | HOMO-LUMO GAP               2.137499672780 eV   |
           -------------------------------------------------

 * finished run on 2025/07/19 at 00:24:53.066
