   * xtb version 6.7.1 (edcfbbe) compiled by 'albert@albert-system' on 2024-07-22

   ID    Z sym.   atoms
    1    6 C      1-16, 18-32, 36-38
    2    7 N      17, 33, 35
    3   16 S      34
    4    1 H      39-61

          program call               : xtb data2507/toluene/TPA-NZP/TPA-NZP_toluene_S0_crest.xyz --gfn 2 --gbsa toluene --ohess vtight --parallel 40 --molden --ceasefiles --namespace data2507/toluene/TPA-NZP/TPA-NZP_toluene_S0_finalOpt
      * Solvation model:               GBSA
        Solvent                        toluene
        Solvent mass                       9.2140E+01 g/mol
          :  Hamiltonian                  GFN2-xTB          :
 * total energy  :   -96.5886430 Eh     change       -0.4084839E-08 Eh
 * total energy  :   -96.5886850 Eh     change       -0.4205176E-04 Eh
 * total energy  :   -96.5887130 Eh     change       -0.2799431E-04 Eh
 * total energy  :   -96.5887255 Eh     change       -0.1248476E-04 Eh
 * total energy  :   -96.5887365 Eh     change       -0.1102175E-04 Eh
 * total energy  :   -96.5887440 Eh     change       -0.7427647E-05 Eh
 * total energy  :   -96.5887488 Eh     change       -0.4860279E-05 Eh
 * total energy  :   -96.5887525 Eh     change       -0.3704529E-05 Eh
 * total energy  :   -96.5887567 Eh     change       -0.4112511E-05 Eh
 * total energy  :   -96.5887615 Eh     change       -0.4867840E-05 Eh
 * total energy  :   -96.5887796 Eh     change       -0.1837118E-06 Eh
 * total energy  :   -96.5887799 Eh     change       -0.2510173E-06 Eh
 * total energy  :   -96.5887802 Eh     change       -0.3059125E-06 Eh
 * total energy  :   -96.5887805 Eh     change       -0.2694248E-06 Eh
 * total energy  :   -96.5887807 Eh     change       -0.1975373E-06 Eh
 * total energy  :   -96.5887808 Eh     change       -0.1582269E-06 Eh
 * total energy  :   -96.5887810 Eh     change       -0.1462387E-06 Eh
 * total energy  :   -96.5887811 Eh     change       -0.1170462E-06 Eh
 * total energy  :   -96.5887811 Eh     change       -0.6565512E-07 Eh
   *** GEOMETRY OPTIMIZATION CONVERGED AFTER 39 ITERATIONS ***

 final structure:
================
61
 xtb: 6.7.1 (edcfbbe)
C            8.44303135790814        0.09333095279256        0.58785361986171
C            7.67223168382788       -0.78190144626668        1.33547782566004
C            6.30709216450154       -0.85744425311874        1.12844873778497
C            5.69258874418752       -0.05522229086025        0.16825129595079
C            4.23741253780470       -0.10799029192540       -0.03606284370691
C            3.53595305296491       -1.29434068740530       -0.31111924068894
C            4.23505753863096       -2.50694167998855       -0.55777121808116
C            3.57997600833992       -3.66319650021652       -0.84920333585810
C            2.17353228883251       -3.67757417207743       -0.93792833178005
C            1.46313775414952       -2.53646129752596       -0.72666228153531
C            2.09977959483663       -1.31049155093710       -0.39392674565674
C            1.34390357629580       -0.14030393167690       -0.19815274509888
C           -0.12053876491144       -0.12170503720121       -0.15005513215461
C           -0.82431853159777       -0.98228981287307        0.69424224200747
C           -2.19965226172202       -0.93758354875958        0.76594083789652
C           -2.92294850428094       -0.03568693716295       -0.01814070379701
N           -4.31584146175399        0.00013482031305        0.04243309073115
C           -5.04021793289417       -1.18364862446930        0.24087943015009
C           -6.17110483873241       -1.19241517281017        1.05703593393160
C           -6.88345122388777       -2.36118375988594        1.24660240404538
C           -6.47872519634455       -3.53717953335100        0.63549810057955
C           -5.35515398981198       -3.53408665101469       -0.17552732460760
C           -4.64128755534151       -2.36850588723000       -0.37769855441037
C           -4.99848576121763        1.21794077957792       -0.08252981611998
C           -6.20834084833185        1.27951159704338       -0.77377083364463
C           -6.88586121447916        2.47859976664504       -0.88571025812687
C           -6.36731277899297        3.63307667112731       -0.32149627886386
C           -5.16284768856128        3.57810873426895        0.36153875658251
C           -4.48243601715720        2.38202011410476        0.48686764553745
C           -2.22083881407625        0.83127370913245       -0.85893789171916
C           -0.84463619040052        0.79463463480704       -0.91232112638786
C            2.04909111403247        1.05472526012654       -0.01532090850755
N            1.52966202753657        2.27984686559655        0.15597588188743
S            2.72695826697329        3.32121494706593        0.38165425109585
N            3.96388274523087        2.30648420905491        0.29012831773852
C            3.49187457173695        1.06989581796729        0.06614415171907
C            6.47348155628702        0.83292640604919       -0.56705326484952
C            7.83885649524784        0.90186607544591       -0.36106146093622
H            9.50977531068816        0.14930535317085        0.74850193848662
H            8.13539249116605       -1.40702796961863        2.08546241354784
H            5.70473641391863       -1.52746852930819        1.72590995638450
H            5.31394315590174       -2.48614506899357       -0.53339453441094
H            4.13406144430351       -4.57062235309644       -1.03894328045494
H            1.66683707567409       -4.59549879272375       -1.19703594509514
H            0.38968585245460       -2.53841411029459       -0.83815539893448
H           -0.28017490516593       -1.66798152439204        1.32793388528752
H           -2.72619163663563       -1.59734202567954        1.44004878258509
H           -6.48340689036626       -0.27875453510213        1.54155327011391
H           -7.75600637390978       -2.35491106605498        1.88362330638901
H           -7.03533349393347       -4.44943308607916        0.78951208084655
H           -5.03607226978475       -4.44461605307770       -0.66168657803634
H           -3.77164956127348       -2.36572416364528       -1.01874013156840
H           -6.61043228549576        0.38238502594632       -1.22174918029840
H           -7.82140390094113        2.51247466232762       -1.42500769007558
H           -6.89785926780186        4.56891036275974       -0.41345579920965
H           -4.75295325036888        4.47193482732731        0.80890426175425
H           -3.54849677609334        2.34065204503516        1.02840800399862
H           -2.76607366442010        1.53120728317776       -1.47483771456979
H           -0.31671897109360        1.46820831800507       -1.56988649293749
H            6.00256869499307        1.46266522068622       -1.30709546006393
H            8.43434596846036        1.58989118836146       -0.94359219976833

          :  Hamiltonian                  GFN2-xTB          :
         :: gradient norm              0.000038901338 Eh/a0 ::
         :: HOMO-LUMO gap              0.994899166168 eV    ::
         :: SCC energy               -98.328793814877 Eh    ::
         :: -> dispersion             -0.086415446294 Eh    ::
         :: -> Gsolv                  -0.040826733732 Eh    ::
         :: repulsion energy           1.740012665685 Eh    ::

    * Orbital Energies and Occupations

         #    Occupation            Energy/Eh            Energy/eV
      -------------------------------------------------------------
         1        2.0000           -0.7623783             -20.7454
       ...           ...                  ...                  ...
        78        2.0000           -0.4201537             -11.4330
        79        2.0000           -0.4114598             -11.1964
        80        2.0000           -0.4096858             -11.1481
        81        2.0000           -0.4088667             -11.1258
        82        2.0000           -0.4080299             -11.1031
        83        2.0000           -0.4076115             -11.0917
        84        2.0000           -0.4060375             -11.0488
        85        2.0000           -0.4050668             -11.0224
        86        2.0000           -0.4048165             -11.0156
        87        2.0000           -0.4024770             -10.9520
        88        2.0000           -0.3993447             -10.8667
        89        2.0000           -0.3676401             -10.0040
        90        2.0000           -0.3491916              -9.5020 (HOMO)
        91                         -0.3126297              -8.5071 (LUMO)
        92                         -0.2533051              -6.8928
        93                         -0.2335434              -6.3550
        94                         -0.2312861              -6.2936
        95                         -0.2291572              -6.2357
        96                         -0.2282124              -6.2100
        97                         -0.2241645              -6.0998
        98                         -0.2230421              -6.0693
        99                         -0.2228480              -6.0640
       100                         -0.2223882              -6.0515
       101                         -0.2128923              -5.7931
       ...                                ...                  ...
       180                          0.7408490              20.1595
      -------------------------------------------------------------
                  HL-Gap            0.0365619 Eh            0.9949 eV

     #   Z          covCN         q      C6AA      α(0)
     1   6 C        2.920    -0.031    28.772     8.796
     2   6 C        2.918    -0.031    28.763     8.795
     3   6 C        2.924    -0.033    28.832     8.806
     4   6 C        2.976     0.016    27.648     8.625
     5   6 C        2.970    -0.019    28.471     8.752
     6   6 C        2.984     0.003    27.942     8.671
     7   6 C        2.918    -0.035    28.877     8.812
     8   6 C        2.914    -0.029    28.730     8.789
     9   6 C        2.914    -0.030    28.745     8.792
    10   6 C        2.918    -0.035    28.873     8.811
    11   6 C        2.984     0.002    27.966     8.675
    12   6 C        2.969    -0.016    28.402     8.742
    13   6 C        2.975     0.007    27.861     8.658
    14   6 C        2.923    -0.033    28.829     8.805
    15   6 C        2.920    -0.049    29.227     8.865
    16   6 C        2.923     0.066    26.518     8.445
    17   7 N        2.752    -0.075    22.686     7.074
    18   6 C        2.924     0.065    26.545     8.449
    19   6 C        2.922    -0.047    29.166     8.856
    20   6 C        2.919    -0.030    28.742     8.792
    21   6 C        2.919    -0.038    28.953     8.824
    22   6 C        2.919    -0.030    28.746     8.792
    23   6 C        2.922    -0.047    29.171     8.857
    24   6 C        2.924     0.065    26.548     8.450
    25   6 C        2.922    -0.047    29.174     8.858
    26   6 C        2.919    -0.030    28.747     8.792
    27   6 C        2.919    -0.038    28.954     8.824
    28   6 C        2.919    -0.030    28.742     8.792
    29   6 C        2.922    -0.047    29.171     8.857
    30   6 C        2.920    -0.048    29.186     8.859
    31   6 C        2.923    -0.028    28.707     8.786
    32   6 C        3.342     0.072    23.954     7.736
    33   7 N        1.851    -0.285    28.244     7.877
    34  16 S        2.670     0.335   128.154    19.053
    35   7 N        1.850    -0.288    28.309     7.886
    36   6 C        3.342     0.072    23.929     7.730
    37   6 C        2.925    -0.028    28.711     8.787
    38   6 C        2.919    -0.029    28.725     8.789
    39   1 H        0.926     0.035     2.520     2.482
    40   1 H        0.926     0.035     2.523     2.484
    41   1 H        0.926     0.032     2.562     2.503
    42   1 H        0.926     0.039     2.459     2.452
    43   1 H        0.926     0.037     2.488     2.467
    44   1 H        0.926     0.037     2.486     2.465
    45   1 H        0.926     0.040     2.445     2.445
    46   1 H        0.926     0.036     2.505     2.475
    47   1 H        0.926     0.036     2.505     2.475
    48   1 H        0.926     0.033     2.547     2.496
    49   1 H        0.926     0.035     2.521     2.483
    50   1 H        0.926     0.033     2.541     2.493
    51   1 H        0.926     0.035     2.521     2.483
    52   1 H        0.926     0.032     2.555     2.500
    53   1 H        0.926     0.033     2.549     2.497
    54   1 H        0.926     0.035     2.523     2.484
    55   1 H        0.926     0.033     2.542     2.493
    56   1 H        0.926     0.035     2.521     2.483
    57   1 H        0.926     0.033     2.543     2.494
    58   1 H        0.926     0.036     2.496     2.471
    59   1 H        0.926     0.037     2.483     2.464
    60   1 H        0.926     0.033     2.548     2.496
    61   1 H        0.926     0.035     2.517     2.481

molecular dipole:
                 x           y           z       tot (Debye)
 q only:       -0.524      -0.337      -0.053
   full:       -0.493      -0.549      -0.067       1.882

 projected vibrational frequencies (cm⁻¹)
eigval :       -0.00    -0.00    -0.00     0.00     0.00     0.00
eigval :       12.44    15.42    18.75    40.99    45.69    52.35
eigval :       55.57    62.30    74.03    74.97    83.21    86.97
eigval :      105.63   137.60   147.16   179.98   194.44   204.87
eigval :      225.33   232.68   233.55   239.08   267.16   296.95
eigval :      314.21   325.28   354.20   373.06   377.70   379.84
eigval :      386.10   388.97   394.35   414.98   420.03   426.57
eigval :      440.87   478.45   488.27   492.15   499.90   508.49
eigval :      552.97   580.34   582.48   585.64   589.55   592.18
eigval :      601.72   611.59   617.36   632.67   648.82   660.50
eigval :      666.48   672.50   686.33   692.73   705.09   723.14
eigval :      733.82   756.38   757.27   760.71   775.16   811.31
eigval :      830.14   866.14   871.88   873.50   875.13   876.41
eigval :      880.51   890.43   891.48   893.31   897.99   901.23
eigval :      909.38   913.22   916.76   918.81   922.91   926.77
eigval :      927.71   928.14   929.78   931.57   933.98   937.52
eigval :      940.25   984.20   987.10  1003.95  1007.36  1029.29
eigval :     1081.54  1082.27  1082.63  1084.38  1120.01  1120.57
eigval :     1122.63  1140.26  1142.38  1177.92  1178.97  1179.48
eigval :     1180.55  1183.46  1184.99  1194.04  1195.86  1198.43
eigval :     1214.13  1233.97  1244.37  1270.30  1276.62  1278.81
eigval :     1280.75  1289.75  1297.46  1308.28  1313.83  1314.63
eigval :     1315.66  1323.20  1324.33  1325.99  1370.96  1372.12
eigval :     1410.46  1419.00  1427.41  1434.09  1440.55  1455.41
eigval :     1468.38  1469.07  1471.89  1489.31  1496.07  1519.79
eigval :     1532.41  1549.24  1575.58  1577.27  1579.41  1587.03
eigval :     1590.86  1594.90  1598.13  1614.27  3066.03  3070.91
eigval :     3071.95  3072.84  3073.15  3073.62  3074.53  3075.67
eigval :     3076.29  3081.39  3082.45  3083.06  3083.24  3084.20
eigval :     3084.77  3086.90  3087.55  3091.75  3093.38  3094.84
eigval :     3095.05  3096.53  3098.47

   temp. (K)  partition function   enthalpy   heat capacity  entropy
                                   cal/mol     cal/K/mol   cal/K/mol   J/K/mol
 298.15  VIB  0.159E+14            17197.610    110.091    107.199
         ROT  0.475E+08              888.752      2.981     38.109
         INT  0.757E+21            18086.362    113.072    145.308
         TR   0.110E+29             1481.254      4.968     44.529
         TOT                       19567.6163   118.0403   189.8361   794.2742

       T/K    H(0)-H(T)+PV         H(T)/Eh          T*S/Eh         G(T)/Eh
   ------------------------------------------------------------------------
    298.15    0.311830E-01    0.492167E+00    0.901973E-01    0.401970E+00
   ------------------------------------------------------------------------

         :::::::::::::::::::::::::::::::::::::::::::::::::::::
         ::                  THERMODYNAMIC                  ::
         :::::::::::::::::::::::::::::::::::::::::::::::::::::
         :: total free energy         -96.186811000979 Eh   ::
         ::.................................................::
         :: total energy              -96.588781149419 Eh   ::
         :: zero point energy           0.460984424211 Eh   ::
         :: G(RRHO) w/o ZPVE           -0.059014275770 Eh   ::
         :: G(RRHO) contrib.            0.401970148440 Eh   ::
         :::::::::::::::::::::::::::::::::::::::::::::::::::::

           -------------------------------------------------
          | TOTAL ENERGY              -96.588781149419 Eh   |
          | TOTAL ENTHALPY            -96.096613743776 Eh   |
          | TOTAL FREE ENERGY         -96.186811000979 Eh   |
          | GRADIENT NORM               0.000038846328 Eh/α |
          | HOMO-LUMO GAP               0.994899866580 eV   |
           -------------------------------------------------

 * finished run on 2025/09/10 at 11:35:11.960
