   * xtb version 6.7.1 (edcfbbe) compiled by 'albert@albert-system' on 2024-07-22

   ID    Z sym.   atoms
    1    6 C      1-16, 18-32, 36-38
    2    7 N      17, 33, 35
    3   16 S      34
    4    1 H      39-61

          program call               : xtb data2507/toluene/TPA-NZP/TPA-NZP_toluene_T1_crest.xyz --gfn 2 --uhf 2 --gbsa toluene --ohess vtight --parallel 40 --molden --ceasefiles --namespace data2507/toluene/TPA-NZP/TPA-NZP_toluene_T1_finalOpt
      * Solvation model:               GBSA
        Solvent                        toluene
        Solvent mass                       9.2140E+01 g/mol
          :  Hamiltonian                  GFN2-xTB          :
 * total energy  :   -96.5446463 Eh     change       -0.6400313E-08 Eh
 * total energy  :   -96.5447054 Eh     change       -0.5909541E-04 Eh
 * total energy  :   -96.5447375 Eh     change       -0.3209922E-04 Eh
 * total energy  :   -96.5447499 Eh     change       -0.1238582E-04 Eh
 * total energy  :   -96.5447633 Eh     change       -0.1343788E-04 Eh
 * total energy  :   -96.5447739 Eh     change       -0.1058302E-04 Eh
 * total energy  :   -96.5447821 Eh     change       -0.8261143E-05 Eh
 * total energy  :   -96.5447885 Eh     change       -0.6357752E-05 Eh
 * total energy  :   -96.5447945 Eh     change       -0.5965452E-05 Eh
 * total energy  :   -96.5448007 Eh     change       -0.6246660E-05 Eh
 * total energy  :   -96.5448441 Eh     change       -0.3381561E-06 Eh
 * total energy  :   -96.5448444 Eh     change       -0.2665930E-06 Eh
 * total energy  :   -96.5448446 Eh     change       -0.2144015E-06 Eh
 * total energy  :   -96.5448449 Eh     change       -0.2300562E-06 Eh
 * total energy  :   -96.5448451 Eh     change       -0.2506713E-06 Eh
 * total energy  :   -96.5448454 Eh     change       -0.2780850E-06 Eh
 * total energy  :   -96.5448457 Eh     change       -0.2822686E-06 Eh
 * total energy  :   -96.5448459 Eh     change       -0.2477842E-06 Eh
 * total energy  :   -96.5448459 Eh     change       -0.1045622E-07 Eh
   *** GEOMETRY OPTIMIZATION CONVERGED AFTER 44 ITERATIONS ***

 final structure:
================
61
 xtb: 6.7.1 (edcfbbe)
C            8.24173260485660       -0.02141757676617        1.31995472173175
C            7.34662274118980       -0.94630279741174        1.83640849559624
C            6.04369841803157       -0.98299620525623        1.38253076000656
C            5.60153182829995       -0.08676460138871        0.40017618796117
C            4.21792270621296       -0.09965437604597       -0.04390879767670
C            3.51306460731151       -1.31244749135460       -0.33743527248832
C            4.21196131934655       -2.51362888551933       -0.52601121440969
C            3.56437583285026       -3.68347020689385       -0.87565267222690
C            2.19523725267881       -3.67323871892857       -1.09131676959015
C            1.48382840560232       -2.49560440370429       -0.94500456748118
C            2.10129409986870       -1.30641885027131       -0.53931611994369
C            1.34223477725157       -0.08816952203258       -0.42759677972976
C           -0.08939388705712       -0.07666979605824       -0.30791421522796
C           -0.77111450120791       -1.06698020279343        0.42862865092407
C           -2.13374388809402       -1.03954685977718        0.57636526094820
C           -2.90016068225316       -0.02264264075791       -0.01438939918898
N           -4.27677801672361       -0.00255415993671        0.12125045347006
C           -4.99877991538620       -1.19946901317665        0.24168027804961
C           -6.08609950945409       -1.27935936177010        1.11217139744038
C           -6.80118866555949       -2.45658778830039        1.22149599199895
C           -6.44351638301820       -3.56690503786146        0.47272876252329
C           -5.36447093053503       -3.49134881067037       -0.39407031401139
C           -4.64621171556847       -2.31727247617508       -0.51528952315072
C           -4.97429645486809        1.21526962126603        0.13984066956191
C           -6.20145026209845        1.32950525592530       -0.51361471434226
C           -6.89263225331714        2.52545772394938       -0.48558113348091
C           -6.37207714005333        3.62029311310861        0.18665451319695
C           -5.15276015613231        3.51065480665524        0.83679146198982
C           -4.45563582789793        2.31775964948545        0.81943264812721
C           -2.23020027806384        0.97795705979412       -0.73530339412391
C           -0.86567762882413        0.95625271549256       -0.86720524612719
C            2.07724662438834        1.11979568770268       -0.39019572064331
N            1.57663759795850        2.34796916017531       -0.40703301730283
S            2.80683428649840        3.42652066354833       -0.20638322183189
N            4.01766433159011        2.33065678941976       -0.05742454764428
C            3.51022569809884        1.10806010760619       -0.18732338963415
C            6.51125611748393        0.85228966944773       -0.09759041179551
C            7.81549856471025        0.87765096602650        0.35402570136440
H            9.26206763850891        0.00299703009392        1.67337674318445
H            7.66573066055931       -1.63812773135546        2.60288028423020
H            5.34197482020617       -1.68264347820239        1.81439290967076
H            5.28669048857388       -2.51288470354687       -0.42597236471685
H            4.13179241756843       -4.59290939895412       -1.00624828516531
H            1.68403982322036       -4.57454389829074       -1.39549844565480
H            0.43112166021676       -2.48401856805560       -1.18289233359692
H           -0.20026134361990       -1.82744970104449        0.94052483577140
H           -2.62461396214723       -1.78908333485934        1.17957136865556
H           -6.35896802764858       -0.41788799792735        1.70364464195440
H           -7.63854261749276       -2.50919353131823        1.90131741261204
H           -7.00325180972311       -4.48544407355487        0.56299120145925
H           -5.08496954233282       -4.34958103150371       -0.98706297356831
H           -3.81605358569858       -2.25308617207467       -1.20318135619445
H           -6.60179995860406        0.47980982275866       -1.04660241811132
H           -7.83975590778046        2.60497239589381       -0.99809589102537
H           -6.91392836891655        4.55368643453041        0.20470388704524
H           -4.74393170064294        4.35705528669348        1.36837628781958
H           -3.51173062691049        2.22936259280667        1.33698972922998
H           -2.80257473191560        1.75992998734892       -1.21183886515800
H           -0.36945241926589        1.72465753679986       -1.43707160618584
H            6.18321665563948        1.54962292058592       -0.85243920387898
H            8.50658068809033        1.60294268842046       -0.05089049391800

          :  Hamiltonian                  GFN2-xTB          :
         :: gradient norm              0.000050302785 Eh/a0 ::
         :: HOMO-LUMO gap              1.486271261602 eV    ::
         :: SCC energy               -98.271072309320 Eh    ::
         :: -> dispersion             -0.086408081903 Eh    ::
         :: -> Gsolv                  -0.044880070269 Eh    ::
         :: repulsion energy           1.726226378467 Eh    ::

    * Orbital Energies and Occupations

         #    Occupation            Energy/Eh            Energy/eV
      -------------------------------------------------------------
         1        2.0000           -0.7300898             -19.8668
       ...           ...                  ...                  ...
        79        2.0000           -0.4167269             -11.3397
        80        2.0000           -0.4150257             -11.2934
        81        2.0000           -0.4142890             -11.2734
        82        2.0000           -0.4125571             -11.2262
        83        2.0000           -0.4103889             -11.1672
        84        2.0000           -0.4050897             -11.0231
        85        2.0000           -0.4032321             -10.9725
        86        2.0000           -0.3951793             -10.7534
        87        2.0000           -0.3899974             -10.6124
        88        2.0000           -0.3882819             -10.5657
        89        2.0000           -0.3685353             -10.0284
        90        1.0000           -0.3475184              -9.4565
        91        1.0000           -0.3048111              -8.2943 (HOMO)
        92                         -0.2501918              -6.8081 (LUMO)
        93                         -0.2406821              -6.5493
        94                         -0.2373608              -6.4589
        95                         -0.2358136              -6.4168
        96                         -0.2308401              -6.2815
        97                         -0.2289511              -6.2301
        98                         -0.2275484              -6.1919
        99                         -0.2223474              -6.0504
       100                         -0.2176969              -5.9238
       101                         -0.2068926              -5.6298
       102                         -0.2034017              -5.5348
       ...                                ...                  ...
       180                          0.7124184              19.3859
      -------------------------------------------------------------
                  HL-Gap            0.0546193 Eh            1.4863 eV

     #   Z          covCN         q      C6AA      α(0)
     1   6 C        2.919    -0.030    28.749     8.793
     2   6 C        2.917    -0.031    28.772     8.796
     3   6 C        2.924    -0.033    28.831     8.805
     4   6 C        2.974     0.017    27.629     8.622
     5   6 C        2.969    -0.023    28.564     8.767
     6   6 C        2.980    -0.000    28.034     8.685
     7   6 C        2.922    -0.035    28.867     8.811
     8   6 C        2.914    -0.033    28.815     8.802
     9   6 C        2.915    -0.032    28.790     8.799
    10   6 C        2.922    -0.037    28.915     8.818
    11   6 C        2.979     0.000    28.019     8.683
    12   6 C        2.968    -0.029    28.720     8.790
    13   6 C        2.971     0.016    27.644     8.624
    14   6 C        2.921    -0.032    28.803     8.801
    15   6 C        2.917    -0.046    29.142     8.852
    16   6 C        2.923     0.066    26.528     8.446
    17   7 N        2.752    -0.041    22.026     6.970
    18   6 C        2.926     0.063    26.595     8.457
    19   6 C        2.921    -0.042    29.045     8.838
    20   6 C        2.919    -0.026    28.664     8.780
    21   6 C        2.919    -0.032    28.796     8.800
    22   6 C        2.919    -0.027    28.670     8.780
    23   6 C        2.921    -0.042    29.043     8.838
    24   6 C        2.926     0.063    26.596     8.457
    25   6 C        2.921    -0.042    29.045     8.838
    26   6 C        2.919    -0.027    28.667     8.780
    27   6 C        2.919    -0.032    28.787     8.798
    28   6 C        2.919    -0.026    28.660     8.779
    29   6 C        2.921    -0.041    29.025     8.835
    30   6 C        2.917    -0.044    29.081     8.843
    31   6 C        2.921    -0.029    28.726     8.789
    32   6 C        3.286     0.085    24.676     7.982
    33   7 N        1.850    -0.305    28.743     7.946
    34  16 S        2.581     0.157   134.803    19.541
    35   7 N        1.849    -0.305    28.742     7.946
    36   6 C        3.293     0.084    24.574     7.951
    37   6 C        2.923    -0.028    28.700     8.785
    38   6 C        2.917    -0.029    28.718     8.788
    39   1 H        0.926     0.036     2.509     2.477
    40   1 H        0.926     0.035     2.515     2.480
    41   1 H        0.926     0.033     2.542     2.493
    42   1 H        0.926     0.037     2.495     2.470
    43   1 H        0.926     0.035     2.518     2.481
    44   1 H        0.926     0.036     2.496     2.471
    45   1 H        0.926     0.039     2.461     2.453
    46   1 H        0.926     0.044     2.402     2.424
    47   1 H        0.926     0.044     2.398     2.422
    48   1 H        0.926     0.041     2.436     2.441
    49   1 H        0.926     0.043     2.414     2.430
    50   1 H        0.926     0.041     2.433     2.439
    51   1 H        0.926     0.042     2.419     2.432
    52   1 H        0.926     0.040     2.442     2.444
    53   1 H        0.926     0.042     2.428     2.437
    54   1 H        0.926     0.043     2.408     2.426
    55   1 H        0.926     0.041     2.430     2.438
    56   1 H        0.926     0.042     2.424     2.435
    57   1 H        0.926     0.040     2.445     2.445
    58   1 H        0.926     0.044     2.400     2.423
    59   1 H        0.926     0.054     2.265     2.353
    60   1 H        0.926     0.040     2.453     2.449
    61   1 H        0.926     0.035     2.521     2.483

molecular dipole:
                 x           y           z       tot (Debye)
 q only:       -3.353      -1.412       0.177
   full:       -3.245      -1.706       0.187       9.331

 projected vibrational frequencies (cm⁻¹)
eigval :       -0.00    -0.00     0.00     0.00     0.00     0.00
eigval :       11.81    18.06    19.58    36.64    48.49    53.22
eigval :       61.12    64.04    75.40    77.17    83.33    88.22
eigval :      112.28   134.97   149.21   180.88   193.94   204.74
eigval :      223.61   233.28   242.40   246.60   276.01   295.91
eigval :      304.19   323.76   353.98   368.73   375.75   375.99
eigval :      379.54   387.96   391.50   409.18   413.29   419.20
eigval :      436.04   459.38   469.23   486.86   490.46   513.29
eigval :      549.97   577.27   580.13   583.44   588.44   591.28
eigval :      593.98   606.34   611.30   621.65   645.72   659.87
eigval :      664.85   667.85   676.34   682.95   696.30   715.50
eigval :      721.98   753.36   756.81   759.06   759.51   767.83
eigval :      814.88   829.45   850.72   852.26   866.27   871.71
eigval :      873.11   875.94   891.50   896.43   897.77   900.80
eigval :      906.25   908.64   911.22   912.95   914.37   925.62
eigval :      925.75   927.29   929.19   931.43   935.50   937.01
eigval :      941.23   984.13   987.43  1003.02  1008.66  1021.25
eigval :     1079.48  1080.67  1082.01  1105.21  1119.97  1122.33
eigval :     1122.56  1128.73  1144.27  1173.29  1177.39  1177.82
eigval :     1178.36  1180.41  1181.52  1191.22  1194.45  1201.13
eigval :     1213.27  1243.35  1244.83  1267.16  1273.29  1277.61
eigval :     1280.52  1294.06  1299.33  1312.47  1316.17  1318.28
eigval :     1320.91  1322.73  1326.48  1335.30  1341.90  1365.49
eigval :     1410.50  1420.90  1424.12  1430.53  1431.77  1437.37
eigval :     1440.19  1460.15  1460.41  1461.56  1467.30  1474.81
eigval :     1504.57  1534.92  1547.18  1558.55  1571.55  1573.15
eigval :     1576.34  1582.44  1583.41  1589.67  3066.51  3071.24
eigval :     3075.88  3076.81  3078.68  3079.14  3079.63  3080.25
eigval :     3080.81  3083.47  3086.28  3087.29  3087.91  3088.48
eigval :     3090.92  3091.43  3092.20  3093.10  3097.05  3098.95
eigval :     3099.13  3103.80  3116.93

   temp. (K)  partition function   enthalpy   heat capacity  entropy
                                   cal/mol     cal/K/mol   cal/K/mol   J/K/mol
 298.15  VIB  0.126E+14            17281.257    111.054    107.309
         ROT  0.479E+08              888.752      2.981     38.124
         INT  0.603E+21            18170.009    114.035    145.433
         TR   0.110E+29             1481.254      4.968     44.529
         TOT                       19651.2629   119.0034   189.9615   794.7988

       T/K    H(0)-H(T)+PV         H(T)/Eh          T*S/Eh         G(T)/Eh
   ------------------------------------------------------------------------
    298.15    0.313163E-01    0.490809E+00    0.902568E-01    0.400552E+00
   ------------------------------------------------------------------------

         :::::::::::::::::::::::::::::::::::::::::::::::::::::
         ::                  THERMODYNAMIC                  ::
         :::::::::::::::::::::::::::::::::::::::::::::::::::::
         :: total free energy         -96.144293725926 Eh   ::
         ::.................................................::
         :: total energy              -96.544845923679 Eh   ::
         :: zero point energy           0.459492743227 Eh   ::
         :: G(RRHO) w/o ZPVE           -0.058940545474 Eh   ::
         :: G(RRHO) contrib.            0.400552197753 Eh   ::
         :::::::::::::::::::::::::::::::::::::::::::::::::::::

           -------------------------------------------------
          | TOTAL ENERGY              -96.544845923679 Eh   |
          | TOTAL ENTHALPY            -96.054036899648 Eh   |
          | TOTAL FREE ENERGY         -96.144293725926 Eh   |
          | GRADIENT NORM               0.000050560966 Eh/α |
          | HOMO-LUMO GAP               1.486266831879 eV   |
           -------------------------------------------------

 * finished run on 2025/09/10 at 11:38:34.110
