   * xtb version 6.7.1 (edcfbbe) compiled by 'albert@albert-system' on 2024-07-22

   ID    Z sym.   atoms
    1    6 C      1-16, 18-32, 36-38
    2    7 N      17, 33, 35
    3   16 S      34
    4    1 H      39-61

          program call               : xtb data2507/toluene/TPA-NZP/TPA-NZP_toluene_S0_finalOpt.xtbopt.xyz --gfn 2 --uhf 2 --gbsa toluene --ohess vtight --parallel 40 --molden --ceasefiles --namespace data2507/toluene/TPA-NZP/TPA-NZP_toluene_T1_preOpt
      * Solvation model:               GBSA
        Solvent                        toluene
        Solvent mass                       9.2140E+01 g/mol
          :  Hamiltonian                  GFN2-xTB          :
 * total energy  :   -96.5377517 Eh     change       -0.1195573E-08 Eh
 * total energy  :   -96.5415166 Eh     change       -0.3764932E-02 Eh
 * total energy  :   -96.5432447 Eh     change       -0.1728020E-02 Eh
 * total energy  :   -96.5435140 Eh     change       -0.2693684E-03 Eh
 * total energy  :   -96.5437940 Eh     change       -0.2799434E-03 Eh
 * total energy  :   -96.5439423 Eh     change       -0.1483338E-03 Eh
 * total energy  :   -96.5440922 Eh     change       -0.1498718E-03 Eh
 * total energy  :   -96.5442067 Eh     change       -0.1145420E-03 Eh
 * total energy  :   -96.5442746 Eh     change       -0.6789682E-04 Eh
 * total energy  :   -96.5443126 Eh     change       -0.3803319E-04 Eh
 * total energy  :   -96.5448234 Eh     change       -0.1179580E-05 Eh
 * total energy  :   -96.5448238 Eh     change       -0.4168330E-06 Eh
 * total energy  :   -96.5448246 Eh     change       -0.7958441E-06 Eh
 * total energy  :   -96.5448248 Eh     change       -0.1904918E-06 Eh
 * total energy  :   -96.5448250 Eh     change       -0.2389321E-06 Eh
 * total energy  :   -96.5448252 Eh     change       -0.1954675E-06 Eh
 * total energy  :   -96.5448253 Eh     change       -0.1389409E-06 Eh
 * total energy  :   -96.5448255 Eh     change       -0.1233644E-06 Eh
 * total energy  :   -96.5448255 Eh     change       -0.9182828E-07 Eh
   *** GEOMETRY OPTIMIZATION CONVERGED AFTER 51 ITERATIONS ***

 final structure:
================
61
 xtb: 6.7.1 (edcfbbe)
C            8.27865014836253        0.05950061873132        1.06934204998884
C            7.38789250335383       -0.80688659361175        1.68514464087557
C            6.07537170359971       -0.87200508280549        1.26315258897723
C            5.61910558404679       -0.06362599541834        0.21346198441144
C            4.22737143107267       -0.10663787972131       -0.20298959290477
C            3.51328620578142       -1.33641223831517       -0.38077743152675
C            4.20424875090612       -2.55336714675906       -0.47376896041044
C            3.54749136010799       -3.74489582497185       -0.71654187822730
C            2.17620127215465       -3.74514252967962       -0.91805424827407
C            1.47194724444401       -2.55550113266648       -0.86292992794035
C            2.09906604292764       -1.33985349440456       -0.56485767219133
C            1.34619491910755       -0.11250914733213       -0.54505139357610
C           -0.08320115182161       -0.08579049054029       -0.40509480822862
C           -0.75524152458797       -1.01390606281263        0.41671976398644
C           -2.11605889836164       -0.97595398731170        0.57682595536129
C           -2.89006796077374       -0.00801499498217       -0.08228115052873
N           -4.26563729286683        0.01838660353287        0.06380296641490
C           -4.98026902143326       -1.17040783480861        0.27480782253472
C           -6.05584813630355       -1.19610225519989        1.16285360618688
C           -6.76111637217090       -2.36730606339036        1.36288757052058
C           -6.40545648604923       -3.52453545435161        0.68777435375902
C           -5.33847961592700       -3.50266166644714       -0.19682437271228
C           -4.62997187733102       -2.33552682848803       -0.40828128494565
C           -4.96732478269185        1.23208973027347        0.00572052987659
C           -6.20358008445874        1.29633875623892       -0.63740511063711
C           -6.89995950778980        2.48877503935871       -0.68242374145743
C           -6.37611567792617        3.62901539706154       -0.09341964485491
C           -5.14727683775581        3.56935139223674        0.54520877102115
C           -4.44456180195514        2.38091150442933        0.60021558576288
C           -2.22932386753129        0.93562388052900       -0.88388646004475
C           -0.86653924739211        0.90268443949857       -1.03112067605392
C            2.08674868465280        1.09035958260661       -0.62157159166883
N            1.59169694287816        2.31539953109742       -0.73706706652149
S            2.82951213269097        3.40021362865766       -0.64735256716526
N            4.03759834214284        2.31426819814742       -0.42284841057877
C            3.52275548522920        1.08797572082010       -0.43990920256148
C            6.52465630275260        0.81923567637302       -0.38452048453644
C            7.83845929182795        0.87275623396760        0.03599754387675
H            9.30650994844348        0.10573000748765        1.39785971076212
H            7.71821340772355       -1.43081242217168        2.50340830637371
H            5.37803354292522       -1.52404695507175        1.76996739710206
H            5.28006413159318       -2.54994634098156       -0.38630209801206
H            4.10918386234177       -4.66530122864485       -0.77551677545474
H            1.65743134260277       -4.66571472915954       -1.14082174122436
H            0.41669434569992       -2.55841842101401       -1.08954273423336
H           -0.17746778401806       -1.73109875309453        0.98061243479218
H           -2.59970124961845       -1.67706927127983        1.24105940218873
H           -6.32675105729397       -0.29743425310396        1.69702550013156
H           -7.58874387380774       -2.37808879568001        2.05641082659827
H           -6.95743521922513       -4.43800432509955        0.84904534836134
H           -5.06104905487900       -4.39806805354106       -0.73307423063233
H           -3.80898317349123       -2.31374076842581       -1.10973211359725
H           -6.60675256285510        0.41027646441763       -1.10514409261910
H           -7.85420237013249        2.52933400193502       -1.18627762083594
H           -6.92256580930825        4.55910392530398       -0.13123294135119
H           -4.73552789404774        4.45205048983553        1.01156161926755
H           -3.49332740900161        2.33205730453681        1.10958477793677
H           -2.80800530638442        1.67974781991198       -1.41078199897549
H           -0.37755582371445        1.62459002725918       -1.66445432404945
H            6.18552824828800        1.44960668984606       -1.19158450494565
H            8.52616261666067        1.55264099205148       -0.44610639394862

          :  Hamiltonian                  GFN2-xTB          :
         :: gradient norm              0.000082034026 Eh/a0 ::
         :: HOMO-LUMO gap              1.485628383359 eV    ::
         :: SCC energy               -98.271066552627 Eh    ::
         :: -> dispersion             -0.086408752706 Eh    ::
         :: -> Gsolv                  -0.044859961001 Eh    ::
         :: repulsion energy           1.726241006447 Eh    ::

    * Orbital Energies and Occupations

         #    Occupation            Energy/Eh            Energy/eV
      -------------------------------------------------------------
         1        2.0000           -0.7301163             -19.8675
       ...           ...                  ...                  ...
        79        2.0000           -0.4167386             -11.3400
        80        2.0000           -0.4150310             -11.2936
        81        2.0000           -0.4143078             -11.2739
        82        2.0000           -0.4125471             -11.2260
        83        2.0000           -0.4103859             -11.1672
        84        2.0000           -0.4050801             -11.0228
        85        2.0000           -0.4032460             -10.9729
        86        2.0000           -0.3951844             -10.7535
        87        2.0000           -0.3900183             -10.6129
        88        2.0000           -0.3883053             -10.5663
        89        2.0000           -0.3685750             -10.0294
        90        1.0000           -0.3475219              -9.4566
        91        1.0000           -0.3048524              -8.2955 (HOMO)
        92                         -0.2502566              -6.8098 (LUMO)
        93                         -0.2406698              -6.5490
        94                         -0.2373301              -6.4581
        95                         -0.2358085              -6.4167
        96                         -0.2308417              -6.2815
        97                         -0.2289538              -6.2301
        98                         -0.2275220              -6.1912
        99                         -0.2223733              -6.0511
       100                         -0.2177501              -5.9253
       101                         -0.2069585              -5.6316
       102                         -0.2034249              -5.5355
       ...                                ...                  ...
       180                          0.7124493              19.3867
      -------------------------------------------------------------
                  HL-Gap            0.0545958 Eh            1.4856 eV

     #   Z          covCN         q      C6AA      α(0)
     1   6 C        2.919    -0.030    28.749     8.793
     2   6 C        2.917    -0.031    28.772     8.796
     3   6 C        2.924    -0.033    28.831     8.805
     4   6 C        2.974     0.017    27.628     8.622
     5   6 C        2.969    -0.023    28.564     8.767
     6   6 C        2.980    -0.000    28.033     8.685
     7   6 C        2.922    -0.035    28.868     8.811
     8   6 C        2.914    -0.033    28.815     8.802
     9   6 C        2.915    -0.032    28.790     8.799
    10   6 C        2.922    -0.037    28.914     8.818
    11   6 C        2.979     0.000    28.019     8.683
    12   6 C        2.968    -0.029    28.720     8.790
    13   6 C        2.971     0.016    27.644     8.624
    14   6 C        2.921    -0.032    28.803     8.801
    15   6 C        2.917    -0.046    29.141     8.852
    16   6 C        2.923     0.066    26.529     8.447
    17   7 N        2.752    -0.041    22.027     6.971
    18   6 C        2.926     0.063    26.595     8.457
    19   6 C        2.921    -0.042    29.044     8.838
    20   6 C        2.919    -0.026    28.664     8.780
    21   6 C        2.919    -0.032    28.795     8.800
    22   6 C        2.919    -0.027    28.669     8.780
    23   6 C        2.921    -0.042    29.041     8.837
    24   6 C        2.926     0.063    26.595     8.457
    25   6 C        2.921    -0.042    29.046     8.838
    26   6 C        2.919    -0.027    28.667     8.780
    27   6 C        2.919    -0.032    28.788     8.799
    28   6 C        2.919    -0.026    28.660     8.779
    29   6 C        2.921    -0.041    29.027     8.835
    30   6 C        2.917    -0.043    29.079     8.843
    31   6 C        2.921    -0.029    28.731     8.790
    32   6 C        3.285     0.085    24.683     7.984
    33   7 N        1.850    -0.304    28.741     7.946
    34  16 S        2.581     0.157   134.799    19.541
    35   7 N        1.849    -0.305    28.742     7.946
    36   6 C        3.294     0.084    24.573     7.950
    37   6 C        2.924    -0.028    28.699     8.785
    38   6 C        2.917    -0.029    28.718     8.788
    39   1 H        0.926     0.036     2.509     2.477
    40   1 H        0.926     0.035     2.515     2.480
    41   1 H        0.926     0.033     2.542     2.493
    42   1 H        0.926     0.037     2.494     2.470
    43   1 H        0.926     0.035     2.518     2.481
    44   1 H        0.926     0.036     2.496     2.471
    45   1 H        0.926     0.039     2.461     2.453
    46   1 H        0.926     0.044     2.401     2.423
    47   1 H        0.926     0.044     2.399     2.422
    48   1 H        0.926     0.041     2.436     2.440
    49   1 H        0.926     0.043     2.413     2.429
    50   1 H        0.926     0.041     2.432     2.439
    51   1 H        0.926     0.042     2.419     2.432
    52   1 H        0.926     0.040     2.443     2.444
    53   1 H        0.926     0.042     2.428     2.437
    54   1 H        0.926     0.043     2.408     2.427
    55   1 H        0.926     0.041     2.431     2.438
    56   1 H        0.926     0.042     2.425     2.435
    57   1 H        0.926     0.040     2.446     2.446
    58   1 H        0.926     0.044     2.400     2.423
    59   1 H        0.926     0.055     2.261     2.351
    60   1 H        0.926     0.040     2.455     2.450
    61   1 H        0.926     0.035     2.521     2.483

molecular dipole:
                 x           y           z       tot (Debye)
 q only:       -3.352      -1.396       0.340
   full:       -3.245      -1.688       0.373       9.344

 projected vibrational frequencies (cm⁻¹)
eigval :       -0.00    -0.00    -0.00    -0.00    -0.00     0.00
eigval :       11.85    16.14    20.85    33.26    46.54    52.74
eigval :       60.76    64.90    74.38    76.45    82.79    88.63
eigval :      111.54   135.26   148.28   181.68   193.66   204.32
eigval :      223.62   233.81   242.54   246.29   276.34   295.65
eigval :      303.92   323.87   354.25   368.76   375.70   376.68
eigval :      379.62   388.13   391.94   409.75   413.12   419.58
eigval :      435.38   460.00   468.62   486.60   491.16   513.32
eigval :      549.85   577.20   580.46   583.65   588.49   591.59
eigval :      594.56   606.58   611.31   621.67   645.36   659.96
eigval :      664.81   667.58   675.94   683.14   696.59   715.41
eigval :      721.43   754.17   758.27   759.25   760.85   769.17
eigval :      814.86   829.49   850.74   852.64   868.03   872.38
eigval :      872.87   877.73   891.65   896.73   898.17   900.32
eigval :      906.63   908.91   911.41   913.70   915.20   924.79
eigval :      928.31   929.87   932.11   933.40   936.41   936.98
eigval :      941.31   984.19   987.58  1003.13  1008.33  1021.05
eigval :     1079.39  1080.86  1081.92  1105.19  1120.05  1122.21
eigval :     1122.31  1128.52  1144.01  1172.94  1177.67  1178.42
eigval :     1179.68  1179.97  1181.08  1191.61  1194.37  1200.31
eigval :     1213.56  1243.15  1244.63  1267.04  1273.24  1277.39
eigval :     1280.43  1294.62  1298.89  1312.50  1316.07  1318.00
eigval :     1320.69  1322.83  1326.44  1335.28  1341.66  1365.36
eigval :     1410.69  1420.92  1424.39  1430.72  1431.68  1437.56
eigval :     1440.37  1460.16  1460.63  1461.54  1467.22  1474.83
eigval :     1504.34  1535.02  1547.44  1558.67  1571.61  1573.24
eigval :     1576.41  1582.59  1583.60  1589.97  3067.13  3071.03
eigval :     3075.35  3077.39  3078.50  3079.51  3079.58  3080.52
eigval :     3081.18  3083.10  3085.67  3087.41  3087.88  3088.49
eigval :     3090.65  3091.17  3092.32  3093.03  3096.80  3099.14
eigval :     3099.40  3103.16  3117.78

   temp. (K)  partition function   enthalpy   heat capacity  entropy
                                   cal/mol     cal/K/mol   cal/K/mol   J/K/mol
 298.15  VIB  0.153E+14            17287.948    110.902    107.397
         ROT  0.479E+08              888.752      2.981     38.124
         INT  0.733E+21            18176.700    113.883    145.521
         TR   0.110E+29             1481.254      4.968     44.529
         TOT                       19657.9539   118.8513   190.0497   795.1680

       T/K    H(0)-H(T)+PV         H(T)/Eh          T*S/Eh         G(T)/Eh
   ------------------------------------------------------------------------
    298.15    0.313269E-01    0.490858E+00    0.902987E-01    0.400560E+00
   ------------------------------------------------------------------------

         :::::::::::::::::::::::::::::::::::::::::::::::::::::
         ::                  THERMODYNAMIC                  ::
         :::::::::::::::::::::::::::::::::::::::::::::::::::::
         :: total free energy         -96.144265956711 Eh   ::
         ::.................................................::
         :: total energy              -96.544825545344 Eh   ::
         :: zero point energy           0.459531392431 Eh   ::
         :: G(RRHO) w/o ZPVE           -0.058971803797 Eh   ::
         :: G(RRHO) contrib.            0.400559588633 Eh   ::
         :::::::::::::::::::::::::::::::::::::::::::::::::::::

           -------------------------------------------------
          | TOTAL ENERGY              -96.544825545344 Eh   |
          | TOTAL ENTHALPY            -96.053967209289 Eh   |
          | TOTAL FREE ENERGY         -96.144265956711 Eh   |
          | GRADIENT NORM               0.000081992593 Eh/α |
          | HOMO-LUMO GAP               1.485627698277 eV   |
           -------------------------------------------------

 * finished run on 2025/09/10 at 11:35:16.720
