   * xtb version 6.7.1 (edcfbbe) compiled by 'albert@albert-system' on 2024-07-22

   ID    Z sym.   atoms
    1    6 C      1-16, 18-32, 36-38
    2    7 N      17, 33, 35
    3   16 S      34
    4    1 H      39-61

          program call               : xtb data2507/toluene/TPA-NZP/TPA-NZP.xyz --gfn 2 --gbsa toluene --ohess vtight --parallel 40 --molden --ceasefiles --namespace data2507/toluene/TPA-NZP/TPA-NZP_toluene_S0_preOpt
      * Solvation model:               GBSA
        Solvent                        toluene
        Solvent mass                       9.2140E+01 g/mol
          :  Hamiltonian                  GFN2-xTB          :
 * total energy  :   -96.5636371 Eh     change       -0.3918217E-08 Eh
 * total energy  :   -96.5784227 Eh     change       -0.1478563E-01 Eh
 * total energy  :   -96.5834732 Eh     change       -0.5050447E-02 Eh
 * total energy  :   -96.5846738 Eh     change       -0.1200615E-02 Eh
 * total energy  :   -96.5853044 Eh     change       -0.6305992E-03 Eh
 * total energy  :   -96.5854629 Eh     change       -0.1585172E-03 Eh
 * total energy  :   -96.5855498 Eh     change       -0.8693431E-04 Eh
 * total energy  :   -96.5856126 Eh     change       -0.6274901E-04 Eh
 * total energy  :   -96.5856641 Eh     change       -0.5153446E-04 Eh
 * total energy  :   -96.5857067 Eh     change       -0.4260021E-04 Eh
 * total energy  :   -96.5887759 Eh     change       -0.2192234E-06 Eh
 * total energy  :   -96.5887761 Eh     change       -0.2476747E-06 Eh
 * total energy  :   -96.5887764 Eh     change       -0.2530453E-06 Eh
 * total energy  :   -96.5887767 Eh     change       -0.2887207E-06 Eh
 * total energy  :   -96.5887770 Eh     change       -0.3159712E-06 Eh
 * total energy  :   -96.5887773 Eh     change       -0.3360925E-06 Eh
 * total energy  :   -96.5887777 Eh     change       -0.3483547E-06 Eh
 * total energy  :   -96.5887780 Eh     change       -0.3290571E-06 Eh
 * total energy  :   -96.5887780 Eh     change       -0.2195776E-08 Eh
   *** GEOMETRY OPTIMIZATION CONVERGED AFTER 68 ITERATIONS ***

 final structure:
================
61
 xtb: 6.7.1 (edcfbbe)
C            8.75158003071022        0.76680338189007        0.54969128432341
C            8.02855767200199       -0.14848854484242        1.29708425981441
C            6.66437552737887       -0.27607458624941        1.11024864222738
C            6.00286006500832        0.51293163481519        0.17051839130858
C            4.54864107730118        0.40037580712288       -0.01687115908625
C            3.89730653885636       -0.81130768286602       -0.30460380093652
C            4.64621600095108       -1.98912493278939       -0.57292211937569
C            4.03968179100769       -3.16815430167209       -0.87772613393021
C            2.63467706723042       -3.24168824112542       -0.95975281912555
C            1.87729120441061       -2.13534642857779       -0.72818490127476
C            2.46266930557315       -0.88820529344619       -0.38011976455147
C            1.65839959787595        0.24529586957770       -0.16358334074085
C            0.19416077523037        0.20113722926728       -0.11814698524288
C           -0.47535677995964       -0.69667763732304        0.71498367906677
C           -1.85182334010404       -0.71278838035848        0.77929757028229
C           -2.60958727812592        0.16360492519086       -0.00100425252757
N           -4.00326463112287        0.13795895882883        0.05177303233143
C           -4.67635534195849       -1.07921341864432        0.22653384404811
C           -5.81302210913413       -1.14970826572259        1.03166369299699
C           -6.47542403765624       -2.35107562554095        1.19686547897902
C           -6.01439475050594       -3.49889208758486        0.57221923615059
C           -4.88440867713219       -3.43466814793971       -0.22726349974405
C           -4.22024304680221       -2.23621044096778       -0.40517167285861
C           -4.73660550361497        1.32683738632980       -0.06287247462274
C           -5.94462610753122        1.34590799435924       -0.75979393296059
C           -6.67078869882973        2.51710835555073       -0.86192512865756
C           -6.20359407231021        3.68559009519214       -0.28186719135797
C           -5.00120033031394        3.67301797211816        0.40689603420900
C           -4.27237546850217        2.50481627154169        0.52241911991203
C           -1.94194537187214        1.06804959289715       -0.83015590383132
C           -0.56518019019344        1.09204427343856       -0.87610130546019
C            2.31219559414767        1.46625507374108        0.03707929211695
N            1.74115663662389        2.66482312694274        0.23108010996926
S            2.89368844237304        3.75352534642285        0.46601479825373
N            4.17294144942812        2.79528506143974        0.35026189927324
C            3.75349622038594        1.54288556923019        0.10982869559887
C            6.73546753937452        1.44223457640888       -0.56359862611337
C            8.10014520592966        1.56335642305395       -0.37782303747469
H            9.81779796286316        0.86300820749688        0.69388863459867
H            8.52840452315498       -0.76468639854843        2.03071201721976
H            6.09910106392550       -0.97788613527746        1.70750170604170
H            5.72332329521489       -1.92250004121372       -0.55405372669816
H            4.63104001456480       -4.04818094141278       -1.08337105554937
H            2.16638157061536       -4.17661782186522       -1.23005699520426
H            0.80432650729962       -2.18174969722908       -0.83430836869650
H            0.09504058110646       -1.36418232809252        1.34501416513844
H           -2.35281628039112       -1.40107097187295        1.44429782047162
H           -6.16907425038821       -0.25808681520165        1.52690730238160
H           -7.35319454391627       -2.39237231178686        1.82539531981274
H           -6.53234419964408       -4.43661593001306        0.70686258770067
H           -4.52159883359118       -4.32298256889252       -0.72371084639410
H           -3.34567520977536       -2.18599290873825       -1.03751489019912
H           -6.30681675913993        0.43809036741314       -1.22018192705601
H           -7.60407453665736        2.51858493331455       -1.40616062733529
H           -6.77213480343191        4.59957772543444       -0.36616498833407
H           -4.63098064265862        4.57794591587277        0.86645560703322
H           -3.34024612518678        2.49578972552019        1.06851396611737
H           -2.51415929554713        1.74893968342163       -1.44292375297853
H           -0.06366532814697        1.79362871275902       -1.52502728268836
H            6.22798652296903        2.06246867058431       -1.28730023287288
H            8.65806976063111        2.28267001863319       -0.95974244348634

          :  Hamiltonian                  GFN2-xTB          :
         :: gradient norm              0.000036125758 Eh/a0 ::
         :: HOMO-LUMO gap              0.994194321000 eV    ::
         :: SCC energy               -98.328773603137 Eh    ::
         :: -> dispersion             -0.086413931128 Eh    ::
         :: -> Gsolv                  -0.040835194900 Eh    ::
         :: repulsion energy           1.739995620729 Eh    ::

    * Orbital Energies and Occupations

         #    Occupation            Energy/Eh            Energy/eV
      -------------------------------------------------------------
         1        2.0000           -0.7624416             -20.7471
       ...           ...                  ...                  ...
        78        2.0000           -0.4201914             -11.4340
        79        2.0000           -0.4114968             -11.1974
        80        2.0000           -0.4097288             -11.1493
        81        2.0000           -0.4088195             -11.1245
        82        2.0000           -0.4080864             -11.1046
        83        2.0000           -0.4076204             -11.0919
        84        2.0000           -0.4060420             -11.0490
        85        2.0000           -0.4050405             -11.0217
        86        2.0000           -0.4048100             -11.0154
        87        2.0000           -0.4025124             -10.9529
        88        2.0000           -0.3993620             -10.8672
        89        2.0000           -0.3676596             -10.0045
        90        2.0000           -0.3492201              -9.5028 (HOMO)
        91                         -0.3126841              -8.5086 (LUMO)
        92                         -0.2533052              -6.8928
        93                         -0.2335346              -6.3548
        94                         -0.2312291              -6.2921
        95                         -0.2291829              -6.2364
        96                         -0.2282191              -6.2102
        97                         -0.2242250              -6.1015
        98                         -0.2230825              -6.0704
        99                         -0.2229373              -6.0664
       100                         -0.2223412              -6.0502
       101                         -0.2129292              -5.7941
       ...                                ...                  ...
       180                          0.7408483              20.1595
      -------------------------------------------------------------
                  HL-Gap            0.0365359 Eh            0.9942 eV

     #   Z          covCN         q      C6AA      α(0)
     1   6 C        2.920    -0.031    28.771     8.796
     2   6 C        2.918    -0.031    28.763     8.795
     3   6 C        2.924    -0.033    28.832     8.806
     4   6 C        2.976     0.016    27.647     8.625
     5   6 C        2.970    -0.019    28.469     8.752
     6   6 C        2.984     0.003    27.941     8.671
     7   6 C        2.918    -0.035    28.878     8.812
     8   6 C        2.914    -0.029    28.729     8.789
     9   6 C        2.914    -0.030    28.743     8.791
    10   6 C        2.918    -0.035    28.873     8.812
    11   6 C        2.984     0.002    27.965     8.675
    12   6 C        2.969    -0.016    28.401     8.741
    13   6 C        2.975     0.007    27.858     8.658
    14   6 C        2.923    -0.033    28.828     8.805
    15   6 C        2.920    -0.049    29.224     8.865
    16   6 C        2.923     0.066    26.518     8.445
    17   7 N        2.752    -0.075    22.689     7.074
    18   6 C        2.924     0.065    26.545     8.449
    19   6 C        2.922    -0.047    29.167     8.857
    20   6 C        2.919    -0.030    28.742     8.792
    21   6 C        2.919    -0.038    28.954     8.824
    22   6 C        2.919    -0.030    28.746     8.792
    23   6 C        2.922    -0.047    29.173     8.857
    24   6 C        2.924     0.065    26.548     8.450
    25   6 C        2.922    -0.047    29.176     8.858
    26   6 C        2.919    -0.030    28.748     8.792
    27   6 C        2.919    -0.038    28.956     8.824
    28   6 C        2.919    -0.030    28.743     8.792
    29   6 C        2.922    -0.047    29.173     8.857
    30   6 C        2.920    -0.048    29.184     8.859
    31   6 C        2.924    -0.028    28.706     8.786
    32   6 C        3.342     0.072    23.953     7.735
    33   7 N        1.851    -0.285    28.245     7.877
    34  16 S        2.670     0.335   128.142    19.052
    35   7 N        1.850    -0.288    28.307     7.885
    36   6 C        3.342     0.072    23.933     7.731
    37   6 C        2.925    -0.028    28.711     8.787
    38   6 C        2.919    -0.029    28.725     8.789
    39   1 H        0.926     0.035     2.519     2.482
    40   1 H        0.926     0.035     2.522     2.483
    41   1 H        0.926     0.032     2.561     2.502
    42   1 H        0.926     0.039     2.458     2.452
    43   1 H        0.926     0.037     2.487     2.466
    44   1 H        0.926     0.037     2.485     2.465
    45   1 H        0.926     0.040     2.446     2.446
    46   1 H        0.926     0.036     2.505     2.475
    47   1 H        0.926     0.036     2.504     2.475
    48   1 H        0.926     0.033     2.547     2.496
    49   1 H        0.926     0.035     2.522     2.483
    50   1 H        0.926     0.033     2.541     2.493
    51   1 H        0.926     0.035     2.522     2.483
    52   1 H        0.926     0.032     2.557     2.501
    53   1 H        0.926     0.033     2.550     2.497
    54   1 H        0.926     0.034     2.524     2.484
    55   1 H        0.926     0.033     2.543     2.494
    56   1 H        0.926     0.035     2.522     2.483
    57   1 H        0.926     0.033     2.544     2.494
    58   1 H        0.926     0.036     2.496     2.471
    59   1 H        0.926     0.037     2.487     2.466
    60   1 H        0.926     0.033     2.549     2.497
    61   1 H        0.926     0.035     2.517     2.481

molecular dipole:
                 x           y           z       tot (Debye)
 q only:       -0.492      -0.361      -0.064
   full:       -0.452      -0.570      -0.083       1.861

 projected vibrational frequencies (cm⁻¹)
eigval :       -0.00    -0.00    -0.00    -0.00    -0.00     0.00
eigval :       11.31    15.36    18.77    40.91    44.79    51.99
eigval :       55.45    61.29    73.65    74.68    82.45    87.58
eigval :      104.86   137.14   146.99   179.94   194.27   204.55
eigval :      224.93   232.75   234.37   238.24   266.06   297.04
eigval :      314.23   325.37   353.76   371.21   377.46   380.14
eigval :      386.17   388.34   394.16   414.96   419.72   426.58
eigval :      440.63   478.13   488.21   491.59   500.20   508.12
eigval :      552.98   580.05   582.59   585.64   589.34   592.09
eigval :      601.40   611.30   617.19   632.41   648.25   660.86
eigval :      666.49   672.06   685.91   692.34   704.98   723.20
eigval :      733.31   755.66   756.50   760.03   775.45   810.63
eigval :      829.80   865.52   871.61   872.80   874.87   876.10
eigval :      880.26   890.75   891.68   892.43   897.67   900.17
eigval :      909.17   912.60   916.33   918.27   923.21   926.67
eigval :      926.82   927.55   927.84   930.74   933.35   936.03
eigval :      940.14   984.04   986.96  1004.02  1007.17  1028.80
eigval :     1081.82  1082.03  1082.93  1083.45  1120.78  1120.89
eigval :     1123.42  1140.05  1141.15  1179.10  1179.43  1179.58
eigval :     1179.82  1183.25  1184.91  1194.39  1195.79  1198.88
eigval :     1214.09  1231.72  1244.15  1269.33  1277.10  1278.89
eigval :     1281.19  1289.74  1297.26  1308.41  1313.71  1314.43
eigval :     1315.37  1323.09  1324.13  1325.77  1370.61  1371.70
eigval :     1410.00  1418.97  1427.40  1434.14  1440.62  1455.44
eigval :     1468.28  1469.22  1472.07  1488.95  1496.04  1519.82
eigval :     1532.42  1549.39  1575.55  1577.07  1579.39  1586.90
eigval :     1590.81  1594.72  1598.08  1614.39  3066.83  3070.62
eigval :     3072.01  3072.29  3073.03  3073.39  3073.71  3074.65
eigval :     3076.57  3081.46  3082.16  3082.25  3082.60  3084.47
eigval :     3084.87  3085.76  3086.98  3091.81  3093.44  3094.14
eigval :     3095.04  3096.61  3098.51

   temp. (K)  partition function   enthalpy   heat capacity  entropy
                                   cal/mol     cal/K/mol   cal/K/mol   J/K/mol
 298.15  VIB  0.188E+14            17212.780    110.085    107.391
         ROT  0.475E+08              888.752      2.981     38.108
         INT  0.893E+21            18101.532    113.066    145.500
         TR   0.110E+29             1481.254      4.968     44.529
         TOT                       19582.7859   118.0340   190.0283   795.0783

       T/K    H(0)-H(T)+PV         H(T)/Eh          T*S/Eh         G(T)/Eh
   ------------------------------------------------------------------------
    298.15    0.312072E-01    0.492098E+00    0.902886E-01    0.401809E+00
   ------------------------------------------------------------------------

         :::::::::::::::::::::::::::::::::::::::::::::::::::::
         ::                  THERMODYNAMIC                  ::
         :::::::::::::::::::::::::::::::::::::::::::::::::::::
         :: total free energy         -96.186968725472 Eh   ::
         ::.................................................::
         :: total energy              -96.588777986371 Eh   ::
         :: zero point energy           0.460890668272 Eh   ::
         :: G(RRHO) w/o ZPVE           -0.059081407373 Eh   ::
         :: G(RRHO) contrib.            0.401809260899 Eh   ::
         :::::::::::::::::::::::::::::::::::::::::::::::::::::

           -------------------------------------------------
          | TOTAL ENERGY              -96.588777986371 Eh   |
          | TOTAL ENTHALPY            -96.096680162274 Eh   |
          | TOTAL FREE ENERGY         -96.186968725472 Eh   |
          | GRADIENT NORM               0.000036100081 Eh/α |
          | HOMO-LUMO GAP               0.994193791232 eV   |
           -------------------------------------------------

 * finished run on 2025/09/10 at 11:32:01.867
