   * xtb version 6.7.1 (edcfbbe) compiled by 'albert@albert-system' on 2024-07-22

   ID    Z sym.   atoms
    1    6 C      1-6, 8-13, 15-23, 25-30, 32-41, 43-47, 49, 51-54, 56,
                  58-60, 62
    2    8 O      7, 31
    3    7 N      14, 24, 42, 48, 50, 55, 57, 61
    4    1 H      63-92

          program call               : xtb data2507/gas/DPIBPZ-DPXZ/DPIBPZ-DPXZ_gas_T1_crest.xyz --gfn 2 --spinpol --tblite --uhf 2 --ohess vtight --parallel 40 --molden --ceasefiles --namespace data2507/gas/DPIBPZ-DPXZ/DPIBPZ-DPXZ_gas_T1_finalOpt
 * total energy  :  -158.2209394 Eh     change       -0.2713682E-07 Eh
 * total energy  :  -158.2209632 Eh     change       -0.2382575E-04 Eh
 * total energy  :  -158.2209691 Eh     change       -0.5895568E-05 Eh
 * total energy  :  -158.2209706 Eh     change       -0.1533981E-05 Eh
 * total energy  :  -158.2209724 Eh     change       -0.1782645E-05 Eh
 * total energy  :  -158.2209740 Eh     change       -0.1633951E-05 Eh
 * total energy  :  -158.2209761 Eh     change       -0.2075278E-05 Eh
 * total energy  :  -158.2209785 Eh     change       -0.2344619E-05 Eh
 * total energy  :  -158.2209808 Eh     change       -0.2354643E-05 Eh
 * total energy  :  -158.2209833 Eh     change       -0.2479957E-05 Eh
 * total energy  :  -158.2210030 Eh     change       -0.4172690E-06 Eh
 * total energy  :  -158.2210034 Eh     change       -0.3749636E-06 Eh
 * total energy  :  -158.2210037 Eh     change       -0.3364293E-06 Eh
 * total energy  :  -158.2210042 Eh     change       -0.5220592E-06 Eh
 * total energy  :  -158.2210046 Eh     change       -0.4368823E-06 Eh
 * total energy  :  -158.2210050 Eh     change       -0.3040669E-06 Eh
 * total energy  :  -158.2210052 Eh     change       -0.2443465E-06 Eh
 * total energy  :  -158.2210054 Eh     change       -0.1994439E-06 Eh
 * total energy  :  -158.2210054 Eh     change       -0.5019842E-08 Eh
   *** GEOMETRY OPTIMIZATION CONVERGED AFTER 35 ITERATIONS ***

 final structure:
================
92
 xtb: 6.7.1 (edcfbbe)
C           -4.35717794420824       -6.18764649976071        3.22699820210254
C           -3.20384647328724       -5.42883866774489        3.28831773237749
C           -2.87985494214817       -4.56002131153955        2.25934216643893
C           -3.70159405828635       -4.44395790219813        1.14323277977021
C           -4.88605800758725       -5.19499513822919        1.10564697658287
C           -5.20295413915492       -6.06181672604979        2.13594416595326
O           -5.78034560887359       -5.09963859622337        0.07186904215310
C           -5.48680251976360       -4.22856925679030       -0.94403657553603
C           -6.40566160168287       -4.13252661032148       -1.97373348395593
C           -6.16459189465949       -3.29223636461957       -3.04932323928605
C           -4.99194448470987       -2.56284699881237       -3.09509201549778
C           -4.06794880021345       -2.65365445995087       -2.06721928764396
C           -4.30596880193955       -3.47023869251372       -0.96653095212096
N           -3.40391678440330       -3.58399693505028        0.08906695859069
C           -2.19117413870089       -2.85524667370810        0.08321140040517
C           -0.96716527420382       -3.53819051048373        0.02586946455235
C            0.19912275436308       -2.82346627130900        0.01058952090816
C            0.19107682746394       -1.41834910073907        0.03229127259041
C           -1.03993357052065       -0.72115759740417        0.08527935798357
C           -2.21840979390080       -1.47724157728951        0.12290057595780
C           -1.03809843946771        0.72109018823358        0.08614674973016
C           -2.21454994490011        1.48027027863380        0.12650548258244
C           -2.18361278307891        2.85821536723024        0.08797695630686
N           -3.39393118309793        3.59095540310653        0.09723025948694
C           -3.68456031668857        4.45268483372385        1.15193013157899
C           -2.86182322926199        4.56105869953605        2.26808426665308
C           -3.17845374823761        5.43188949968561        3.29763558840339
C           -4.32530991164802        6.20050443454556        3.23677409941668
C           -5.17224068867443        6.08241046475034        2.14575135521237
C           -4.86277224536573        5.21347022385362        1.11497210069915
O           -5.75786856754488        5.12602907811590        0.08121369970591
C           -5.47256812342041        4.25158800451132       -0.93415689790251
C           -6.39332487795775        4.16227143904244       -1.96275950118496
C           -6.16043431054332        3.31907871821822       -3.03787330728755
C           -4.99396150321287        2.57989980867539       -3.08423255405209
C           -4.06805219035250        2.66401144505376       -2.05750402091372
C           -4.29797389220328        3.48360407266425       -0.95733903011327
C           -0.95783324079150        3.53788213909656        0.02893331625567
C            0.20650876272319        2.82011253576738        0.01137930618874
C            0.19468511854248        1.41501375557598        0.03239499084070
C            1.43489569437562        0.70758054691315       -0.00680548530875
N            2.58892617132051        1.36424894200423       -0.04482782292345
C            3.75392664355425        0.71568561558034       -0.07239311840395
C            4.97460137470312        1.38294419799186       -0.11900962549184
C            6.18125097990712        0.69445401782823       -0.15339442911782
C            7.42746111278662        1.45091141740897       -0.27441237790624
C            8.41258456463753        1.13917130486126       -1.21696177028690
N            9.53477265734834        1.82389776503228       -1.32393040351298
C            9.69382224343774        2.84598002799142       -0.50157490233623
N            8.82498235209674        3.25976361836951        0.40293018697417
C            7.70526589010653        2.56937986620151        0.51525576735972
C            6.18041479002630       -0.71231667053516       -0.12489601989173
C            7.42958836347241       -1.47152068058850       -0.07098476014533
C            8.46540044537484       -1.16119519944222        0.81609440576307
N            9.59024685317219       -1.84833032484870        0.86245800534030
C            9.70187726812945       -2.87163851535614        0.03383171925582
N            8.78387871258285       -3.28444349949476       -0.82119063277609
C            7.66128612875426       -2.59159984710425       -0.87317509650489
C            4.97202955684322       -1.39805514975703       -0.09382791444099
C            3.75227094024033       -0.72798532073922       -0.06962166711121
N            2.58560777919478       -1.37369879413596       -0.04307671727561
C            1.43316359625773       -0.71414456634054       -0.00626929154813
H           -4.60942193006067       -6.86807326691060        4.02460208000527
H           -2.54669620287270       -5.50449804715713        4.14065868531615
H           -1.98450104912857       -3.96224895917217        2.32412218917188
H           -6.11907446032411       -6.62586384813389        2.06561554753517
H           -7.30153992196834       -4.72947966710053       -1.91523511874820
H           -6.88724017711047       -3.22109071757705       -3.84648756932452
H           -4.78362821852011       -1.91828829134702       -3.93490319245403
H           -3.14875110454458       -2.09253203373491       -2.12421000301858
H           -0.96116573004309       -4.61699930459428       -0.01192521261769
H            1.15631408579496       -3.31933151184386       -0.03401310953214
H           -3.18039082863827       -0.99244119791611        0.17915307581098
H           -3.17766927390891        0.99796978897478        0.18464137927469
H           -1.97149599332448        3.95575259195338        2.33228689955243
H           -2.52071802677038        5.50143179428500        4.15004116733690
H           -4.57168628688630        6.88266350156110        4.03473237380082
H           -6.08350558411088        6.65431097142253        2.07576557527817
H           -7.28409042250398        4.76678871961869       -1.90383867827367
H           -6.88451560224756        3.25326400608511       -3.83419391023799
H           -4.79200658889431        1.93277128681163       -3.92361930744193
H           -3.15357777136878        2.09529767580226       -2.11513282982861
H           -0.94904901963567        4.61670646183764       -0.00796038647548
H            1.16494357130775        3.31345065811184       -0.03445658679738
H            4.96401599706020        2.46149188904684       -0.15562969282145
H            8.28214095456507        0.32472734678110       -1.91936241151819
H           10.61852282921759        3.40129390457863       -0.58391101243766
H            7.00789155084298        2.90798958875090        1.27181077482395
H            8.37536833966252       -0.34572957625098        1.52363690757545
H           10.62834312684416       -3.42915369480255        0.06637204887230
H            6.92282268492246       -2.92948121737887       -1.59002192431624
H            4.96113224772082       -2.47656773362276       -0.05572052335259

 projected vibrational frequencies (cm⁻¹)
eigval :       -0.00    -0.00    -0.00    -0.00     0.00     0.00
eigval :        8.99     9.69    12.96    13.99    16.62    22.76
eigval :       31.93    37.93    40.39    42.45    43.95    57.71
eigval :       60.08    63.80    82.52    85.12    90.02    94.25
eigval :      107.22   109.33   115.65   125.18   129.22   143.47
eigval :      152.85   184.25   188.10   203.34   215.98   220.76
eigval :      235.01   239.34   241.36   247.44   249.16   264.52
eigval :      269.41   287.35   291.86   292.80   304.13   311.95
eigval :      337.22   349.65   369.53   371.61   374.11   378.09
eigval :      386.28   392.19   397.82   417.30   419.39   419.69
eigval :      429.51   429.84   434.32   437.50   443.26   444.59
eigval :      455.03   470.58   476.40   487.25   505.67   506.25
eigval :      506.54   515.08   518.58   525.36   526.46   536.37
eigval :      566.06   568.76   571.53   577.91   585.87   590.09
eigval :      597.80   607.73   611.79   618.69   622.45   623.29
eigval :      628.76   639.28   657.55   661.47   662.53   664.58
eigval :      664.83   665.76   670.24   683.86   688.69   703.37
eigval :      705.86   710.29   710.85   723.16   738.81   750.68
eigval :      766.62   776.97   778.72   778.79   779.11   802.02
eigval :      818.89   819.16   823.11   826.92   827.66   831.06
eigval :      837.55   855.83   856.08   859.21   859.38   863.75
eigval :      866.87   867.04   871.47   882.80   898.25   898.89
eigval :      899.37   900.05   901.13   915.03   915.66   915.67
eigval :      916.65   917.04   917.62   918.21   918.93   921.49
eigval :      921.61   926.94   927.46   955.15   958.56  1000.06
eigval :     1017.19  1032.73  1041.40  1065.38  1086.41  1088.54
eigval :     1088.67  1089.66  1090.18  1110.66  1110.93  1119.20
eigval :     1124.53  1140.95  1142.35  1145.36  1146.21  1168.87
eigval :     1169.40  1174.69  1175.59  1178.80  1180.02  1183.69
eigval :     1186.16  1199.19  1204.35  1204.94  1206.52  1211.02
eigval :     1228.28  1229.11  1230.55  1232.66  1241.20  1241.84
eigval :     1244.43  1247.37  1253.09  1254.85  1257.61  1258.52
eigval :     1258.82  1262.41  1283.88  1285.34  1295.34  1308.87
eigval :     1309.29  1312.04  1313.49  1317.22  1330.30  1332.38
eigval :     1339.78  1345.80  1349.37  1356.50  1358.46  1383.86
eigval :     1387.34  1397.07  1400.89  1407.94  1419.23  1421.28
eigval :     1422.53  1435.22  1437.19  1443.13  1444.13  1460.54
eigval :     1469.00  1470.73  1471.76  1482.16  1485.56  1492.01
eigval :     1502.94  1514.96  1521.78  1533.91  1540.70  1540.87
eigval :     1549.15  1556.42  1563.70  1563.81  1570.51  1573.16
eigval :     1573.41  1580.49  1583.56  1585.08  1595.29  1596.13
eigval :     3041.51  3042.18  3045.17  3045.88  3067.01  3067.15
eigval :     3089.99  3090.04  3092.11  3092.68  3093.08  3093.24
eigval :     3093.28  3093.34  3095.56  3102.13  3102.29  3102.32
eigval :     3102.41  3103.89  3104.02  3106.53  3108.58  3109.01
eigval :     3109.08  3109.49  3115.06  3115.09  3115.33  3115.55

   temp. (K)  partition function   enthalpy   heat capacity  entropy
                                   cal/mol     cal/K/mol   cal/K/mol   J/K/mol
 298.15  VIB  0.308E+23            27896.107    175.070    174.281
         ROT  0.225E+09              888.752      2.981     41.196
         INT  0.693E+31            28784.859    178.051    215.477
         TR   0.218E+29             1481.254      4.968     45.891
         TOT                       30266.1129   183.0193   261.3682  1093.5647

       T/K    H(0)-H(T)+PV         H(T)/Eh          T*S/Eh         G(T)/Eh
   ------------------------------------------------------------------------
    298.15    0.482321E-01    0.720006E+00    0.124184E+00    0.595821E+00
   ------------------------------------------------------------------------

         :::::::::::::::::::::::::::::::::::::::::::::::::::::
         ::                  THERMODYNAMIC                  ::
         :::::::::::::::::::::::::::::::::::::::::::::::::::::
         :: total free energy        -157.625184178974 Eh   ::
         ::.................................................::
         :: total energy             -158.221005467415 Eh   ::
         :: zero point energy           0.671773645588 Eh   ::
         :: G(RRHO) w/o ZPVE           -0.075952357147 Eh   ::
         :: G(RRHO) contrib.            0.595821288441 Eh   ::
         :::::::::::::::::::::::::::::::::::::::::::::::::::::

           -------------------------------------------------
          | TOTAL ENERGY             -158.221005467415 Eh   |
          | TOTAL ENTHALPY           -157.500999700877 Eh   |
          | TOTAL FREE ENERGY        -157.625184178974 Eh   |
          | GRADIENT NORM               0.000065000803 Eh/α |
           -------------------------------------------------

 * finished run on 2025/08/22 at 18:06:54.052
