   * xtb version 6.7.1 (edcfbbe) compiled by 'albert@albert-system' on 2024-07-22

   ID    Z sym.   atoms
    1    6 C      1-6, 8-13, 15-23, 25-30, 32-41, 43-47, 49, 51-54, 56,
                  58-60, 62
    2    8 O      7, 31
    3    7 N      14, 24, 42, 48, 50, 55, 57, 61
    4    1 H      63-92

          program call               : xtb data2507/gas/DPIBPZ-DPXZ/DPIBPZ-DPXZ.xyz --gfn 2 --ohess vtight --parallel 40 --molden --ceasefiles --namespace data2507/gas/DPIBPZ-DPXZ/DPIBPZ-DPXZ_gas_S0_preOpt
          :  Hamiltonian                  GFN2-xTB          :
 * total energy  :  -158.2200998 Eh     change       -0.9746373E-08 Eh
 * total energy  :  -158.2425567 Eh     change       -0.2245691E-01 Eh
 * total energy  :  -158.2494623 Eh     change       -0.6905566E-02 Eh
 * total energy  :  -158.2516133 Eh     change       -0.2151006E-02 Eh
 * total energy  :  -158.2533633 Eh     change       -0.1749980E-02 Eh
 * total energy  :  -158.2540810 Eh     change       -0.7177697E-03 Eh
 * total energy  :  -158.2543884 Eh     change       -0.3073241E-03 Eh
 * total energy  :  -158.2546060 Eh     change       -0.2176395E-03 Eh
 * total energy  :  -158.2548464 Eh     change       -0.2403833E-03 Eh
 * total energy  :  -158.2550898 Eh     change       -0.2434088E-03 Eh
 * total energy  :  -158.2584364 Eh     change       -0.1382964E-05 Eh
 * total energy  :  -158.2584376 Eh     change       -0.1222351E-05 Eh
 * total energy  :  -158.2584386 Eh     change       -0.9817504E-06 Eh
 * total energy  :  -158.2584393 Eh     change       -0.7013465E-06 Eh
 * total energy  :  -158.2584398 Eh     change       -0.5209064E-06 Eh
 * total energy  :  -158.2584403 Eh     change       -0.5032459E-06 Eh
 * total energy  :  -158.2584408 Eh     change       -0.4668849E-06 Eh
 * total energy  :  -158.2584411 Eh     change       -0.3187072E-06 Eh
 * total energy  :  -158.2584411 Eh     change       -0.8511080E-08 Eh
   *** GEOMETRY OPTIMIZATION CONVERGED AFTER 122 ITERATIONS ***

 final structure:
================
92
 xtb: 6.7.1 (edcfbbe)
C           -4.07436067162216       -6.22446119023127        3.24056261796738
C           -2.92810213980750       -5.45760480724671        3.29317508441548
C           -2.62619935608619       -4.57611936907038        2.26647106726931
C           -3.46029501834973       -4.45717256241158        1.16167835411692
C           -4.64164250917350       -5.20998960544725        1.13813291270805
C           -4.93715985086655       -6.08940118191359        2.16337247286054
O           -5.56165753575643       -5.10465354656676        0.12600233393286
C           -5.28715665068836       -4.22553333991663       -0.89077436559936
C           -6.22299843392010       -4.13390668340613       -1.90457015132500
C           -6.00379689160317       -3.29591997571742       -2.98736636488493
C           -4.83322973781748       -2.56832898136908       -3.05598713213814
C           -3.89255658594948       -2.65505860886541       -2.04098208674208
C           -4.11204757878290       -3.46274027268948       -0.93186377198513
N           -3.18574652556695       -3.57675559978750        0.11023651481868
C           -1.97556965936569       -2.85853810114676        0.08059008273499
C           -0.75526248994397       -3.54159995303803        0.06615233979457
C            0.41647972693489       -2.82810059667327        0.04286988068768
C            0.40867482333162       -1.42923322502495        0.02037036604216
C           -0.81399682752646       -0.72774162905537        0.01743468662976
C           -1.99384314502759       -1.47292991477517        0.06252427360849
C           -0.81415113165323        0.72863200573030       -0.01754708131477
C           -1.99426863266103        1.47343013581800       -0.06160616578424
C           -1.97656073067688        2.85905722253338       -0.07953303378963
N           -3.18709984220475        3.57670377507340       -0.10794743574154
C           -4.11272967447261        3.46138311737521        0.93464660660300
C           -3.89188718224068        2.65345418832200        2.04332385045121
C           -4.83195821134744        2.56533011528356        3.05876884551533
C           -6.00329245967745        3.29178036633912        2.99108528086339
C           -6.22383060042215        4.13007140821396        1.90880291342152
C           -5.28857830283811        4.22308752838175        0.89458314501853
O           -5.56443389728402        5.10251171666787       -0.12154294550159
C           -4.64486591006379        5.20954370515392       -1.13388554848439
C           -4.94158016502833        6.08963879558457       -2.15819603149765
C           -4.07941072052584        6.22635384940698       -3.23567060879687
C           -2.93259867117553        5.46041006761826       -3.28951222750245
C           -2.62948652806560        4.57827212554686       -2.26372181612278
C           -3.46289301100774        4.45773216901521       -1.15857978047811
C           -0.75643572739940        3.54248329705920       -0.06605378969002
C            0.41558066513171        2.82935930917555       -0.04384829376595
C            0.40834971589447        1.43048244790680       -0.02145263092475
C            1.66226568656418        0.71579993969786       -0.00935006072708
N            2.79045779768840        1.40131673298701       -0.02198445110482
C            3.94116006561704        0.71392929632563       -0.01391811452979
C            5.17007223828459        1.40070291759677       -0.03803601994028
C            6.35798853050415        0.71317615344139       -0.03103995138189
C            7.62153456755380        1.45008975403532       -0.12613584107215
C            8.61239675240143        1.13210146767428       -1.05892405987652
N            9.74967367070657        1.79557586895994       -1.13711463130708
C            9.91697855556290        2.80100000873893       -0.29673527909339
N            9.04269001375051        3.21792322900039        0.60062784907364
C            7.90833317202883        2.54854367811499        0.68669736250045
C            6.35797789317179       -0.71171144135828        0.02511285299729
C            7.62129003147268       -1.44908939867678        0.11979727223034
C            8.61243593614152       -1.13170671085229        1.05248051217860
N            9.74901042671142       -1.79634209041803        1.13104898805669
C            9.91532931499923       -2.80230014653046        0.29111396773323
N            9.04085378605788       -3.21842623184065       -0.60643513216909
C            7.90720663108262       -2.54789780849818       -0.69287772668100
C            5.17001675381784       -1.39910515160967        0.03292662500875
C            3.94119261211694       -0.71219849004020        0.00974774920013
N            2.79057520958392       -1.39964634856231        0.01882932037125
C            1.66235454674781       -0.71421431119419        0.00718292229232
H           -4.31062905544695       -6.91615340484633        4.03349041591641
H           -2.25780496225490       -5.53389755077329        4.13537182648475
H           -1.73594014812881       -3.97034340663235        2.33069231121397
H           -5.85230517449077       -6.65608871622830        2.10106365823274
H           -7.11532870810048       -4.73442574160985       -1.82949271543374
H           -6.74074835677436       -3.22862623619016       -3.77180219589879
H           -4.63635852137374       -1.92814136750598       -3.90211968342205
H           -2.97325083794662       -2.09658480398805       -2.12224096399335
H           -0.74824839574986       -4.62111485059890        0.06812397224448
H            1.37293113743504       -3.32602612096047        0.03208133068849
H           -2.95449382098737       -0.98411005745854        0.09617520648880
H           -2.95475029973514        0.98423050759950       -0.09452439573782
H           -2.97197677125786        2.09588620810299        2.12392156596187
H           -4.63403233691203        1.92492318455943        3.90448770879318
H           -6.73986497739447        3.22326236549963        3.77577095897638
H           -7.11680826816516        4.72970984412038        1.83439759044885
H           -5.85716404310331        6.65551177762621       -2.09492380394236
H           -4.31659138668976        6.91858363226402       -4.02785577136234
H           -2.26280673005527        5.53791819298367       -4.13199776529854
H           -1.73882707146192        3.97320112837333       -2.32898576343020
H           -0.74972719891769        4.62200074233788       -0.06780974513995
H            1.37184368856756        3.32766609916232       -0.03377427011198
H            5.15122715020046        2.47874748349387       -0.08920823709592
H            8.47678923884211        0.33191342999415       -1.77653410365358
H           10.85415790849591        3.33779424735735       -0.35569968607202
H            7.20619004920856        2.88751860708414        1.43853411171278
H            8.47760146563015       -0.33107795835854        1.76974287720370
H           10.85177838503738       -3.34030261447899        0.35066198557701
H            7.20490517343552       -2.88628595426309       -1.44483240213948
H            5.15104075082495       -2.47714478550488        0.08413346164852

          :  Hamiltonian                  GFN2-xTB          :
         :: gradient norm              0.000060774575 Eh/a0 ::
         :: HOMO-LUMO gap              0.857161935341 eV    ::
         :: SCC energy              -160.954457838481 Eh    ::
         :: -> dispersion             -0.137206930234 Eh    ::
         :: repulsion energy           2.696016708853 Eh    ::

    * Orbital Energies and Occupations

         #    Occupation            Energy/Eh            Energy/eV
      -------------------------------------------------------------
         1        2.0000           -0.7320498             -19.9201
       ...           ...                  ...                  ...
       133        2.0000           -0.4168180             -11.3422
       134        2.0000           -0.4164398             -11.3319
       135        2.0000           -0.4147428             -11.2857
       136        2.0000           -0.4140648             -11.2673
       137        2.0000           -0.4070482             -11.0763
       138        2.0000           -0.4049624             -11.0196
       139        2.0000           -0.3941674             -10.7258
       140        2.0000           -0.3938964             -10.7185
       141        2.0000           -0.3788648             -10.3094
       142        2.0000           -0.3773597             -10.2685
       143        2.0000           -0.3622606              -9.8576
       144        2.0000           -0.3481147              -9.4727
       145        2.0000           -0.3479121              -9.4672 (HOMO)
       146        0.0000           -0.3164120              -8.6100 (LUMO)
       147                         -0.2886364              -7.8542
       148                         -0.2825309              -7.6881
       149                         -0.2765810              -7.5262
       150                         -0.2718887              -7.3985
       151                         -0.2705468              -7.3620
       152                         -0.2655493              -7.2260
       153                         -0.2425278              -6.5995
       154                         -0.2425143              -6.5991
       155                         -0.2394378              -6.5154
       156                         -0.2339048              -6.3649
       ...                                ...                  ...
       278                          0.7013353              19.0843
      -------------------------------------------------------------
                  HL-Gap            0.0315001 Eh            0.8572 eV

     #   Z          covCN         q      C6AA      α(0)
     1   6 C        2.919    -0.039    28.973     8.827
     2   6 C        2.919    -0.038    28.953     8.824
     3   6 C        2.924    -0.059    29.471     8.903
     4   6 C        2.922     0.042    27.057     8.530
     5   6 C        2.884     0.125    25.250     8.238
     6   6 C        2.920    -0.056    29.384     8.889
     7   8 O        1.709    -0.253    18.191     5.759
     8   6 C        2.885     0.125    25.249     8.238
     9   6 C        2.920    -0.056    29.381     8.889
    10   6 C        2.919    -0.039    28.975     8.827
    11   6 C        2.919    -0.038    28.957     8.824
    12   6 C        2.924    -0.060    29.494     8.906
    13   6 C        2.921     0.042    27.061     8.531
    14   7 N        2.752    -0.069    22.576     7.057
    15   6 C        2.919     0.069    26.466     8.436
    16   6 C        2.919    -0.040    29.005     8.832
    17   6 C        2.923    -0.027    28.678     8.782
    18   6 C        2.988    -0.005    28.136     8.701
    19   6 C        2.976     0.008    27.840     8.655
    20   6 C        2.925    -0.047    29.177     8.858
    21   6 C        2.976     0.008    27.840     8.655
    22   6 C        2.925    -0.047    29.178     8.858
    23   6 C        2.919     0.069    26.467     8.436
    24   7 N        2.752    -0.069    22.575     7.057
    25   6 C        2.921     0.042    27.061     8.531
    26   6 C        2.924    -0.060    29.494     8.906
    27   6 C        2.919    -0.038    28.957     8.824
    28   6 C        2.919    -0.039    28.975     8.827
    29   6 C        2.920    -0.056    29.381     8.889
    30   6 C        2.885     0.125    25.249     8.238
    31   8 O        1.709    -0.253    18.191     5.759
    32   6 C        2.884     0.125    25.250     8.238
    33   6 C        2.920    -0.056    29.383     8.889
    34   6 C        2.919    -0.039    28.973     8.827
    35   6 C        2.919    -0.038    28.953     8.824
    36   6 C        2.924    -0.059    29.471     8.903
    37   6 C        2.922     0.042    27.058     8.530
    38   6 C        2.918    -0.040    29.006     8.832
    39   6 C        2.923    -0.027    28.678     8.782
    40   6 C        2.988    -0.005    28.136     8.701
    41   6 C        2.962     0.085    26.108     8.381
    42   7 N        1.849    -0.240    27.128     7.719
    43   6 C        2.966     0.082    26.178     8.392
    44   6 C        2.923    -0.045    29.123     8.850
    45   6 C        2.974     0.003    27.942     8.671
    46   6 C        2.967    -0.007    28.182     8.708
    47   6 C        2.938     0.078    26.267     8.406
    48   7 N        1.833    -0.225    26.766     7.667
    49   6 C        2.926     0.150    24.736     8.156
    50   7 N        1.833    -0.223    26.721     7.660
    51   6 C        2.938     0.075    26.331     8.416
    52   6 C        2.974     0.003    27.942     8.671
    53   6 C        2.967    -0.007    28.182     8.708
    54   6 C        2.938     0.078    26.267     8.406
    55   7 N        1.833    -0.225    26.765     7.667
    56   6 C        2.926     0.150    24.736     8.156
    57   7 N        1.833    -0.223    26.721     7.660
    58   6 C        2.938     0.075    26.331     8.416
    59   6 C        2.923    -0.045    29.123     8.850
    60   6 C        2.966     0.082    26.178     8.392
    61   7 N        1.849    -0.240    27.128     7.719
    62   6 C        2.962     0.085    26.108     8.381
    63   1 H        0.926     0.040     2.454     2.449
    64   1 H        0.926     0.037     2.486     2.465
    65   1 H        0.926     0.035     2.510     2.478
    66   1 H        0.926     0.052     2.298     2.371
    67   1 H        0.926     0.052     2.296     2.370
    68   1 H        0.926     0.040     2.454     2.450
    69   1 H        0.926     0.037     2.494     2.470
    70   1 H        0.926     0.035     2.520     2.482
    71   1 H        0.926     0.047     2.359     2.402
    72   1 H        0.926     0.066     2.129     2.282
    73   1 H        0.926     0.047     2.362     2.403
    74   1 H        0.926     0.047     2.362     2.403
    75   1 H        0.926     0.035     2.520     2.482
    76   1 H        0.926     0.037     2.494     2.470
    77   1 H        0.926     0.040     2.454     2.450
    78   1 H        0.926     0.052     2.296     2.370
    79   1 H        0.926     0.052     2.298     2.371
    80   1 H        0.926     0.040     2.453     2.449
    81   1 H        0.926     0.037     2.486     2.465
    82   1 H        0.926     0.035     2.510     2.478
    83   1 H        0.926     0.047     2.359     2.402
    84   1 H        0.926     0.066     2.129     2.282
    85   1 H        0.926     0.055     2.254     2.348
    86   1 H        0.925     0.039     2.458     2.452
    87   1 H        0.925     0.055     2.259     2.350
    88   1 H        0.925     0.049     2.338     2.391
    89   1 H        0.925     0.039     2.458     2.452
    90   1 H        0.925     0.055     2.259     2.350
    91   1 H        0.925     0.049     2.338     2.391
    92   1 H        0.926     0.055     2.254     2.348

molecular dipole:
                 x           y           z       tot (Debye)
 q only:       -0.919       0.001       0.000
   full:       -1.371       0.001       0.000       3.486

 projected vibrational frequencies (cm⁻¹)
eigval :       -0.00     0.00     0.00     0.00     0.00     0.00
eigval :        8.38    11.97    13.94    14.18    16.51    22.32
eigval :       33.13    38.03    39.28    40.80    42.40    55.86
eigval :       59.54    61.29    81.90    83.76    92.16    96.74
eigval :      104.23   107.29   117.75   126.12   130.29   143.54
eigval :      156.78   185.07   193.00   206.65   211.07   223.14
eigval :      237.52   241.71   244.14   248.92   252.85   263.31
eigval :      269.29   286.22   290.53   291.03   301.22   321.63
eigval :      336.87   366.51   367.16   370.18   370.53   378.50
eigval :      388.48   391.30   398.50   418.73   419.64   422.56
eigval :      430.46   431.12   436.06   438.34   443.46   451.92
eigval :      457.79   458.53   476.37   487.39   499.97   509.68
eigval :      509.77   517.89   519.81   524.63   529.50   539.81
eigval :      569.21   571.35   575.37   581.57   585.89   594.91
eigval :      599.18   608.81   611.75   620.61   627.02   632.76
eigval :      647.31   649.71   659.92   659.93   661.93   661.94
eigval :      667.88   671.86   689.86   693.31   706.06   709.79
eigval :      710.81   713.16   732.97   755.11   755.38   766.26
eigval :      769.18   778.81   779.33   779.47   779.76   804.32
eigval :      823.74   829.18   830.99   835.28   836.64   854.55
eigval :      855.87   855.91   861.17   862.18   863.60   868.19
eigval :      868.46   876.45   877.83   887.35   898.46   898.74
eigval :      900.19   901.67   907.42   915.22   915.24   916.23
eigval :      916.59   917.42   918.31   922.76   923.16   927.22
eigval :      928.99   931.84   931.89   956.48   977.27  1003.77
eigval :     1015.80  1034.10  1048.74  1064.11  1080.07  1090.85
eigval :     1090.90  1091.63  1092.28  1109.04  1109.05  1120.35
eigval :     1124.78  1141.48  1142.47  1145.79  1147.01  1170.12
eigval :     1170.17  1175.59  1175.63  1178.79  1179.23  1185.97
eigval :     1186.48  1197.30  1202.57  1202.82  1207.35  1212.65
eigval :     1225.76  1227.58  1229.29  1230.76  1236.02  1243.94
eigval :     1244.28  1252.61  1253.33  1261.10  1262.31  1262.43
eigval :     1271.26  1278.38  1281.30  1282.90  1308.90  1310.59
eigval :     1311.05  1314.71  1323.17  1328.44  1336.75  1342.56
eigval :     1348.34  1352.89  1354.83  1378.32  1388.07  1388.98
eigval :     1395.94  1402.58  1404.57  1421.99  1423.98  1434.43
eigval :     1441.11  1442.55  1444.93  1446.79  1462.39  1469.81
eigval :     1481.05  1486.15  1487.11  1491.25  1502.68  1503.13
eigval :     1520.52  1541.30  1544.01  1544.12  1549.54  1551.92
eigval :     1553.04  1567.73  1567.83  1576.42  1580.23  1580.34
eigval :     1585.51  1590.14  1590.43  1591.63  1602.39  1602.53
eigval :     3043.43  3043.82  3047.32  3047.90  3070.18  3070.34
eigval :     3089.50  3089.51  3090.02  3090.04  3092.85  3092.92
eigval :     3095.18  3095.44  3099.28  3099.56  3099.71  3099.74
eigval :     3101.20  3105.75  3105.96  3106.51  3106.57  3111.92
eigval :     3113.16  3113.21  3113.92  3113.93  3114.38  3114.51

   temp. (K)  partition function   enthalpy   heat capacity  entropy
                                   cal/mol     cal/K/mol   cal/K/mol   J/K/mol
 298.15  VIB  0.246E+23            27765.719    173.943    173.363
         ROT  0.112E+09              888.752      2.981     39.812
         INT  0.276E+31            28654.472    176.924    213.175
         TR   0.218E+29             1481.254      4.968     45.891
         TOT                       30135.7257   181.8921   259.0664  1083.9337

       T/K    H(0)-H(T)+PV         H(T)/Eh          T*S/Eh         G(T)/Eh
   ------------------------------------------------------------------------
    298.15    0.480243E-01    0.722179E+00    0.123091E+00    0.599088E+00
   ------------------------------------------------------------------------

         :::::::::::::::::::::::::::::::::::::::::::::::::::::
         ::                  THERMODYNAMIC                  ::
         :::::::::::::::::::::::::::::::::::::::::::::::::::::
         :: total free energy        -157.659353230055 Eh   ::
         ::.................................................::
         :: total energy             -158.258441129626 Eh   ::
         :: zero point energy           0.674154351601 Eh   ::
         :: G(RRHO) w/o ZPVE           -0.075066452030 Eh   ::
         :: G(RRHO) contrib.            0.599087899571 Eh   ::
         :::::::::::::::::::::::::::::::::::::::::::::::::::::

           -------------------------------------------------
          | TOTAL ENERGY             -158.258441129626 Eh   |
          | TOTAL ENTHALPY           -157.536262442218 Eh   |
          | TOTAL FREE ENERGY        -157.659353230055 Eh   |
          | GRADIENT NORM               0.000060763670 Eh/α |
          | HOMO-LUMO GAP               0.857161452633 eV   |
           -------------------------------------------------

 * finished run on 2025/08/22 at 17:53:19.755
