   * xtb version 6.7.1 (edcfbbe) compiled by 'albert@albert-system' on 2024-07-22

   ID    Z sym.   atoms
    1    6 C      1-6, 8-13, 15-23, 25-30, 32-41, 43-47, 49, 51-54, 56,
                  58-60, 62
    2    8 O      7, 31
    3    7 N      14, 24, 42, 48, 50, 55, 57, 61
    4    1 H      63-92

          program call               : xtb data2507/gas/DPIBPZ-DPXZ/DPIBPZ-DPXZ_gas_S0_crest.xyz --gfn 2 --ohess vtight --parallel 40 --molden --ceasefiles --namespace data2507/gas/DPIBPZ-DPXZ/DPIBPZ-DPXZ_gas_S0_finalOpt
          :  Hamiltonian                  GFN2-xTB          :
 * total energy  :  -158.2592482 Eh     change       -0.2630600E-08 Eh
 * total energy  :  -158.2592495 Eh     change       -0.1287140E-05 Eh
 * total energy  :  -158.2592505 Eh     change       -0.1070758E-05 Eh
 * total energy  :  -158.2592519 Eh     change       -0.1361785E-05 Eh
 * total energy  :  -158.2592513 Eh     change        0.5753357E-06 Eh
 * total energy  :  -158.2592524 Eh     change       -0.1102262E-05 Eh
 * total energy  :  -158.2592519 Eh     change        0.5026785E-06 Eh
 * total energy  :  -158.2592528 Eh     change       -0.9109534E-06 Eh
 * total energy  :  -158.2592532 Eh     change       -0.3383302E-06 Eh
 * total energy  :  -158.2592537 Eh     change       -0.5777200E-06 Eh
 * total energy  :  -158.2592554 Eh     change       -0.3681570E-06 Eh
 * total energy  :  -158.2592557 Eh     change       -0.3149025E-06 Eh
 * total energy  :  -158.2592560 Eh     change       -0.2824814E-06 Eh
 * total energy  :  -158.2592562 Eh     change       -0.2767940E-06 Eh
 * total energy  :  -158.2592565 Eh     change       -0.2831211E-06 Eh
 * total energy  :  -158.2592568 Eh     change       -0.2915187E-06 Eh
 * total energy  :  -158.2592571 Eh     change       -0.2752741E-06 Eh
 * total energy  :  -158.2592573 Eh     change       -0.2368738E-06 Eh
 * total energy  :  -158.2592573 Eh     change       -0.1028320E-07 Eh
   *** GEOMETRY OPTIMIZATION CONVERGED AFTER 22 ITERATIONS ***

 final structure:
================
92
 xtb: 6.7.1 (edcfbbe)
C           -6.33209576788279       -2.86508592155896        2.83631771850120
C           -5.13643653017367       -2.17851342822449        2.89166792118670
C           -4.15325068808397       -2.40295765213426        1.94051113165753
C           -4.35350952093064       -3.30866310281229        0.90536862958079
C           -5.55354066565017       -4.03253938920745        0.88552394431531
C           -6.53209832951136       -3.80343745037933        1.83553348441713
O           -5.81328885903183       -5.00618647007866       -0.04492389016758
C           -4.86336329646535       -5.23114953356193       -1.00862369994416
C           -5.15368644741749       -6.19154646710979       -1.96015980575537
C           -4.26210047809453       -6.44837078749563       -2.99052484953548
C           -3.09272451807058       -5.72001216896916       -3.07379112044148
C           -2.79609872722710       -4.75790375545689       -2.12068594507269
C           -3.65851599444861       -4.51790608289178       -1.05798941944563
N           -3.38795535808859       -3.55745699333085       -0.07730232126697
C           -2.17147021558099       -2.85172612277228       -0.08351541525286
C           -0.95510892384492       -3.53755821555883       -0.00080022826893
C            0.21994219527666       -2.82847439611132        0.00678749207258
C            0.22020908799629       -1.43022840275182       -0.04466322096139
C           -0.99836733416867       -0.72627275274337       -0.11870477200703
C           -2.17988505784159       -1.46766979989226       -0.15576644695326
C           -0.99665983345762        0.72982846393650       -0.11911997123644
C           -2.17610414641105        1.47380076330874       -0.16681601058531
C           -2.16573429549390        2.85774850635240       -0.09231943850912
N           -3.38094045687752        3.56547255219177       -0.09819153628607
C           -4.35935184498293        3.31342561525096        0.87099567365534
C           -4.17335027503618        2.40322097253874        1.90489772517364
C           -5.16951773159071        2.17443349372980        2.84137172531916
C           -6.36422009031669        2.86150411201173        2.77281208625112
C           -6.55011679667042        3.80486455490704        1.77404901475206
C           -5.55863373457751        4.03805674072848        0.83851246783585
O           -5.80532767548480        5.01639964660151       -0.09052580400806
C           -4.84249986424723        5.24540277461666       -1.04031913964783
C           -5.11933009651121        6.21122867782894       -1.99040931524391
C           -4.21442531941479        6.47205545091758       -3.00805096503891
C           -3.04536086071207        5.74203635491535       -3.08049804429848
C           -2.76216003061426        4.77468024128136       -2.12862370132869
C           -3.63797007826914        4.53086613243497       -1.07779138181229
C           -0.94875141196783        3.54075174736485        0.00426497687260
C            0.22483044004223        2.82927799670208        0.01894963080565
C            0.22296119336040        1.43118819266331       -0.03674469058734
C            1.47528875107363        0.71464420128734       -0.00048362140197
N            2.60365850875054        1.39872108377662        0.03760582136988
C            3.75317617823804        0.70968254589269        0.07042141863916
C            4.98249666628894        1.39524147688071        0.10188282830088
C            6.16931642329075        0.70621980081156        0.12991027958196
C            7.43567039174758        1.44366464855187        0.09471853066340
C            8.45521856451804        1.15004669622899       -0.81480794831813
N            9.59490128800462        1.81362811418845       -0.83871446896959
C            9.73636711375434        2.79494659511361        0.03426325152503
N            8.83461679919553        3.18811802541432        0.91502880855337
C            7.69753863719774        2.51852125297738        0.94653067061743
C            6.16689656266117       -0.71944522718673        0.14984517640225
C            7.42642462878404       -1.46071798751896        0.26291553838227
C            8.38889529033571       -1.17040404188906        1.23360800441495
N            9.52248262176013       -1.83813215803608        1.32798195368943
C            9.71399467426250       -2.82037067198195        0.46564086074916
N            8.86691801946300       -3.21069576980565       -0.46901486522965
C            7.73642309419303       -2.53696714506033       -0.57081210122290
C            4.97880982278712       -1.40532283606865        0.10505458421965
C            3.75170676686785       -0.71652172948937        0.06254214308371
N            2.60083897749596       -1.40284857003151        0.02309305272923
C            1.47389873660556       -0.71616527919391       -0.00755350007613
H           -7.10291436338346       -2.68945012576589        3.56969882032913
H           -4.95264631263232       -1.46383129935591        3.67881636019440
H           -3.21612053904221       -1.87444897618622        2.01598456386211
H           -7.44266437324220       -4.37780324719466        1.77654064132638
H           -6.08799059866643       -6.72348922957014       -1.87875201659927
H           -4.49425041898163       -7.20274530617828       -3.72536334574479
H           -2.39996063563251       -5.88946970161999       -3.88356641144160
H           -1.88780452710916       -4.18332266196652       -2.21163866633257
H           -0.95298036243416       -4.61479510481098        0.06900371636568
H            1.17263824062740       -3.32940851458417        0.07287485313903
H           -3.13638047691612       -0.97709839149070       -0.23944620231251
H           -3.13251534519312        0.98536538707357       -0.26288664945789
H           -3.23740147827886        1.87426071340537        1.99101365203290
H           -4.99688082805114        1.45557376368189        3.62720151738289
H           -7.14517023789985        2.68233170424193        3.49451177760604
H           -7.45958883515778        4.37988347267289        1.70537451837041
H           -6.05387463521829        6.74407035762402       -1.91812792528802
H           -4.43608936429273        7.23066311313893       -3.74177244828940
H           -2.34231138583202        5.91432093247626       -3.88076405422298
H           -1.85381017665476        4.19896231052992       -2.21143598698023
H           -0.94486753741880        4.61776599163877        0.07735960926437
H            1.17796141405519        3.32831161378975        0.09272989279553
H            4.96587145791171        2.47424606228824        0.07655647002082
H            8.34167716260218        0.37017966882084       -1.55815963146663
H           10.67533697437428        3.33166601510153        0.01974495137424
H            6.97227912536980        2.83759127811486        1.68502547001946
H            8.23248457129074       -0.38991292396678        1.96847394304441
H           10.64828169406331       -3.36053688594286        0.53821617843994
H            7.05684067602461       -2.85379204650576       -1.35245539053886
H            4.95773063381556       -2.48426822296280        0.12958713246231

          :  Hamiltonian                  GFN2-xTB          :
         :: gradient norm              0.000060842853 Eh/a0 ::
         :: HOMO-LUMO gap              0.882235880238 eV    ::
         :: SCC energy              -160.955575061182 Eh    ::
         :: -> dispersion             -0.138780450669 Eh    ::
         :: repulsion energy           2.696317730487 Eh    ::

    * Orbital Energies and Occupations

         #    Occupation            Energy/Eh            Energy/eV
      -------------------------------------------------------------
         1        2.0000           -0.7325764             -19.9344
       ...           ...                  ...                  ...
       133        2.0000           -0.4172646             -11.3543
       134        2.0000           -0.4160182             -11.3204
       135        2.0000           -0.4141664             -11.2700
       136        2.0000           -0.4135597             -11.2535
       137        2.0000           -0.4067365             -11.0679
       138        2.0000           -0.4042824             -11.0011
       139        2.0000           -0.3944505             -10.7335
       140        2.0000           -0.3940276             -10.7220
       141        2.0000           -0.3784980             -10.2995
       142        2.0000           -0.3769830             -10.2582
       143        2.0000           -0.3615642              -9.8387
       144        2.0000           -0.3488676              -9.4932
       145        2.0000           -0.3480605              -9.4712 (HOMO)
       146                         -0.3156389              -8.5890 (LUMO)
       147                         -0.2880424              -7.8380
       148                         -0.2821404              -7.6774
       149                         -0.2761969              -7.5157
       150                         -0.2712957              -7.3823
       151                         -0.2700038              -7.3472
       152                         -0.2650691              -7.2129
       153                         -0.2430076              -6.6126
       154                         -0.2429406              -6.6107
       155                         -0.2391712              -6.5082
       156                         -0.2342827              -6.3752
       ...                                ...                  ...
       278                          0.7021801              19.1073
      -------------------------------------------------------------
                  HL-Gap            0.0324216 Eh            0.8822 eV

     #   Z          covCN         q      C6AA      α(0)
     1   6 C        2.919    -0.039    28.970     8.826
     2   6 C        2.919    -0.038    28.943     8.822
     3   6 C        2.924    -0.060    29.485     8.905
     4   6 C        2.921     0.042    27.067     8.532
     5   6 C        2.885     0.126    25.246     8.237
     6   6 C        2.920    -0.056    29.381     8.889
     7   8 O        1.709    -0.253    18.187     5.758
     8   6 C        2.885     0.125    25.250     8.238
     9   6 C        2.920    -0.056    29.382     8.889
    10   6 C        2.919    -0.039    28.969     8.826
    11   6 C        2.919    -0.038    28.951     8.823
    12   6 C        2.924    -0.059    29.470     8.902
    13   6 C        2.922     0.042    27.060     8.531
    14   7 N        2.751    -0.068    22.554     7.053
    15   6 C        2.919     0.068    26.477     8.438
    16   6 C        2.918    -0.041    29.021     8.834
    17   6 C        2.923    -0.027    28.680     8.782
    18   6 C        2.988    -0.005    28.143     8.702
    19   6 C        2.976     0.008    27.845     8.656
    20   6 C        2.926    -0.048    29.196     8.861
    21   6 C        2.976     0.008    27.845     8.656
    22   6 C        2.926    -0.048    29.197     8.861
    23   6 C        2.919     0.068    26.478     8.438
    24   7 N        2.751    -0.068    22.552     7.053
    25   6 C        2.921     0.042    27.068     8.532
    26   6 C        2.924    -0.060    29.485     8.905
    27   6 C        2.919    -0.038    28.944     8.822
    28   6 C        2.919    -0.039    28.970     8.826
    29   6 C        2.920    -0.056    29.381     8.889
    30   6 C        2.885     0.126    25.246     8.237
    31   8 O        1.709    -0.253    18.186     5.758
    32   6 C        2.885     0.125    25.250     8.238
    33   6 C        2.920    -0.056    29.381     8.889
    34   6 C        2.919    -0.039    28.969     8.826
    35   6 C        2.919    -0.038    28.951     8.823
    36   6 C        2.924    -0.059    29.470     8.902
    37   6 C        2.922     0.042    27.060     8.531
    38   6 C        2.918    -0.041    29.022     8.834
    39   6 C        2.923    -0.027    28.681     8.782
    40   6 C        2.988    -0.005    28.144     8.702
    41   6 C        2.962     0.085    26.108     8.381
    42   7 N        1.849    -0.241    27.137     7.721
    43   6 C        2.966     0.081    26.181     8.393
    44   6 C        2.923    -0.045    29.125     8.850
    45   6 C        2.974     0.003    27.946     8.671
    46   6 C        2.967    -0.007    28.181     8.708
    47   6 C        2.938     0.078    26.268     8.406
    48   7 N        1.833    -0.225    26.769     7.667
    49   6 C        2.926     0.150    24.736     8.156
    50   7 N        1.833    -0.224    26.725     7.661
    51   6 C        2.938     0.075    26.331     8.416
    52   6 C        2.974     0.003    27.946     8.671
    53   6 C        2.967    -0.007    28.181     8.708
    54   6 C        2.938     0.078    26.268     8.406
    55   7 N        1.833    -0.225    26.769     7.667
    56   6 C        2.926     0.150    24.736     8.156
    57   7 N        1.833    -0.224    26.724     7.661
    58   6 C        2.938     0.075    26.331     8.416
    59   6 C        2.923    -0.045    29.125     8.850
    60   6 C        2.966     0.081    26.181     8.393
    61   7 N        1.849    -0.241    27.137     7.721
    62   6 C        2.962     0.085    26.108     8.381
    63   1 H        0.926     0.040     2.451     2.448
    64   1 H        0.926     0.036     2.504     2.474
    65   1 H        0.926     0.035     2.512     2.478
    66   1 H        0.926     0.052     2.294     2.369
    67   1 H        0.926     0.052     2.297     2.370
    68   1 H        0.926     0.040     2.451     2.448
    69   1 H        0.926     0.038     2.481     2.463
    70   1 H        0.926     0.037     2.495     2.470
    71   1 H        0.926     0.047     2.359     2.402
    72   1 H        0.926     0.066     2.134     2.284
    73   1 H        0.926     0.046     2.367     2.406
    74   1 H        0.926     0.046     2.367     2.406
    75   1 H        0.926     0.035     2.510     2.478
    76   1 H        0.926     0.036     2.501     2.473
    77   1 H        0.926     0.040     2.451     2.448
    78   1 H        0.926     0.052     2.294     2.368
    79   1 H        0.926     0.052     2.296     2.370
    80   1 H        0.926     0.040     2.451     2.448
    81   1 H        0.926     0.038     2.481     2.463
    82   1 H        0.926     0.037     2.494     2.470
    83   1 H        0.926     0.047     2.359     2.402
    84   1 H        0.926     0.066     2.134     2.285
    85   1 H        0.926     0.055     2.256     2.349
    86   1 H        0.925     0.039     2.459     2.452
    87   1 H        0.925     0.055     2.260     2.351
    88   1 H        0.925     0.048     2.340     2.392
    89   1 H        0.925     0.039     2.459     2.452
    90   1 H        0.925     0.055     2.260     2.351
    91   1 H        0.925     0.048     2.340     2.392
    92   1 H        0.926     0.055     2.256     2.349

molecular dipole:
                 x           y           z       tot (Debye)
 q only:       -1.010       0.004      -0.069
   full:       -1.471       0.005      -0.080       3.745

 projected vibrational frequencies (cm⁻¹)
eigval :       -0.00    -0.00     0.00     0.00     0.00     0.00
eigval :        7.62    12.58    14.17    15.32    16.33    21.75
eigval :       34.14    37.97    39.14    41.59    43.87    56.65
eigval :       59.64    61.26    82.02    83.81    90.93    96.79
eigval :      105.70   106.12   118.14   124.57   139.11   146.09
eigval :      155.08   186.81   193.97   205.45   218.16   223.13
eigval :      235.80   242.77   244.46   248.87   252.66   262.69
eigval :      271.93   288.52   291.44   292.34   300.28   321.29
eigval :      339.07   364.24   367.32   369.82   372.43   380.07
eigval :      390.60   391.40   397.70   417.32   420.41   421.91
eigval :      430.91   432.76   439.25   439.50   443.89   449.10
eigval :      454.67   465.35   474.88   488.04   502.15   509.30
eigval :      509.92   517.61   519.96   526.17   527.42   541.46
eigval :      569.12   572.84   575.20   579.08   585.89   594.83
eigval :      601.51   608.78   611.80   620.69   626.27   631.43
eigval :      647.09   650.58   660.00   660.05   662.24   662.31
eigval :      667.75   671.73   689.81   692.82   705.94   709.78
eigval :      710.84   713.39   732.62   755.04   755.41   766.54
eigval :      768.91   775.99   779.74   779.79   780.07   804.37
eigval :      823.91   829.38   830.97   836.33   837.22   854.54
eigval :      855.96   856.36   860.90   861.19   863.89   869.34
eigval :      869.62   876.69   878.20   889.31   898.94   899.33
eigval :      900.16   904.16   907.22   913.17   915.39   915.43
eigval :      917.23   917.58   919.10   922.70   923.12   927.18
eigval :      928.98   933.28   933.51   956.52   977.28  1004.39
eigval :     1015.89  1034.17  1049.45  1064.20  1080.17  1091.06
eigval :     1091.32  1091.87  1092.98  1108.97  1109.44  1120.71
eigval :     1125.58  1141.40  1142.31  1145.43  1146.95  1169.50
eigval :     1170.53  1174.07  1176.17  1178.80  1179.21  1184.49
eigval :     1188.20  1197.33  1202.25  1203.82  1208.02  1213.16
eigval :     1225.83  1227.82  1229.42  1231.21  1236.81  1244.19
eigval :     1244.46  1252.63  1253.26  1261.06  1262.29  1262.58
eigval :     1274.07  1278.18  1282.16  1282.97  1309.42  1309.43
eigval :     1311.47  1315.24  1324.71  1326.93  1336.50  1342.60
eigval :     1348.14  1352.85  1354.33  1378.29  1388.02  1389.00
eigval :     1395.88  1403.31  1404.57  1421.66  1423.76  1434.67
eigval :     1440.91  1442.83  1445.10  1446.76  1462.90  1470.72
eigval :     1481.48  1484.30  1487.21  1490.80  1502.39  1502.58
eigval :     1520.57  1541.16  1544.08  1544.19  1549.75  1552.00
eigval :     1553.07  1567.75  1567.88  1576.39  1580.15  1580.53
eigval :     1585.36  1590.09  1590.31  1591.56  1602.39  1602.43
eigval :     3043.30  3043.65  3047.35  3047.96  3070.09  3070.25
eigval :     3089.96  3090.39  3090.44  3091.33  3093.07  3093.14
eigval :     3095.08  3095.34  3099.92  3100.20  3100.23  3100.70
eigval :     3102.57  3106.54  3106.98  3107.30  3107.75  3112.80
eigval :     3112.85  3113.93  3114.03  3114.09  3114.54  3114.75

   temp. (K)  partition function   enthalpy   heat capacity  entropy
                                   cal/mol     cal/K/mol   cal/K/mol   J/K/mol
 298.15  VIB  0.207E+23            27729.997    173.942    173.075
         ROT  0.222E+09              888.752      2.981     41.171
         INT  0.459E+31            28618.749    176.923    214.246
         TR   0.218E+29             1481.254      4.968     45.891
         TOT                       30100.0029   181.8908   260.1373  1088.4146

       T/K    H(0)-H(T)+PV         H(T)/Eh          T*S/Eh         G(T)/Eh
   ------------------------------------------------------------------------
    298.15    0.479674E-01    0.722281E+00    0.123600E+00    0.598682E+00
   ------------------------------------------------------------------------

         :::::::::::::::::::::::::::::::::::::::::::::::::::::
         ::                  THERMODYNAMIC                  ::
         :::::::::::::::::::::::::::::::::::::::::::::::::::::
         :: total free energy        -157.660575494267 Eh   ::
         ::.................................................::
         :: total energy             -158.259257330694 Eh   ::
         :: zero point energy           0.674314070666 Eh   ::
         :: G(RRHO) w/o ZPVE           -0.075632234240 Eh   ::
         :: G(RRHO) contrib.            0.598681836427 Eh   ::
         :::::::::::::::::::::::::::::::::::::::::::::::::::::

           -------------------------------------------------
          | TOTAL ENERGY             -158.259257330694 Eh   |
          | TOTAL ENTHALPY           -157.536975852086 Eh   |
          | TOTAL FREE ENERGY        -157.660575494267 Eh   |
          | GRADIENT NORM               0.000060845931 Eh/α |
          | HOMO-LUMO GAP               0.882237206373 eV   |
           -------------------------------------------------

 * finished run on 2025/08/22 at 17:58:12.115
