   * xtb version 6.7.1 (edcfbbe) compiled by 'albert@albert-system' on 2024-07-22

   ID    Z sym.   atoms
    1    6 C      1-6, 8-13, 15-23, 25-30, 32-41, 43-47, 49, 51-54, 56,
                  58-60, 62
    2    8 O      7, 31
    3    7 N      14, 24, 42, 48, 50, 55, 57, 61
    4    1 H      63-92

          program call               : xtb data2507/gas/DPIBPZ-DPXZ/DPIBPZ-DPXZ_gas_S0_finalOpt.xtbopt.xyz --gfn 2 --spinpol --tblite --uhf 2 --ohess vtight --parallel 40 --molden --ceasefiles --namespace data2507/gas/DPIBPZ-DPXZ/DPIBPZ-DPXZ_gas_T1_preOpt
 * total energy  :  -158.2172543 Eh     change       -0.1005336E-07 Eh
 * total energy  :  -158.2197928 Eh     change       -0.2538408E-02 Eh
 * total energy  :  -158.2206129 Eh     change       -0.8201128E-03 Eh
 * total energy  :  -158.2207159 Eh     change       -0.1030305E-03 Eh
 * total energy  :  -158.2207673 Eh     change       -0.5135183E-04 Eh
 * total energy  :  -158.2207811 Eh     change       -0.1387693E-04 Eh
 * total energy  :  -158.2207944 Eh     change       -0.1324244E-04 Eh
 * total energy  :  -158.2208160 Eh     change       -0.2164014E-04 Eh
 * total energy  :  -158.2208223 Eh     change       -0.6246410E-05 Eh
 * total energy  :  -158.2208364 Eh     change       -0.1411367E-04 Eh
 * total energy  :  -158.2209945 Eh     change       -0.2792599E-06 Eh
 * total energy  :  -158.2209947 Eh     change       -0.2710812E-06 Eh
 * total energy  :  -158.2209950 Eh     change       -0.2553494E-06 Eh
 * total energy  :  -158.2209952 Eh     change       -0.2019243E-06 Eh
 * total energy  :  -158.2209954 Eh     change       -0.2228953E-06 Eh
 * total energy  :  -158.2209956 Eh     change       -0.2063849E-06 Eh
 * total energy  :  -158.2209958 Eh     change       -0.2010914E-06 Eh
 * total energy  :  -158.2209957 Eh     change        0.7358028E-07 Eh
 * total energy  :  -158.2209958 Eh     change       -0.5859818E-07 Eh
   *** GEOMETRY OPTIMIZATION CONVERGED AFTER 69 ITERATIONS ***

 final structure:
================
92
 xtb: 6.7.1 (edcfbbe)
C           -6.23109770730910       -3.14203312171683        2.95454459818280
C           -5.05378781927981       -2.42017242144785        2.99805427799848
C           -4.10650068427537       -2.56048440826534        1.99737514766913
C           -4.32497024067254       -3.41923550731495        0.92488232144790
C           -5.50946817210113       -4.17196571917748        0.90818900462752
C           -6.45190731780676       -4.02635669781867        1.91051138352963
O           -5.78435767565712       -5.08649887624031       -0.07398049009041
C           -4.86970640012415       -5.22830725301721       -1.08422601034786
C           -5.16909668112052       -6.13820150622181       -2.08216281261706
C           -4.30386724488320       -6.31127631645485       -3.15116346894043
C           -3.14959278883711       -5.55500164224192       -3.22454184020068
C           -2.84301564359496       -4.64361276968002       -2.22756687795839
C           -3.68293598843920       -4.48151771392887       -1.13082192747862
N           -3.40121984483464       -3.58053307502587       -0.10637637253591
C           -2.18757549783360       -2.85461918425160       -0.10630048589609
C           -0.96419557423486       -3.53666750992440       -0.02534795884907
C            0.20245617978158       -2.82236903914129       -0.01245539061683
C            0.19567164499269       -1.41761748365161       -0.05231544461628
C           -1.03457333398079       -0.72120131951185       -0.12508964575862
C           -2.21257683512173       -1.47723675202405       -0.16965681022885
C           -1.03374567685446        0.72095638368398       -0.12633401790969
C           -2.21088643131159        1.47829641242045       -0.17153698020756
C           -2.18421290654659        2.85577529803389       -0.11088017400689
N           -3.39684751187598        3.58334711249599       -0.11147463128339
C           -4.32017459231242        3.42556540443055        0.92072735793148
C           -4.10336772298923        2.56713633600948        1.99383388793678
C           -5.05020605901175        2.43049516156966        2.99543891999287
C           -6.22541189915214        3.15581489045578        2.95232778280473
C           -6.44449787521794        4.03981777001801        1.90768084010979
C           -5.50252999736268        4.18172496808332        0.90436907926441
O           -5.77564460887953        5.09616461080348       -0.07836017927804
C           -4.86178954915051        5.23405198743864       -1.08981598018318
C           -5.15965984400829        6.14353839426796       -2.08859487169275
C           -4.29516066870142        6.31275642207355       -3.15878589282780
C           -3.14318723254720        5.55299615479994       -3.23254032363935
C           -2.83812550185855        4.64200391638432       -2.23475259229321
C           -3.67719910255034        4.48379098888153       -1.13676730937474
C           -0.95990444890941        3.53650047968483       -0.03236229581470
C            0.20588211509804        2.82086273601228       -0.01878885172321
C            0.19738270426896        1.41601979889597       -0.05551421366189
C            1.43777063255494        0.70945119108973       -0.00963770656381
N            2.59118859107159        1.36670309161440        0.03675806709452
C            3.75644600626288        0.71917515880948        0.07325148911363
C            4.97708964522462        1.38709617267009        0.10758339118104
C            6.18400022809436        0.69930569072228        0.14975385697987
C            7.43479997928049        1.45647010417567        0.10641155345347
C            8.47799869190983        1.14388402933402       -0.77115285653485
N            9.60415898547736        1.82943548872961       -0.80817018096955
C            9.70986760193018        2.85334383711604        0.02047968021747
N            8.78495471891098        3.26813138576287        0.86705706496790
C            7.66098963844500        2.57689400053612        0.90971195378233
C            6.18211553895525       -0.70740619433847        0.17918514485826
C            7.42580612013956       -1.46598593157785        0.31214366334835
C            8.40264186181376       -1.15529980558958        1.26363153248479
N            9.52246782506691       -1.84205649625208        1.38169623908107
C            9.68726134408116       -2.86515277276999        0.56172853767811
N            8.82617197605532       -3.27803419541409       -0.35055745730337
C            7.70888450148894       -2.58561327645847       -0.47398743272308
C            4.97459109627786       -1.39383604745567        0.13465138240240
C            3.75549172200949       -0.72461006112796        0.07705250646384
N            2.58956368334781       -1.37084533873251        0.04067705069799
C            1.43695296418425       -0.71245887108104       -0.00780883603542
H           -6.97241501503504       -3.03161823241042        3.72977497746514
H           -4.85985398455561       -1.74263635023931        3.81502143505017
H           -3.18421630926454       -2.00466957649313        2.05511168991700
H           -7.34999087029122       -4.62036478411774        1.85603020348862
H           -6.08737901186794       -6.69775941786086       -2.00452115629733
H           -4.54211995588981       -7.02552536497307       -3.92307504530651
H           -2.47791312500792       -5.66602922086114       -4.06153760575960
H           -1.94691101050193       -4.04831711023505       -2.30316596522137
H           -0.95856670839281       -4.61456057470287        0.03310049119357
H            1.15873472146580       -3.31831700576132        0.04816049498959
H           -3.17309780706803       -0.99252427285370       -0.24693587893099
H           -3.17202121880102        0.99454986915559       -0.24724592290953
H           -3.18267685855291        2.00867777103222        2.05135369475782
H           -4.85758481401766        1.75308253761738        3.81281836319979
H           -6.96636296505268        3.04831702071332        3.72832034418679
H           -7.34083257575281        4.63648426416765        1.85343865256567
H           -6.07621372078863        6.70587496926080       -2.01059689487639
H           -4.53218733072524        7.02674049903567       -3.93132343680272
H           -2.47214644015955        5.66097164767837       -4.07045000523080
H           -1.94384764908461        4.04400303724672       -2.31065723092995
H           -0.95294095145952        4.61451254658343        0.02369181047002
H            1.16281303020121        3.31577937613344        0.03987028216357
H            4.96838289432092        2.46559259169317        0.06859981900151
H            8.39306317315193        0.32793967372723       -1.47877123290902
H           10.63734471093241        3.40957409069656       -0.00437256375557
H            6.91670851668258        2.91638278045305        1.61975181251738
H            8.26720522718858       -0.33991024303123        1.96398777383966
H           10.60995541913759       -3.42234182107085        0.65341899859945
H            7.01801579175704       -2.92351970524700       -1.23680034539851
H            4.96185437317943       -2.47233878967171        0.17189531043386

 projected vibrational frequencies (cm⁻¹)
eigval :       -0.00    -0.00    -0.00     0.00     0.00     0.00
eigval :        8.14     9.10    12.51    13.68    15.94    22.24
eigval :       32.55    37.80    40.03    42.26    44.00    58.06
eigval :       59.81    63.54    82.50    85.13    89.97    94.13
eigval :      106.98   108.96   116.19   126.16   131.61   144.08
eigval :      153.18   184.56   188.30   203.67   216.60   220.77
eigval :      234.98   239.60   242.67   247.40   249.47   264.13
eigval :      269.98   287.80   292.33   293.09   304.25   312.25
eigval :      337.16   349.81   369.54   371.26   374.11   378.33
eigval :      386.53   391.98   397.97   417.28   419.30   419.53
eigval :      429.76   430.03   434.06   437.62   443.24   445.01
eigval :      454.70   470.72   476.51   487.33   505.52   506.04
eigval :      506.39   515.42   518.90   525.51   526.63   536.45
eigval :      565.81   568.87   570.95   577.79   585.84   589.74
eigval :      597.68   607.79   611.78   619.10   622.14   623.41
eigval :      628.75   639.04   657.44   661.43   662.48   664.70
eigval :      664.94   665.86   670.50   683.63   688.48   703.37
eigval :      706.46   710.06   710.58   722.95   738.78   750.92
eigval :      766.77   775.87   778.14   778.19   778.45   802.54
eigval :      817.71   817.83   823.48   826.87   827.63   830.36
eigval :      836.77   856.21   856.52   857.93   858.34   862.89
eigval :      866.64   866.80   872.08   883.56   898.00   898.42
eigval :      898.86   899.55   901.11   913.81   914.76   914.83
eigval :      916.27   916.85   917.45   917.59   918.28   921.45
eigval :      921.58   926.26   926.82   955.07   958.41  1000.47
eigval :     1017.01  1032.63  1041.59  1065.49  1086.32  1088.22
eigval :     1088.43  1089.03  1089.97  1110.61  1110.98  1119.66
eigval :     1124.67  1141.29  1141.98  1145.36  1145.38  1167.44
eigval :     1167.80  1172.96  1174.21  1178.24  1179.44  1182.66
eigval :     1185.68  1198.73  1204.04  1204.77  1205.86  1210.65
eigval :     1226.76  1230.01  1230.68  1233.66  1240.35  1241.19
eigval :     1246.96  1247.55  1252.61  1254.03  1257.11  1257.82
eigval :     1258.01  1262.73  1284.95  1285.39  1293.94  1306.88
eigval :     1309.72  1311.83  1313.53  1317.26  1329.59  1331.57
eigval :     1340.01  1343.41  1348.99  1356.55  1358.53  1383.81
eigval :     1387.10  1397.02  1400.05  1408.25  1419.59  1421.06
eigval :     1422.41  1435.32  1437.21  1443.01  1444.08  1461.78
eigval :     1468.60  1470.46  1471.99  1480.83  1482.47  1491.70
eigval :     1503.21  1515.23  1521.65  1534.01  1540.70  1540.84
eigval :     1548.83  1556.15  1563.70  1563.82  1570.59  1573.28
eigval :     1573.58  1580.07  1582.57  1585.09  1594.80  1596.59
eigval :     3041.32  3041.82  3044.87  3045.50  3066.60  3066.80
eigval :     3090.33  3090.38  3091.38  3092.27  3092.73  3092.92
eigval :     3093.71  3093.91  3095.93  3101.76  3101.89  3101.92
eigval :     3102.22  3103.77  3104.07  3107.03  3108.28  3108.63
eigval :     3108.77  3109.71  3114.14  3114.40  3114.57  3115.21

   temp. (K)  partition function   enthalpy   heat capacity  entropy
                                   cal/mol     cal/K/mol   cal/K/mol   J/K/mol
 298.15  VIB  0.394E+23            27895.125    175.085    174.468
         ROT  0.224E+09              888.752      2.981     41.191
         INT  0.882E+31            28783.877    178.065    215.659
         TR   0.218E+29             1481.254      4.968     45.891
         TOT                       30265.1309   183.0335   261.5505  1094.3272

       T/K    H(0)-H(T)+PV         H(T)/Eh          T*S/Eh         G(T)/Eh
   ------------------------------------------------------------------------
    298.15    0.482306E-01    0.719909E+00    0.124271E+00    0.595638E+00
   ------------------------------------------------------------------------

         :::::::::::::::::::::::::::::::::::::::::::::::::::::
         ::                  THERMODYNAMIC                  ::
         :::::::::::::::::::::::::::::::::::::::::::::::::::::
         :: total free energy        -157.625357924461 Eh   ::
         ::.................................................::
         :: total energy             -158.220995816485 Eh   ::
         :: zero point energy           0.671678411138 Eh   ::
         :: G(RRHO) w/o ZPVE           -0.076040519114 Eh   ::
         :: G(RRHO) contrib.            0.595637892025 Eh   ::
         :::::::::::::::::::::::::::::::::::::::::::::::::::::

           -------------------------------------------------
          | TOTAL ENERGY             -158.220995816485 Eh   |
          | TOTAL ENTHALPY           -157.501086849273 Eh   |
          | TOTAL FREE ENERGY        -157.625357924461 Eh   |
          | GRADIENT NORM               0.000107506480 Eh/α |
           -------------------------------------------------

 * finished run on 2025/08/22 at 17:58:31.949
