   * xtb version 6.7.1 (edcfbbe) compiled by 'albert@albert-system' on 2024-07-22

   ID    Z sym.   atoms
    1    6 C      1-8, 10-19, 22-35
    2    8 O      9, 21
    3   15 P      20
    4    1 H      36-70

          program call               : xtb data2507/toluene/POBBPE/POBBPE_toluene_T1_crest.xyz --gfn 2 --uhf 2 --gbsa toluene --ohess vtight --parallel 40 --molden --ceasefiles --namespace data2507/toluene/POBBPE/POBBPE_toluene_T1_finalOpt
      * Solvation model:               GBSA
        Solvent                        toluene
        Solvent mass                       9.2140E+01 g/mol
          :  Hamiltonian                  GFN2-xTB          :
 * total energy  :   -97.0068766 Eh     change       -0.1561716E-08 Eh
 * total energy  :   -97.0070695 Eh     change       -0.1929639E-03 Eh
 * total energy  :   -97.0071695 Eh     change       -0.9996773E-04 Eh
 * total energy  :   -97.0071978 Eh     change       -0.2834518E-04 Eh
 * total energy  :   -97.0072222 Eh     change       -0.2433175E-04 Eh
 * total energy  :   -97.0072543 Eh     change       -0.3212791E-04 Eh
 * total energy  :   -97.0072882 Eh     change       -0.3386833E-04 Eh
 * total energy  :   -97.0073083 Eh     change       -0.2012425E-04 Eh
 * total energy  :   -97.0073306 Eh     change       -0.2231149E-04 Eh
 * total energy  :   -97.0073442 Eh     change       -0.1358238E-04 Eh
 * total energy  :   -97.0074537 Eh     change       -0.2723460E-05 Eh
 * total energy  :   -97.0074553 Eh     change       -0.1536252E-05 Eh
 * total energy  :   -97.0074560 Eh     change       -0.7792737E-06 Eh
 * total energy  :   -97.0074565 Eh     change       -0.4757232E-06 Eh
 * total energy  :   -97.0074570 Eh     change       -0.4829152E-06 Eh
 * total energy  :   -97.0074574 Eh     change       -0.4475897E-06 Eh
 * total energy  :   -97.0074577 Eh     change       -0.2581573E-06 Eh
 * total energy  :   -97.0074579 Eh     change       -0.2046695E-06 Eh
 * total energy  :   -97.0074579 Eh     change       -0.5130715E-08 Eh
   *** GEOMETRY OPTIMIZATION CONVERGED AFTER 44 ITERATIONS ***

 final structure:
================
70
 xtb: 6.7.1 (edcfbbe)
C            5.78202778077922       -3.30701425983189       -0.51372898747896
C            5.69262623302767       -1.84760979483508       -0.03908146262698
C            6.74901499418906       -1.03228463477679       -0.79035112076077
C            6.00667278485540       -1.77267199727801        1.46443878573750
C            4.28401191163393       -1.33923177759141       -0.27330444740782
C            3.20263704871602       -1.98946623050074        0.33659987923248
C            1.90386867814869       -1.58172110690100        0.14973002048134
C            1.63288802765189       -0.47304084044386       -0.66681309489282
O            0.40083589744863        0.04259530929497       -0.87449277369612
C           -0.73297827885108       -0.67590752103495       -0.79738821013508
C           -0.85011573756585       -2.03673153944824       -1.05482202306820
C           -2.07676238558010       -2.65696685154249       -1.04371982072948
C           -3.28104417772232       -1.92345012315492       -0.71659879698248
C           -4.59265251408133       -2.66926536696096       -0.67862460506008
C           -4.48738495075160       -3.82625421223130        0.32893335045668
C           -4.87888074825391       -3.23536904298450       -2.08217250489739
C           -5.76953594298452       -1.77890334835488       -0.27193900661815
C           -3.16397598183383       -0.57793488917142       -0.46611106040896
C           -1.93753965573380        0.10381180836025       -0.50580558792419
P           -1.84880139844046        1.70057850862058        0.29516604482633
O           -3.17596553954538        2.35138833440626        0.37676927283998
C           -1.08990340180563        1.45396194166857        1.92280122882197
C            0.26709818077453        1.17198706863219        2.10881465615293
C            0.73436621263458        0.82520794390941        3.35952661461010
C           -0.13704398598824        0.73430754084793        4.43717785000011
C           -1.49030937595710        1.00233241198279        4.25505192347074
C           -1.96434914591891        1.34698255281027        3.00825107625698
C           -0.68405205036947        2.72550855465915       -0.67784915066856
C           -0.68689065012574        2.61828011121878       -2.06052451722116
C            0.10222812781287        3.46450619277161       -2.81891709514152
C            0.88728162763265        4.42202082822162       -2.19572991226675
C            0.87182128781577        4.54348346376261       -0.81546984281327
C            0.08041873929394        3.69916917458687       -0.05521776649641
C            2.70729674576384        0.21293904857144       -1.25599574296724
C            3.99761728079530       -0.22204180798388       -1.06585214372954
H            6.79168007186359       -3.68280448513179       -0.36465339949136
H            5.54151541274197       -3.37378084327864       -1.57277738263367
H            5.09696279811650       -3.94773730280365        0.03396332521440
H            6.58072709198367       -1.06693645918548       -1.86417918345302
H            6.75288384208124        0.00400381825685       -0.46089652640898
H            7.73412935218107       -1.44928903409260       -0.59223019323719
H            7.02359125110096       -2.11258597983703        1.64666957747762
H            5.33097707847851       -2.39437608510161        2.04471505769505
H            5.91674928816882       -0.74722437405966        1.81704415026923
H            3.38027054429905       -2.83078413663047        0.98793836944690
H            1.09515755240357       -2.06816619321823        0.67442832199385
H            0.02970393557050       -2.59094132711402       -1.35233967391219
H           -2.14208037627122       -3.69261815624572       -1.32727596692860
H           -4.27098771385723       -3.43724941830153        1.32189594043856
H           -3.70149351095704       -4.52432968327549        0.05594043346010
H           -5.42949886318164       -4.36830879311539        0.36628860030650
H           -5.83206535094265       -3.75884808844487       -2.07691115879316
H           -4.93019842945783       -2.42659857014168       -2.80796586276050
H           -4.10627279971037       -3.93099856707903       -2.39588632653285
H           -5.91247085386509       -0.96784250055208       -0.98216985027407
H           -6.68199476885808       -2.37087230327385       -0.24677975372114
H           -5.61386866335654       -1.35476508957561        0.71766074573583
H           -4.01947369386831        0.02618283519429       -0.20425016488919
H            0.95065620368109        1.26282168767161        1.27733436863477
H            1.78760864139943        0.62466504785438        3.49900695892145
H            0.23372533703866        0.45875811452485        5.41322356857205
H           -2.17136040376728        0.93997059974396        5.09226946850706
H           -3.01140482001241        1.56623340948646        2.84623405274543
H           -1.30988528336797        1.86612608390772       -2.52800045890603
H            0.10358335379014        3.37914486662919       -3.89628373202035
H            1.50662234197674        5.08020655770958       -2.78765667428332
H            1.47411095132049        5.29785582161781       -0.32987903209136
H            0.05050807305191        3.78904252714008        1.02315916883723
H            2.49062100399707        1.07393710442197       -1.86925678060774
H            4.79204784704127        0.32227150721446       -1.54781106780354

          :  Hamiltonian                  GFN2-xTB          :
         :: gradient norm              0.000051188992 Eh/a0 ::
         :: HOMO-LUMO gap              0.542206168098 eV    ::
         :: SCC energy               -98.613902915147 Eh    ::
         :: -> dispersion             -0.088256190013 Eh    ::
         :: -> Gsolv                  -0.047508650932 Eh    ::
         :: repulsion energy           1.606444999382 Eh    ::

    * Orbital Energies and Occupations

         #    Occupation            Energy/Eh            Energy/eV
      -------------------------------------------------------------
         1        2.0000           -0.7531721             -20.4949
       ...           ...                  ...                  ...
        79        2.0000           -0.4232317             -11.5167
        80        2.0000           -0.4223626             -11.4931
        81        2.0000           -0.4194389             -11.4135
        82        2.0000           -0.4168297             -11.3425
        83        2.0000           -0.4119863             -11.2107
        84        2.0000           -0.4088674             -11.1258
        85        2.0000           -0.4073834             -11.0855
        86        2.0000           -0.4051908             -11.0258
        87        2.0000           -0.4047283             -11.0132
        88        2.0000           -0.3988880             -10.8543
        89        1.9999           -0.3950004             -10.7485
        90        1.0001           -0.3765631             -10.2468
        91        1.0000           -0.2629294              -7.1547 (HOMO)
        92        0.0000           -0.2430034              -6.6125 (LUMO)
        93        0.0000           -0.2381450              -6.4803
        94                         -0.2369754              -6.4484
        95                         -0.2311505              -6.2899
        96                         -0.2281346              -6.2079
        97                         -0.2222054              -6.0465
        98                         -0.2182515              -5.9389
        99                         -0.1316481              -3.5823
       100                         -0.1133066              -3.0832
       101                         -0.1081359              -2.9425
       102                         -0.1033754              -2.8130
       ...                                ...                  ...
       180                          1.2009729              32.6801
      -------------------------------------------------------------
                  HL-Gap            0.0199261 Eh            0.5422 eV

     #   Z          covCN         q      C6AA      α(0)
     1   6 C        3.761    -0.109    22.631     6.781
     2   6 C        3.902     0.030    20.019     6.360
     3   6 C        3.761    -0.113    22.704     6.793
     4   6 C        3.761    -0.108    22.612     6.779
     5   6 C        2.972     0.019    27.583     8.615
     6   6 C        2.924    -0.030    28.737     8.791
     7   6 C        2.911    -0.049    29.219     8.864
     8   6 C        2.866     0.140    24.955     8.189
     9   8 O        1.711    -0.182    17.054     5.576
    10   6 C        2.906     0.125    25.263     8.242
    11   6 C        2.901    -0.056    29.388     8.889
    12   6 C        2.916    -0.061    29.512     8.908
    13   6 C        2.966     0.019    27.584     8.615
    14   6 C        3.902     0.031    19.998     6.357
    15   6 C        3.761    -0.107    22.584     6.774
    16   6 C        3.762    -0.105    22.560     6.771
    17   6 C        3.761    -0.108    22.617     6.780
    18   6 C        3.022    -0.035    28.838     8.809
    19   6 C        2.903    -0.016    28.415     8.740
    20  15 P        4.066    -0.045   162.245    22.881
    21   8 O        0.808    -0.401    21.725     6.248
    22   6 C        2.917     0.011    27.773     8.642
    23   6 C        2.968    -0.035    28.876     8.814
    24   6 C        2.917    -0.032    28.808     8.802
    25   6 C        2.919    -0.040    28.994     8.830
    26   6 C        2.917    -0.033    28.834     8.805
    27   6 C        3.030    -0.026    28.624     8.776
    28   6 C        2.921     0.031    27.312     8.570
    29   6 C        3.000    -0.018    28.441     8.748
    30   6 C        2.920    -0.028    28.704     8.786
    31   6 C        2.920    -0.027    28.679     8.782
    32   6 C        2.920    -0.028    28.694     8.784
    33   6 C        2.989    -0.021    28.516     8.760
    34   6 C        2.914    -0.045    29.107     8.847
    35   6 C        2.921    -0.033    28.816     8.803
    36   1 H        0.925     0.047     2.358     2.401
    37   1 H        0.925     0.038     2.472     2.459
    38   1 H        0.925     0.042     2.418     2.432
    39   1 H        0.925     0.041     2.432     2.439
    40   1 H        0.925     0.041     2.437     2.441
    41   1 H        0.925     0.044     2.392     2.419
    42   1 H        0.925     0.047     2.357     2.401
    43   1 H        0.925     0.042     2.426     2.435
    44   1 H        0.925     0.037     2.485     2.465
    45   1 H        0.926     0.056     2.241     2.341
    46   1 H        0.926     0.050     2.315     2.379
    47   1 H        0.925     0.048     2.344     2.394
    48   1 H        0.926     0.047     2.362     2.403
    49   1 H        0.925     0.036     2.505     2.475
    50   1 H        0.925     0.046     2.376     2.410
    51   1 H        0.925     0.048     2.343     2.394
    52   1 H        0.925     0.050     2.319     2.381
    53   1 H        0.925     0.038     2.478     2.462
    54   1 H        0.925     0.046     2.374     2.409
    55   1 H        0.925     0.038     2.479     2.462
    56   1 H        0.925     0.045     2.385     2.415
    57   1 H        0.925     0.036     2.499     2.472
    58   1 H        0.926     0.056     2.243     2.342
    59   1 H        0.926     0.027     2.634     2.538
    60   1 H        0.926     0.032     2.564     2.504
    61   1 H        0.926     0.031     2.572     2.508
    62   1 H        0.926     0.029     2.600     2.522
    63   1 H        0.925     0.033     2.546     2.495
    64   1 H        0.925     0.035     2.512     2.478
    65   1 H        0.926     0.042     2.425     2.435
    66   1 H        0.926     0.044     2.392     2.418
    67   1 H        0.926     0.041     2.431     2.438
    68   1 H        0.925     0.034     2.524     2.484
    69   1 H        0.926     0.054     2.276     2.359
    70   1 H        0.926     0.064     2.147     2.291

molecular dipole:
                 x           y           z       tot (Debye)
 q only:        3.274      -2.687      -0.927
   full:        3.294      -2.702      -0.849      11.042

 projected vibrational frequencies (cm⁻¹)
eigval :       -0.00    -0.00     0.00     0.00     0.00     0.00
eigval :       12.21    15.64    22.07    24.75    27.21    32.60
eigval :       42.92    46.46    56.25    68.17    75.95    84.24
eigval :       89.41   101.36   131.89   152.48   155.71   160.34
eigval :      175.59   179.10   185.63   199.30   208.50   219.70
eigval :      224.62   234.17   239.32   244.93   263.28   269.48
eigval :      299.90   308.45   313.53   318.05   321.29   332.57
eigval :      343.12   352.22   360.72   365.92   374.26   378.36
eigval :      380.48   391.02   406.93   415.84   417.96   449.53
eigval :      456.28   473.32   478.98   486.07   507.14   514.41
eigval :      518.30   573.28   582.90   583.79   598.71   612.97
eigval :      637.16   639.32   655.07   674.80   676.54   693.33
eigval :      703.01   721.30   730.37   738.56   750.98   802.38
eigval :      816.52   839.97   843.27   857.11   867.56   874.25
eigval :      877.20   881.81   887.05   893.15   900.00   910.91
eigval :      919.41   921.40   922.97   925.84   929.98   956.11
eigval :      957.77   960.06   960.66   961.96   962.64   963.40
eigval :      969.43   991.92  1012.21  1021.89  1029.58  1032.61
eigval :     1034.08  1068.12  1074.20  1080.89  1095.57  1107.50
eigval :     1112.73  1115.77  1124.98  1138.14  1144.29  1157.80
eigval :     1174.19  1176.28  1177.74  1183.21  1189.79  1201.11
eigval :     1203.81  1215.66  1216.75  1224.14  1226.44  1245.65
eigval :     1264.79  1265.40  1269.46  1276.49  1287.94  1306.18
eigval :     1318.00  1324.24  1329.76  1336.09  1393.05  1398.50
eigval :     1399.33  1399.94  1404.18  1414.31  1416.14  1422.38
eigval :     1422.74  1424.44  1424.75  1435.97  1449.58  1451.98
eigval :     1466.82  1477.67  1480.15  1485.23  1485.93  1487.75
eigval :     1492.25  1494.74  1496.52  1498.78  1505.92  1509.34
eigval :     1514.02  1515.38  1523.97  1537.02  1567.62  1581.52
eigval :     1582.72  3025.30  3026.13  3026.17  3026.81  3028.57
eigval :     3030.01  3030.57  3030.63  3033.07  3034.06  3034.70
eigval :     3036.03  3039.99  3041.11  3045.26  3049.47  3049.56
eigval :     3050.28  3052.11  3052.76  3057.53  3062.55  3062.82
eigval :     3068.37  3070.25  3075.13  3079.88  3086.50  3086.75
eigval :     3087.34  3092.57  3097.73  3100.10  3120.51  3125.26

   temp. (K)  partition function   enthalpy   heat capacity  entropy
                                   cal/mol     cal/K/mol   cal/K/mol   J/K/mol
 298.15  VIB  0.201E+17            20736.166    125.052    129.379
         ROT  0.330E+08              888.752      2.981     37.386
         INT  0.662E+24            21624.918    128.033    166.765
         TR   0.103E+29             1481.254      4.968     44.390
         TOT                       23106.1719   133.0010   211.1546   883.4708

       T/K    H(0)-H(T)+PV         H(T)/Eh          T*S/Eh         G(T)/Eh
   ------------------------------------------------------------------------
    298.15    0.368220E-01    0.604939E+00    0.100326E+00    0.504613E+00
   ------------------------------------------------------------------------

         :::::::::::::::::::::::::::::::::::::::::::::::::::::
         ::                  THERMODYNAMIC                  ::
         :::::::::::::::::::::::::::::::::::::::::::::::::::::
         :: total free energy         -96.502844862105 Eh   ::
         ::.................................................::
         :: total energy              -97.007457917222 Eh   ::
         :: zero point energy           0.568117388993 Eh   ::
         :: G(RRHO) w/o ZPVE           -0.063504333876 Eh   ::
         :: G(RRHO) contrib.            0.504613055117 Eh   ::
         :::::::::::::::::::::::::::::::::::::::::::::::::::::

           -------------------------------------------------
          | TOTAL ENERGY              -97.007457917222 Eh   |
          | TOTAL ENTHALPY            -96.402518499432 Eh   |
          | TOTAL FREE ENERGY         -96.502844862105 Eh   |
          | GRADIENT NORM               0.000051485846 Eh/α |
          | HOMO-LUMO GAP               0.542215711261 eV   |
           -------------------------------------------------

 * finished run on 2025/08/30 at 11:51:02.113
