   * xtb version 6.7.1 (edcfbbe) compiled by 'albert@albert-system' on 2024-07-22

   ID    Z sym.   atoms
    1    6 C      1-8, 10-19, 22-35
    2    8 O      9, 21
    3   15 P      20
    4    1 H      36-70

          program call               : xtb data2507/toluene/POBBPE/POBBPE_toluene_S0_finalOpt.xtbopt.xyz --gfn 2 --uhf 2 --gbsa toluene --ohess vtight --parallel 40 --molden --ceasefiles --namespace data2507/toluene/POBBPE/POBBPE_toluene_T1_preOpt
      * Solvation model:               GBSA
        Solvent                        toluene
        Solvent mass                       9.2140E+01 g/mol
          :  Hamiltonian                  GFN2-xTB          :
 * total energy  :   -96.9964511 Eh     change       -0.6309506E-08 Eh
 * total energy  :   -97.0021283 Eh     change       -0.5677204E-02 Eh
 * total energy  :   -97.0038880 Eh     change       -0.1759678E-02 Eh
 * total energy  :   -97.0041173 Eh     change       -0.2292840E-03 Eh
 * total energy  :   -97.0042977 Eh     change       -0.1804801E-03 Eh
 * total energy  :   -97.0043854 Eh     change       -0.8766444E-04 Eh
 * total energy  :   -97.0044949 Eh     change       -0.1094754E-03 Eh
 * total energy  :   -97.0046011 Eh     change       -0.1062611E-03 Eh
 * total energy  :   -97.0046909 Eh     change       -0.8975892E-04 Eh
 * total energy  :   -97.0047850 Eh     change       -0.9415438E-04 Eh
 * total energy  :   -97.0060992 Eh     change       -0.1217280E-06 Eh
 * total energy  :   -97.0060997 Eh     change       -0.4621217E-06 Eh
 * total energy  :   -97.0061004 Eh     change       -0.7595198E-06 Eh
 * total energy  :   -97.0061015 Eh     change       -0.1137271E-05 Eh
 * total energy  :   -97.0061024 Eh     change       -0.8751694E-06 Eh
 * total energy  :   -97.0061028 Eh     change       -0.3269754E-06 Eh
 * total energy  :   -97.0061030 Eh     change       -0.2096550E-06 Eh
 * total energy  :   -97.0061031 Eh     change       -0.1300451E-06 Eh
 * total energy  :   -97.0061031 Eh     change       -0.9036640E-08 Eh
   *** GEOMETRY OPTIMIZATION CONVERGED AFTER 132 ITERATIONS ***

 final structure:
================
70
 xtb: 6.7.1 (edcfbbe)
C            6.27255036216504       -2.77289618919186        0.63738655852239
C            5.92282117382601       -1.31748003422222        0.96098815893520
C            6.76560090584800       -0.40437540906680        0.05534411750640
C            6.28081116944797       -1.05374202842547        2.43375090103790
C            4.45604367666153       -1.00577541276912        0.75075239454998
C            3.53125165570206       -1.94880212809704        0.28482655066813
C            2.20104027059797       -1.64487277388209        0.12312784831774
C            1.72944240538295       -0.35160060139770        0.41732587276137
O            0.45503811786850        0.05171634939186        0.25303653563278
C           -0.60337069170470       -0.77846912320953        0.27040749700428
C           -0.67733372587226       -1.98852377032878        0.96304153642009
C           -1.79172096778909       -2.78409814853627        0.89067773281452
C           -2.92200498905852       -2.40267899668646        0.07668208339310
C           -4.14764631026714       -3.27543452078445       -0.06426423502870
C           -4.03575335243857       -4.59881704103950        0.69801665780883
C           -4.35784200903256       -3.59606295543715       -1.55543196176098
C           -5.37150700602055       -2.50928281567217        0.46726306216433
C           -2.86734777118576       -1.17702872490790       -0.55795648864268
C           -1.76198156830134       -0.33208679390411       -0.50032961470704
P           -1.91131786715617        1.31311841430464       -1.18298045473420
O           -3.01763811642315        1.41634101751537       -2.16090671072950
C           -2.12551028313822        2.42239376133837        0.23261966903614
C           -1.12646836005587        2.63906270369251        1.18648215790316
C           -1.39564063585870        3.39621542403683        2.30668888978080
C           -2.66369156337891        3.92836221145375        2.50752084596334
C           -3.66712933566490        3.69603050729858        1.57238911711815
C           -3.40497393443655        2.93995586452698        0.45038972955556
C           -0.30411299742204        1.73092811795803       -1.95267157728358
C            0.33491781157137        0.75784560374432       -2.70790122248638
C            1.51483886306134        1.05464417663079       -3.36524771944122
C            2.05087331460575        2.32995969838255       -3.27710997279675
C            1.40038955273599        3.30916352716749       -2.54378512116433
C            0.21948327473618        3.01200943516028       -1.88453395285116
C            2.65760402451868        0.62068569095188        0.84360148938414
C            3.97567227263500        0.29027966103169        1.01085520318928
H            5.71116505976514       -3.46036040898460        1.26576508607253
H            7.33171855221563       -2.93909599850059        0.82215239681379
H            6.07678995433082       -3.00051366354267       -0.40786590159422
H            6.61376141590870        0.64421189004714        0.29445641930589
H            7.82160175821054       -0.63308221872947        0.18006715445845
H            6.49899125177322       -0.55921560117069       -0.98808290046883
H            7.32961512217059       -1.28479887650055        2.60559426077059
H            5.67723744272683       -1.68112798094730        3.08642384528925
H            6.11205776021068       -0.01580875933234        2.70539049323436
H            3.85577153210950       -2.94252373908740        0.02461047780409
H            1.52087101526149       -2.37458090667573       -0.29007801165026
H            0.14324884909921       -2.26894984133567        1.60949572953080
H           -1.83318647291365       -3.68047692787053        1.48187077773756
H           -3.94132502726497       -4.42802943426793        1.76777889100783
H           -3.18500825525901       -5.17989387439205        0.35028805773561
H           -4.93590984659044       -5.18662702370432        0.53137268750720
H           -5.24463959562497       -4.21372087039159       -1.67852483062048
H           -4.48705219434262       -2.68957675247351       -2.14006379286500
H           -3.49950384872813       -4.13723030582633       -1.94820772106221
H           -6.26327272013741       -3.12488920135890        0.37317945479068
H           -5.23063411802621       -2.25734311613676        1.51646559624740
H           -5.53103842402698       -1.58738622153764       -0.08527217625163
H           -3.69183213498357       -0.82472265846785       -1.16272892521388
H           -0.14266846480480        2.22620259655654        1.02246955095169
H           -0.61599887849237        3.57614228860205        3.03393669075027
H           -2.87114055775181        4.51671436080837        3.38899438601474
H           -4.65383786057226        4.11071556949148        1.72426786984281
H           -4.16788200121003        2.75479267968111       -0.29380878587250
H           -0.10662795057350       -0.23007554828276       -2.76875770340782
H            2.01566899668376        0.29407397646850       -3.94691462250669
H            2.97322099728503        2.56315983059351       -3.78862932042659
H            1.81242436951989        4.30638017492093       -2.48546558621792
H           -0.30215110774186        3.76836528249123       -1.31218179674190
H            2.30172955885408        1.61737545780320        1.05329929649352
H            4.65451469131905        1.05381726283155        1.35617091400142

          :  Hamiltonian                  GFN2-xTB          :
         :: gradient norm              0.000140727737 Eh/a0 ::
         :: HOMO-LUMO gap              0.495143518754 eV    ::
         :: SCC energy               -98.612148049181 Eh    ::
         :: -> dispersion             -0.087952882566 Eh    ::
         :: -> Gsolv                  -0.047654117845 Eh    ::
         :: repulsion energy           1.606044950082 Eh    ::

    * Orbital Energies and Occupations

         #    Occupation            Energy/Eh            Energy/eV
      -------------------------------------------------------------
         1        2.0000           -0.7536241             -20.5072
       ...           ...                  ...                  ...
        79        2.0000           -0.4222260             -11.4894
        80        2.0000           -0.4212797             -11.4636
        81        2.0000           -0.4191824             -11.4065
        82        2.0000           -0.4158945             -11.3171
        83        2.0000           -0.4122843             -11.2188
        84        2.0000           -0.4102051             -11.1622
        85        2.0000           -0.4071638             -11.0795
        86        2.0000           -0.4045562             -11.0085
        87        2.0000           -0.4028612             -10.9624
        88        2.0000           -0.3993251             -10.8662
        89        1.9999           -0.3942132             -10.7271
        90        1.0001           -0.3768051             -10.2534
        91        0.9999           -0.2597560              -7.0683 (HOMO)
        92        0.0001           -0.2415601              -6.5732 (LUMO)
        93        0.0000           -0.2381659              -6.4808
        94        0.0000           -0.2358823              -6.4187
        95                         -0.2311116              -6.2889
        96                         -0.2285753              -6.2199
        97                         -0.2215426              -6.0285
        98                         -0.2198464              -5.9823
        99                         -0.1307102              -3.5568
       100                         -0.1114365              -3.0323
       101                         -0.1112260              -3.0266
       102                         -0.1059458              -2.8829
       ...                                ...                  ...
       180                          1.2045620              32.7778
      -------------------------------------------------------------
                  HL-Gap            0.0181959 Eh            0.4951 eV

     #   Z          covCN         q      C6AA      α(0)
     1   6 C        3.761    -0.112    22.696     6.791
     2   6 C        3.902     0.030    20.015     6.359
     3   6 C        3.761    -0.109    22.623     6.780
     4   6 C        3.762    -0.108    22.619     6.780
     5   6 C        2.972     0.016    27.654     8.626
     6   6 C        2.920    -0.034    28.855     8.809
     7   6 C        2.911    -0.052    29.285     8.874
     8   6 C        2.865     0.136    25.034     8.201
     9   8 O        1.711    -0.178    16.987     5.565
    10   6 C        2.900     0.119    25.376     8.259
    11   6 C        2.902    -0.052    29.286     8.873
    12   6 C        2.914    -0.062    29.536     8.912
    13   6 C        2.966     0.016    27.661     8.627
    14   6 C        3.903     0.031    19.999     6.357
    15   6 C        3.760    -0.111    22.665     6.787
    16   6 C        3.762    -0.105    22.548     6.769
    17   6 C        3.761    -0.105    22.546     6.769
    18   6 C        3.024    -0.027    28.649     8.780
    19   6 C        2.903    -0.017    28.435     8.743
    20  15 P        4.055    -0.035   161.792    22.849
    21   8 O        0.808    -0.403    21.768     6.254
    22   6 C        2.918     0.012    27.748     8.638
    23   6 C        2.973    -0.035    28.865     8.813
    24   6 C        2.917    -0.032    28.794     8.799
    25   6 C        2.919    -0.039    28.970     8.826
    26   6 C        2.917    -0.033    28.823     8.804
    27   6 C        3.023    -0.026    28.614     8.774
    28   6 C        2.920     0.027    27.402     8.584
    29   6 C        3.008    -0.019    28.464     8.752
    30   6 C        2.919    -0.029    28.727     8.789
    31   6 C        2.920    -0.027    28.676     8.781
    32   6 C        2.920    -0.028    28.692     8.784
    33   6 C        2.982    -0.022    28.540     8.763
    34   6 C        2.912    -0.045    29.129     8.850
    35   6 C        2.921    -0.029    28.731     8.790
    36   1 H        0.925     0.041     2.436     2.441
    37   1 H        0.925     0.044     2.397     2.421
    38   1 H        0.925     0.041     2.439     2.442
    39   1 H        0.925     0.042     2.422     2.434
    40   1 H        0.925     0.047     2.360     2.402
    41   1 H        0.925     0.038     2.481     2.463
    42   1 H        0.925     0.047     2.358     2.401
    43   1 H        0.925     0.038     2.474     2.460
    44   1 H        0.925     0.042     2.419     2.432
    45   1 H        0.926     0.063     2.170     2.303
    46   1 H        0.926     0.051     2.309     2.376
    47   1 H        0.925     0.049     2.327     2.385
    48   1 H        0.926     0.053     2.277     2.360
    49   1 H        0.925     0.042     2.426     2.436
    50   1 H        0.925     0.043     2.412     2.429
    51   1 H        0.925     0.044     2.392     2.419
    52   1 H        0.925     0.048     2.341     2.392
    53   1 H        0.925     0.039     2.459     2.452
    54   1 H        0.925     0.039     2.467     2.456
    55   1 H        0.925     0.048     2.343     2.394
    56   1 H        0.925     0.037     2.493     2.469
    57   1 H        0.925     0.038     2.479     2.462
    58   1 H        0.925     0.050     2.316     2.380
    59   1 H        0.926     0.038     2.478     2.462
    60   1 H        0.925     0.032     2.556     2.500
    61   1 H        0.926     0.031     2.567     2.506
    62   1 H        0.926     0.030     2.588     2.516
    63   1 H        0.925     0.034     2.527     2.486
    64   1 H        0.925     0.030     2.582     2.513
    65   1 H        0.926     0.040     2.442     2.444
    66   1 H        0.926     0.044     2.394     2.420
    67   1 H        0.926     0.041     2.430     2.438
    68   1 H        0.925     0.034     2.529     2.487
    69   1 H        0.926     0.051     2.312     2.378
    70   1 H        0.926     0.056     2.242     2.341

molecular dipole:
                 x           y           z       tot (Debye)
 q only:        3.405      -2.130       1.593
   full:        3.373      -2.042       1.695      10.909

 projected vibrational frequencies (cm⁻¹)
eigval :       -0.00    -0.00     0.00     0.00     0.00     0.00
eigval :       14.72    17.73    19.86    23.23    28.85    30.80
eigval :       36.93    51.00    55.99    59.28    65.89    81.04
eigval :       95.48   107.14   128.30   150.34   153.86   159.23
eigval :      172.15   176.67   189.60   205.57   217.23   219.95
eigval :      227.45   234.99   244.94   259.06   266.40   276.11
eigval :      296.77   307.57   310.45   314.53   321.03   333.79
eigval :      337.21   345.90   361.84   364.30   368.50   379.54
eigval :      382.66   391.93   400.45   405.86   422.98   448.71
eigval :      454.65   466.27   477.98   487.37   503.64   508.60
eigval :      513.03   570.42   582.39   584.95   596.76   622.12
eigval :      625.43   630.40   657.20   668.77   675.47   690.69
eigval :      705.15   726.06   728.92   736.74   747.94   800.25
eigval :      811.82   824.12   832.19   858.54   869.82   871.91
eigval :      878.22   878.77   885.54   890.18   900.15   907.35
eigval :      915.03   917.42   920.30   925.51   928.58   954.79
eigval :      958.38   959.45   960.13   963.07   963.65   964.01
eigval :      972.09   982.05  1015.94  1024.54  1028.58  1033.02
eigval :     1034.46  1066.14  1074.60  1078.47  1090.17  1107.89
eigval :     1111.99  1117.64  1120.68  1139.36  1143.00  1164.12
eigval :     1173.49  1175.44  1175.92  1184.76  1190.22  1202.76
eigval :     1203.21  1213.12  1219.80  1221.16  1228.94  1250.59
eigval :     1258.41  1266.15  1269.04  1269.40  1289.57  1317.98
eigval :     1321.75  1327.38  1330.58  1340.32  1378.80  1391.22
eigval :     1396.40  1398.30  1399.36  1402.97  1415.46  1422.04
eigval :     1422.75  1424.63  1428.73  1433.90  1438.37  1442.66
eigval :     1453.66  1458.81  1481.87  1485.02  1487.88  1488.43
eigval :     1494.66  1494.82  1495.53  1498.50  1506.65  1508.78
eigval :     1512.82  1514.16  1518.12  1522.78  1563.97  1583.13
eigval :     1585.25  3024.40  3025.13  3025.23  3027.04  3027.38
eigval :     3029.26  3029.70  3031.22  3031.36  3033.09  3033.59
eigval :     3035.37  3036.11  3039.87  3040.45  3046.10  3049.33
eigval :     3050.00  3050.75  3052.62  3059.59  3062.23  3062.57
eigval :     3065.19  3069.19  3071.30  3075.59  3083.80  3086.33
eigval :     3088.37  3089.99  3092.96  3103.77  3119.61  3142.02

   temp. (K)  partition function   enthalpy   heat capacity  entropy
                                   cal/mol     cal/K/mol   cal/K/mol   J/K/mol
 298.15  VIB  0.220E+17            20771.647    125.028    129.405
         ROT  0.340E+08              888.752      2.981     37.447
         INT  0.748E+24            21660.399    128.009    166.851
         TR   0.103E+29             1481.254      4.968     44.390
         TOT                       23141.6531   132.9768   211.2408   883.8317

       T/K    H(0)-H(T)+PV         H(T)/Eh          T*S/Eh         G(T)/Eh
   ------------------------------------------------------------------------
    298.15    0.368786E-01    0.604460E+00    0.100367E+00    0.504093E+00
   ------------------------------------------------------------------------

         :::::::::::::::::::::::::::::::::::::::::::::::::::::
         ::                  THERMODYNAMIC                  ::
         :::::::::::::::::::::::::::::::::::::::::::::::::::::
         :: total free energy         -96.502009961161 Eh   ::
         ::.................................................::
         :: total energy              -97.006103097668 Eh   ::
         :: zero point energy           0.567581903176 Eh   ::
         :: G(RRHO) w/o ZPVE           -0.063488766669 Eh   ::
         :: G(RRHO) contrib.            0.504093136507 Eh   ::
         :::::::::::::::::::::::::::::::::::::::::::::::::::::

           -------------------------------------------------
          | TOTAL ENERGY              -97.006103097668 Eh   |
          | TOTAL ENTHALPY            -96.401642622837 Eh   |
          | TOTAL FREE ENERGY         -96.502009961161 Eh   |
          | GRADIENT NORM               0.000140200244 Eh/α |
          | HOMO-LUMO GAP               0.495135874806 eV   |
           -------------------------------------------------

 * finished run on 2025/08/30 at 11:42:42.706
