   * xtb version 6.7.1 (edcfbbe) compiled by 'albert@albert-system' on 2024-07-22

   ID    Z sym.   atoms
    1    6 C      1-8, 10-19, 22-35
    2    8 O      9, 21
    3   15 P      20
    4    1 H      36-70

          program call               : xtb data2507/toluene/POBBPE/POBBPE.xyz --gfn 2 --gbsa toluene --ohess vtight --parallel 40 --molden --ceasefiles --namespace data2507/toluene/POBBPE/POBBPE_toluene_S0_preOpt
      * Solvation model:               GBSA
        Solvent                        toluene
        Solvent mass                       9.2140E+01 g/mol
          :  Hamiltonian                  GFN2-xTB          :
 * total energy  :   -97.1146608 Eh     change       -0.1348695E-08 Eh
 * total energy  :   -97.1239790 Eh     change       -0.9318149E-02 Eh
 * total energy  :   -97.1265908 Eh     change       -0.2611889E-02 Eh
 * total energy  :   -97.1272800 Eh     change       -0.6891569E-03 Eh
 * total energy  :   -97.1279166 Eh     change       -0.6365629E-03 Eh
 * total energy  :   -97.1282697 Eh     change       -0.3531714E-03 Eh
 * total energy  :   -97.1285628 Eh     change       -0.2931050E-03 Eh
 * total energy  :   -97.1287970 Eh     change       -0.2341777E-03 Eh
 * total energy  :   -97.1289886 Eh     change       -0.1915461E-03 Eh
 * total energy  :   -97.1291518 Eh     change       -0.1632159E-03 Eh
 * total energy  :   -97.1309303 Eh     change       -0.1049300E-05 Eh
 * total energy  :   -97.1309315 Eh     change       -0.1169892E-05 Eh
 * total energy  :   -97.1309327 Eh     change       -0.1232870E-05 Eh
 * total energy  :   -97.1309339 Eh     change       -0.1177889E-05 Eh
 * total energy  :   -97.1309349 Eh     change       -0.1032495E-05 Eh
 * total energy  :   -97.1309358 Eh     change       -0.8929691E-06 Eh
 * total energy  :   -97.1309366 Eh     change       -0.7896919E-06 Eh
 * total energy  :   -97.1309373 Eh     change       -0.7480077E-06 Eh
 * total energy  :   -97.1309373 Eh     change       -0.4816727E-08 Eh
   *** GEOMETRY OPTIMIZATION CONVERGED AFTER 94 ITERATIONS ***

 final structure:
================
70
 xtb: 6.7.1 (edcfbbe)
C            6.38144439724029       -1.71650533123272       -0.52065674272154
C            6.03985239584858       -0.27101764614171       -0.12882324127491
C            6.26139829889007        0.66033726785750       -1.32985288008172
C            6.99318328295341        0.15623615721621        0.99111677397520
C            4.57818361230378       -0.20060519634285        0.28814854036927
C            3.58677008804094       -0.57897692778333       -0.61380041210033
C            2.24588222766747       -0.54117445525429       -0.28534659350230
C            1.85857493145501       -0.12053144957857        0.98009975464337
O            0.54270457580308        0.00860539093692        1.36386924385014
C           -0.41961958576464       -0.82504725133923        0.87479112689371
C           -0.25614754354178       -2.16640239514437        0.57000821840017
C           -1.35011102941998       -2.90824613826471        0.15210821339232
C           -2.62016927249099       -2.35301378332731        0.03909386180257
C           -3.83964266995082       -3.14900715513314       -0.40252862043355
C           -4.45128993283244       -2.48778536071634       -1.64658587621433
C           -4.86484840429769       -3.15271384085838        0.74095181963067
C           -3.50032173604333       -4.60147442346409       -0.75024386131375
C           -2.76588364540478       -1.00452446386436        0.36087921953160
C           -1.68317113253581       -0.24636796041917        0.76005465353779
P           -1.74123453900141        1.50152162307654        1.27150071341739
O           -1.58055362786344        1.70394072593746        2.72400685081175
C           -0.49185943455046        2.35159241687555        0.25530260399903
C            0.18100960686235        3.41757310097337        0.83398296491805
C            1.15946994871196        4.08923771343696        0.12280042076585
C            1.46513231516038        3.69507662482935       -1.16971514305877
C            0.79284174178112        2.63103042653197       -1.74977415259373
C           -0.18547029034971        1.95825292596523       -1.04064242418030
C           -3.34970060183083        2.11060319712317        0.66738336597372
C           -3.68513311237245        2.12932977232870       -0.68119032820953
C           -4.92755986178136        2.59217974636323       -1.07447202832420
C           -5.83664668308931        3.03895776896091       -0.12718113262925
C           -5.50226066077776        3.02656467280443        1.21712196788167
C           -4.25907003418939        2.56372376057592        1.61248709387211
C            2.82874250175687        0.27777743813870        1.88895425567449
C            4.16668531500523        0.23614980119463        1.54251033833418
H            6.20276619846091       -2.38552151106444        0.31889019194717
H            7.42965077165481       -1.78918903015249       -0.80274705744030
H            5.77930810987054       -2.05386971896031       -1.35950387658307
H            5.99338753566244        1.68176391879003       -1.06707099288610
H            7.30749820899825        0.64275024715777       -1.62818976530584
H            5.65850865098717        0.35831209700803       -2.18162521842639
H            6.88347649073224       -0.48385043599399        1.86359275787741
H            6.81846041228591        1.18951072654995        1.28177093203508
H            8.02066899731772        0.07509055338122        0.64195323834543
H            3.85463848040770       -0.90912499931037       -1.60573485381626
H            1.49957258615819       -0.82771096473116       -1.01177446122838
H            0.71346342730916       -2.63258406553667        0.66933690929486
H           -1.18759137527437       -3.94825425640337       -0.07708838734017
H           -3.71847739369874       -2.44544879939634       -2.44985759413490
H           -4.78739337079737       -1.47673206134731       -1.43424698733438
H           -5.30707120674620       -3.06430882715997       -1.99078471727430
H           -5.74210329790098       -3.72877381516510        0.45475432266713
H           -4.43222051374782       -3.60100832926731        1.63333385171906
H           -5.18462710738524       -2.14413354598631        0.98947722659871
H           -4.40468508153351       -5.11675437305454       -1.06694472168670
H           -2.78192380242387       -4.65117766109325       -1.56516837779664
H           -3.10045780389429       -5.12791161790708        0.11312475877987
H           -3.72997958133402       -0.52185012059739        0.29646169018245
H           -0.06448026511403        3.69375559289188        1.85043425960142
H            1.68598378104576        4.91550030557029        0.57790072374443
H            2.23252141553308        4.21386227498556       -1.72509400369265
H            1.03757790721528        2.32035526725417       -2.75513349773549
H           -0.69730977291764        1.11401212206427       -1.48226730220728
H           -2.97564497853749        1.77959819356767       -1.41612780093340
H           -5.18949883442606        2.60410999415588       -2.12249408801273
H           -6.80636334736254        3.39846076815452       -0.43878059191379
H           -6.20809146203178        3.37599358353588        1.95656577225335
H           -3.97305322459647        2.54369463004883        2.65506418558617
H            2.51572761553685        0.62446073119082        2.86233089283031
H            4.88658238924188        0.55167237459501        2.27927901725405

          :  Hamiltonian                  GFN2-xTB          :
         :: gradient norm              0.000057229698 Eh/a0 ::
         :: HOMO-LUMO gap              3.363379778489 eV    ::
         :: SCC energy               -98.761314635221 Eh    ::
         :: -> dispersion             -0.089274845725 Eh    ::
         :: -> Gsolv                  -0.044797511487 Eh    ::
         :: repulsion energy           1.630377291886 Eh    ::

    * Orbital Energies and Occupations

         #    Occupation            Energy/Eh            Energy/eV
      -------------------------------------------------------------
         1        2.0000           -0.7288228             -19.8323
       ...           ...                  ...                  ...
        78        2.0000           -0.4248041             -11.5595
        79        2.0000           -0.4219153             -11.4809
        80        2.0000           -0.4192072             -11.4072
        81        2.0000           -0.4162037             -11.3255
        82        2.0000           -0.4154218             -11.3042
        83        2.0000           -0.4147890             -11.2870
        84        2.0000           -0.4140075             -11.2657
        85        2.0000           -0.4131401             -11.2421
        86        2.0000           -0.4077569             -11.0956
        87        2.0000           -0.4033855             -10.9767
        88        2.0000           -0.4008503             -10.9077
        89        2.0000           -0.3988903             -10.8544
        90        2.0000           -0.3762420             -10.2381 (HOMO)
        91                         -0.2526401              -6.8747 (LUMO)
        92                         -0.2434216              -6.6238
        93                         -0.2373429              -6.4584
        94                         -0.2345674              -6.3829
        95                         -0.2332099              -6.3460
        96                         -0.2321113              -6.3161
        97                         -0.2259314              -6.1479
        98                         -0.2134613              -5.8086
        99                         -0.1255693              -3.4169
       100                         -0.1194120              -3.2494
       101                         -0.1138410              -3.0978
       ...                                ...                  ...
       180                          1.2108093              32.9478
      -------------------------------------------------------------
                  HL-Gap            0.1236019 Eh            3.3634 eV

     #   Z          covCN         q      C6AA      α(0)
     1   6 C        3.761    -0.107    22.596     6.776
     2   6 C        3.902     0.026    20.075     6.369
     3   6 C        3.761    -0.107    22.592     6.776
     4   6 C        3.761    -0.110    22.642     6.783
     5   6 C        2.972     0.005    27.904     8.665
     6   6 C        2.929    -0.036    28.897     8.816
     7   6 C        2.916    -0.058    29.450     8.899
     8   6 C        2.866     0.133    25.081     8.209
     9   8 O        1.730    -0.255    18.212     5.762
    10   6 C        3.008     0.144    24.852     8.178
    11   6 C        2.914    -0.062    29.541     8.913
    12   6 C        2.927    -0.038    28.941     8.822
    13   6 C        2.972     0.006    27.886     8.662
    14   6 C        3.902     0.027    20.057     6.366
    15   6 C        3.761    -0.107    22.595     6.776
    16   6 C        3.762    -0.106    22.570     6.772
    17   6 C        3.761    -0.111    22.676     6.788
    18   6 C        2.969    -0.031    28.774     8.799
    19   6 C        2.919    -0.015    28.375     8.735
    20  15 P        4.113     0.064   157.423    22.538
    21   8 O        0.808    -0.400    21.701     6.244
    22   6 C        2.920     0.018    27.619     8.618
    23   6 C        3.024    -0.020    28.472     8.753
    24   6 C        2.919    -0.027    28.682     8.782
    25   6 C        2.921    -0.026    28.650     8.778
    26   6 C        2.920    -0.028    28.694     8.784
    27   6 C        2.976    -0.024    28.604     8.773
    28   6 C        2.920     0.006    27.878     8.658
    29   6 C        2.975    -0.026    28.658     8.781
    30   6 C        2.919    -0.028    28.694     8.784
    31   6 C        2.920    -0.025    28.625     8.774
    32   6 C        2.918    -0.027    28.688     8.783
    33   6 C        3.020    -0.020    28.490     8.755
    34   6 C        2.918    -0.053    29.309     8.878
    35   6 C        2.926    -0.039    28.959     8.825
    36   1 H        0.925     0.034     2.529     2.487
    37   1 H        0.925     0.042     2.422     2.434
    38   1 H        0.925     0.039     2.466     2.455
    39   1 H        0.925     0.034     2.528     2.486
    40   1 H        0.925     0.042     2.418     2.432
    41   1 H        0.925     0.039     2.467     2.456
    42   1 H        0.925     0.037     2.486     2.466
    43   1 H        0.925     0.037     2.485     2.465
    44   1 H        0.925     0.041     2.437     2.441
    45   1 H        0.926     0.045     2.389     2.417
    46   1 H        0.926     0.035     2.515     2.480
    47   1 H        0.926     0.045     2.389     2.417
    48   1 H        0.926     0.059     2.206     2.323
    49   1 H        0.925     0.037     2.493     2.469
    50   1 H        0.925     0.037     2.483     2.464
    51   1 H        0.925     0.044     2.390     2.417
    52   1 H        0.925     0.045     2.385     2.415
    53   1 H        0.925     0.034     2.532     2.488
    54   1 H        0.925     0.035     2.515     2.480
    55   1 H        0.925     0.044     2.400     2.423
    56   1 H        0.925     0.041     2.441     2.443
    57   1 H        0.925     0.039     2.462     2.454
    58   1 H        0.926     0.044     2.392     2.418
    59   1 H        0.925     0.044     2.402     2.424
    60   1 H        0.926     0.042     2.423     2.434
    61   1 H        0.926     0.045     2.378     2.411
    62   1 H        0.926     0.045     2.386     2.416
    63   1 H        0.925     0.037     2.490     2.468
    64   1 H        0.926     0.045     2.383     2.414
    65   1 H        0.926     0.045     2.382     2.413
    66   1 H        0.926     0.045     2.381     2.413
    67   1 H        0.926     0.042     2.427     2.436
    68   1 H        0.925     0.046     2.373     2.409
    69   1 H        0.926     0.040     2.444     2.445
    70   1 H        0.926     0.051     2.311     2.377

molecular dipole:
                 x           y           z       tot (Debye)
 q only:        0.361      -0.832      -2.383
   full:        0.295      -0.804      -2.407       6.495

 projected vibrational frequencies (cm⁻¹)
eigval :       -0.00    -0.00    -0.00    -0.00    -0.00     0.00
eigval :       10.28    17.11    18.29    21.62    27.10    30.67
eigval :       39.01    43.92    56.82    66.05    71.13    72.63
eigval :       99.21   106.37   136.05   151.17   158.51   162.34
eigval :      169.98   179.96   195.35   205.38   211.83   212.70
eigval :      226.79   233.66   241.37   269.79   278.20   288.61
eigval :      301.10   315.37   316.34   327.78   336.97   353.64
eigval :      357.28   361.89   364.48   368.86   377.09   383.46
eigval :      406.42   416.62   423.82   432.31   439.81   447.38
eigval :      457.80   464.88   495.32   512.36   517.14   532.59
eigval :      566.89   585.10   586.37   592.63   605.98   654.12
eigval :      656.58   660.48   672.36   683.59   689.42   706.40
eigval :      712.71   735.76   744.92   765.58   807.49   818.03
eigval :      834.25   861.47   863.22   875.49   881.91   889.51
eigval :      892.99   900.94   904.07   907.14   912.31   915.78
eigval :      922.42   926.85   929.77   930.95   933.52   958.32
eigval :      959.61   960.72   962.01   962.23   965.36   972.37
eigval :      974.39  1006.79  1032.90  1034.46  1034.70  1036.49
eigval :     1056.47  1074.98  1078.31  1108.48  1115.53  1123.49
eigval :     1124.83  1132.95  1133.86  1142.42  1175.78  1177.00
eigval :     1178.52  1185.13  1186.61  1192.26  1217.57  1223.67
eigval :     1225.92  1225.97  1231.46  1231.94  1237.76  1254.21
eigval :     1265.45  1272.04  1273.86  1288.03  1290.78  1319.07
eigval :     1320.13  1321.66  1324.65  1394.75  1399.11  1401.27
eigval :     1403.15  1406.14  1411.70  1421.18  1424.02  1426.05
eigval :     1426.18  1451.78  1453.61  1455.54  1480.66  1486.30
eigval :     1486.72  1489.21  1489.81  1496.99  1497.87  1500.41
eigval :     1501.77  1509.61  1510.05  1516.64  1516.81  1564.25
eigval :     1576.73  1581.45  1583.90  1585.36  1587.73  1591.65
eigval :     1603.65  3021.69  3022.82  3023.13  3024.73  3025.86
eigval :     3026.82  3027.67  3028.20  3029.51  3031.61  3032.92
eigval :     3034.67  3037.43  3039.76  3042.44  3045.40  3047.92
eigval :     3048.58  3057.33  3065.91  3068.98  3074.55  3075.54
eigval :     3078.44  3078.66  3079.15  3080.12  3080.42  3086.85
eigval :     3090.32  3091.62  3092.81  3092.95  3118.32  3119.44

   temp. (K)  partition function   enthalpy   heat capacity  entropy
                                   cal/mol     cal/K/mol   cal/K/mol   J/K/mol
 298.15  VIB  0.236E+17            20370.920    122.533    127.494
         ROT  0.328E+08              888.752      2.981     37.371
         INT  0.773E+24            21259.672    125.514    164.865
         TR   0.103E+29             1481.254      4.968     44.390
         TOT                       22740.9264   130.4822   209.2545   875.5210

       T/K    H(0)-H(T)+PV         H(T)/Eh          T*S/Eh         G(T)/Eh
   ------------------------------------------------------------------------
    298.15    0.362400E-01    0.609120E+00    0.994236E-01    0.509697E+00
   ------------------------------------------------------------------------

         :::::::::::::::::::::::::::::::::::::::::::::::::::::
         ::                  THERMODYNAMIC                  ::
         :::::::::::::::::::::::::::::::::::::::::::::::::::::
         :: total free energy         -96.621240757678 Eh   ::
         ::.................................................::
         :: total energy              -97.130937347489 Eh   ::
         :: zero point energy           0.572880199828 Eh   ::
         :: G(RRHO) w/o ZPVE           -0.063183610017 Eh   ::
         :: G(RRHO) contrib.            0.509696589811 Eh   ::
         :::::::::::::::::::::::::::::::::::::::::::::::::::::

           -------------------------------------------------
          | TOTAL ENERGY              -97.130937347489 Eh   |
          | TOTAL ENTHALPY            -96.521817174696 Eh   |
          | TOTAL FREE ENERGY         -96.621240757678 Eh   |
          | GRADIENT NORM               0.000057230145 Eh/α |
          | HOMO-LUMO GAP               3.363379587777 eV   |
           -------------------------------------------------

 * finished run on 2025/08/30 at 11:34:19.996
