   * xtb version 6.7.1 (edcfbbe) compiled by 'albert@albert-system' on 2024-07-22

   ID    Z sym.   atoms
    1    6 C      1-8, 10-19, 22-35
    2    8 O      9, 21
    3   15 P      20
    4    1 H      36-70

          program call               : xtb data2507/toluene/POBBPE/POBBPE_toluene_S0_crest.xyz --gfn 2 --gbsa toluene --ohess vtight --parallel 40 --molden --ceasefiles --namespace data2507/toluene/POBBPE/POBBPE_toluene_S0_finalOpt
      * Solvation model:               GBSA
        Solvent                        toluene
        Solvent mass                       9.2140E+01 g/mol
          :  Hamiltonian                  GFN2-xTB          :
 * total energy  :   -97.1293823 Eh     change       -0.1874966E-08 Eh
 * total energy  :   -97.1295026 Eh     change       -0.1203150E-03 Eh
 * total energy  :   -97.1295742 Eh     change       -0.7159962E-04 Eh
 * total energy  :   -97.1296029 Eh     change       -0.2868134E-04 Eh
 * total energy  :   -97.1296267 Eh     change       -0.2384387E-04 Eh
 * total energy  :   -97.1296601 Eh     change       -0.3337636E-04 Eh
 * total energy  :   -97.1296904 Eh     change       -0.3029052E-04 Eh
 * total energy  :   -97.1297066 Eh     change       -0.1616240E-04 Eh
 * total energy  :   -97.1297262 Eh     change       -0.1965294E-04 Eh
 * total energy  :   -97.1297401 Eh     change       -0.1390296E-04 Eh
 * total energy  :   -97.1301283 Eh     change       -0.1990177E-06 Eh
 * total energy  :   -97.1301284 Eh     change       -0.1845278E-06 Eh
 * total energy  :   -97.1301286 Eh     change       -0.1820566E-06 Eh
 * total energy  :   -97.1301288 Eh     change       -0.1697881E-06 Eh
 * total energy  :   -97.1301289 Eh     change       -0.1465462E-06 Eh
 * total energy  :   -97.1301291 Eh     change       -0.1500701E-06 Eh
 * total energy  :   -97.1301292 Eh     change       -0.1557258E-06 Eh
 * total energy  :   -97.1301294 Eh     change       -0.1393062E-06 Eh
 * total energy  :   -97.1301294 Eh     change       -0.7683525E-09 Eh
   *** GEOMETRY OPTIMIZATION CONVERGED AFTER 68 ITERATIONS ***

 final structure:
================
70
 xtb: 6.7.1 (edcfbbe)
C            6.18958815155341       -2.45394677895532       -0.26113331127401
C            5.86606223046816       -1.19477482544531        0.54881148141724
C            6.58936793655007       -0.00683725635528       -0.10275421768724
C            6.38704169006174       -1.39985833292142        1.97918098778026
C            4.37488470388596       -0.89680965328261        0.59863565129617
C            3.42408882352039       -1.67283757712964       -0.05160818621247
C            2.07423993380337       -1.37194078646971        0.00843967819642
C            1.63963282003256       -0.27824338631815        0.74031109070687
O            0.32442502551745        0.12314243177961        0.80470797930736
C           -0.68375649838527       -0.78027248214993        0.59384163065917
C           -0.72171663045455       -2.03189358234963        1.19040507149724
C           -1.81167544458380       -2.86442673509383        1.00057418256540
C           -2.89490764009181       -2.48476530251479        0.21466792587628
C           -4.10776763212613       -3.37145969179573       -0.02079987883353
C           -4.01843861200349       -4.70347169741173        0.72977082379733
C           -4.21992614609246       -3.66827209817193       -1.52344888122243
C           -5.36512827043247       -2.63113681953645        0.45807205505887
C           -2.83848471770356       -1.22702320298784       -0.37727716433681
C           -1.75790795095740       -0.38066718309221       -0.19910969638184
P           -1.79344328960569        1.22315435049771       -1.06112054387147
O           -2.71284945292868        1.19284369332494       -2.21767389725587
C           -2.26482385245211        2.47331209439242        0.17337726722901
C           -1.60241804836504        2.62245821924626        1.38634370436529
C           -2.02485436058202        3.58787642038527        2.28216673870996
C           -3.10619917788012        4.40021785511681        1.97512877576579
C           -3.77078878528477        4.24772052184083        0.76905751908352
C           -3.35038255045137        3.28378270048803       -0.13064989543435
C           -0.07169528920499        1.54437847979468       -1.56901890271313
C            0.50772058281069        0.59010474513970       -2.39505252267283
C            1.80153847021088        0.76076360789338       -2.85097072145668
C            2.51596258340442        1.89067885446641       -2.48553508977463
C            1.93353532908198        2.84895554770466       -1.67282039258215
C            0.63815479164389        2.68018436109372       -1.21393751600676
C            2.57445731682311        0.51619352922142        1.39340458126508
C            3.91624918315596        0.20649056315113        1.31626841034179
H            5.71256422207569       -3.33094444180365        0.17054073511381
H            7.26501051037486       -2.62025059526498       -0.25634198912631
H            5.87205624331099       -2.34696830645348       -1.29577709644857
H            6.43793014830960        0.90796529462940        0.46329233255233
H            7.65824606447684       -0.20317951603172       -0.15561920985974
H            6.21657202188281        0.15122931528294       -1.11269405231165
H            7.44816547576257       -1.63916874171579        1.95937842815091
H            5.85712599732751       -2.22048895965760        2.45887073173918
H            6.25159541519324       -0.50722880326568        2.58328158150836
H            3.71772932988307       -2.53273072252146       -0.63066410650830
H            1.36042454311228       -1.98470152210630       -0.52302613290560
H            0.10442673524506       -2.35031233247343        1.81022720885842
H           -1.79799292314325       -3.82595385094166        1.48638706894631
H           -3.95378504710186       -4.54349524449740        1.80351756534777
H           -3.15897466273606       -5.28253977248233        0.40021606387593
H           -4.91326740877710       -5.28917820495023        0.53032482908749
H           -5.08507412874009       -4.29889590401761       -1.71602160199547
H           -4.32913019448874       -2.75323672619535       -2.09943782704528
H           -3.32925578528030       -4.18664784623486       -1.87339845352871
H           -6.24334313492357       -3.25699315062883        0.31558217161444
H           -5.28042408993501       -2.38877153620898        1.51567908882936
H           -5.51337469237051       -1.70621588288225       -0.09252308127747
H           -3.63266775942186       -0.86978084377864       -1.01720163779134
H           -0.76220679842027        1.98593447230035        1.61571740627999
H           -1.51006729260730        3.70777153161013        3.22443470341716
H           -3.43156684236592        5.15261701269687        2.67857987247009
H           -4.61479146126145        4.87795202580063        0.52945426600367
H           -3.85172788005774        3.14289833147005       -1.07830778337208
H           -0.07263255111432       -0.28167082652351       -2.67245383491655
H            2.25322057453923        0.01443376475204       -3.48815627925818
H            3.52758149093243        2.02590459390024       -2.83820904661428
H            2.49000553955432        3.73183373941052       -1.39378545986282
H            0.17902831683285        3.42399842517868       -0.57797211220417
H            2.23562916318413        1.37636411086181        1.95028244553690
H            4.61537374679518        0.84553012736669        1.83311369019646

          :  Hamiltonian                  GFN2-xTB          :
         :: gradient norm              0.000024141575 Eh/a0 ::
         :: HOMO-LUMO gap              3.331745809803 eV    ::
         :: SCC energy               -98.759817441288 Eh    ::
         :: -> dispersion             -0.090709038507 Eh    ::
         :: -> Gsolv                  -0.042249527943 Eh    ::
         :: repulsion energy           1.629688060127 Eh    ::

    * Orbital Energies and Occupations

         #    Occupation            Energy/Eh            Energy/eV
      -------------------------------------------------------------
         1        2.0000           -0.7294028             -19.8481
       ...           ...                  ...                  ...
        78        2.0000           -0.4233792             -11.5207
        79        2.0000           -0.4225532             -11.4983
        80        2.0000           -0.4203163             -11.4374
        81        2.0000           -0.4172842             -11.3549
        82        2.0000           -0.4155444             -11.3075
        83        2.0000           -0.4149510             -11.2914
        84        2.0000           -0.4142661             -11.2728
        85        2.0000           -0.4116538             -11.2017
        86        2.0000           -0.4071501             -11.0791
        87        2.0000           -0.4048574             -11.0167
        88        2.0000           -0.4030330             -10.9671
        89        2.0000           -0.3994628             -10.8699
        90        2.0000           -0.3772757             -10.2662 (HOMO)
        91                         -0.2548363              -6.9344 (LUMO)
        92                         -0.2434431              -6.6244
        93                         -0.2381377              -6.4801
        94                         -0.2350881              -6.3971
        95                         -0.2334724              -6.3531
        96                         -0.2320607              -6.3147
        97                         -0.2257627              -6.1433
        98                         -0.2143549              -5.8329
        99                         -0.1286752              -3.5014
       100                         -0.1217447              -3.3128
       101                         -0.1132617              -3.0820
       ...                                ...                  ...
       180                          1.1963382              32.5540
      -------------------------------------------------------------
                  HL-Gap            0.1224394 Eh            3.3317 eV

     #   Z          covCN         q      C6AA      α(0)
     1   6 C        3.761    -0.109    22.630     6.781
     2   6 C        3.902     0.026    20.076     6.369
     3   6 C        3.761    -0.107    22.585     6.775
     4   6 C        3.761    -0.107    22.591     6.776
     5   6 C        2.972     0.004    27.930     8.669
     6   6 C        2.927    -0.040    28.991     8.830
     7   6 C        2.917    -0.060    29.492     8.905
     8   6 C        2.868     0.135    25.058     8.206
     9   8 O        1.708    -0.271    18.487     5.805
    10   6 C        2.923     0.139    24.974     8.195
    11   6 C        2.916    -0.058    29.438     8.897
    12   6 C        2.927    -0.037    28.925     8.820
    13   6 C        2.971     0.007    27.853     8.657
    14   6 C        3.902     0.028    20.055     6.366
    15   6 C        3.761    -0.111    22.676     6.788
    16   6 C        3.761    -0.106    22.577     6.773
    17   6 C        3.761    -0.107    22.584     6.774
    18   6 C        3.031    -0.027    28.652     8.780
    19   6 C        2.917    -0.016    28.419     8.742
    20  15 P        4.079     0.072   157.062    22.513
    21   8 O        0.808    -0.414    21.981     6.285
    22   6 C        2.920     0.011    27.762     8.640
    23   6 C        2.975    -0.027    28.667     8.782
    24   6 C        2.920    -0.027    28.685     8.783
    25   6 C        2.920    -0.024    28.610     8.771
    26   6 C        2.918    -0.027    28.687     8.783
    27   6 C        3.026    -0.020    28.483     8.754
    28   6 C        2.921     0.019    27.587     8.613
    29   6 C        3.036    -0.018    28.429     8.745
    30   6 C        2.919    -0.027    28.680     8.782
    31   6 C        2.921    -0.026    28.648     8.777
    32   6 C        2.920    -0.026    28.663     8.780
    33   6 C        2.969    -0.023    28.577     8.769
    34   6 C        2.918    -0.055    29.364     8.886
    35   6 C        2.929    -0.035    28.873     8.812
    36   1 H        0.925     0.037     2.489     2.467
    37   1 H        0.925     0.040     2.447     2.446
    38   1 H        0.925     0.037     2.490     2.468
    39   1 H        0.925     0.038     2.472     2.459
    40   1 H        0.925     0.042     2.429     2.437
    41   1 H        0.925     0.034     2.531     2.488
    42   1 H        0.925     0.041     2.432     2.439
    43   1 H        0.925     0.034     2.532     2.488
    44   1 H        0.925     0.038     2.470     2.457
    45   1 H        0.926     0.048     2.347     2.395
    46   1 H        0.926     0.029     2.600     2.521
    47   1 H        0.926     0.047     2.362     2.403
    48   1 H        0.926     0.060     2.199     2.319
    49   1 H        0.925     0.040     2.446     2.446
    50   1 H        0.925     0.040     2.446     2.446
    51   1 H        0.925     0.044     2.397     2.421
    52   1 H        0.925     0.045     2.387     2.416
    53   1 H        0.925     0.037     2.488     2.467
    54   1 H        0.925     0.035     2.517     2.481
    55   1 H        0.925     0.045     2.385     2.415
    56   1 H        0.925     0.035     2.516     2.480
    57   1 H        0.925     0.037     2.495     2.470
    58   1 H        0.926     0.055     2.258     2.350
    59   1 H        0.926     0.055     2.256     2.349
    60   1 H        0.926     0.044     2.391     2.418
    61   1 H        0.926     0.046     2.373     2.409
    62   1 H        0.926     0.043     2.408     2.426
    63   1 H        0.925     0.048     2.339     2.391
    64   1 H        0.925     0.034     2.534     2.489
    65   1 H        0.926     0.042     2.417     2.431
    66   1 H        0.926     0.046     2.372     2.409
    67   1 H        0.926     0.045     2.381     2.413
    68   1 H        0.926     0.038     2.470     2.458
    69   1 H        0.926     0.042     2.424     2.435
    70   1 H        0.926     0.044     2.397     2.421

molecular dipole:
                 x           y           z       tot (Debye)
 q only:        1.477      -0.720       1.475
   full:        1.509      -0.708       1.577       5.832

 projected vibrational frequencies (cm⁻¹)
eigval :       -0.00    -0.00    -0.00     0.00     0.00     0.00
eigval :       14.60    21.30    22.00    25.36    29.95    37.56
eigval :       40.27    50.88    53.27    61.30    66.19    79.82
eigval :       98.59   104.65   137.62   153.67   161.16   166.71
eigval :      173.39   183.73   202.22   212.31   219.53   222.27
eigval :      230.62   233.99   252.71   263.66   275.75   279.15
eigval :      302.01   315.13   316.80   317.15   337.18   346.15
eigval :      356.14   362.34   363.67   366.70   382.23   385.27
eigval :      409.94   411.68   424.83   431.08   442.67   455.72
eigval :      457.73   485.49   493.23   507.57   521.57   530.96
eigval :      562.90   585.75   586.12   592.84   606.17   651.84
eigval :      656.32   661.87   669.84   684.02   684.66   706.35
eigval :      720.64   738.18   740.49   762.37   808.64   817.77
eigval :      837.47   858.71   862.33   875.96   879.67   892.08
eigval :      893.11   898.71   904.44   908.25   913.48   918.29
eigval :      922.94   925.36   926.99   930.14   931.03   959.62
eigval :      959.90   961.74   962.79   963.37   964.05   971.50
eigval :      975.61  1006.89  1034.37  1034.56  1035.01  1036.09
eigval :     1059.98  1077.86  1078.17  1112.98  1114.06  1121.38
eigval :     1128.98  1135.32  1138.53  1145.40  1177.08  1177.56
eigval :     1179.07  1188.34  1190.38  1191.77  1211.80  1223.64
eigval :     1226.09  1226.13  1231.59  1232.64  1236.12  1250.27
eigval :     1270.49  1272.99  1276.81  1289.83  1291.09  1317.88
eigval :     1319.99  1320.73  1325.70  1387.67  1399.10  1402.00
eigval :     1402.50  1404.07  1411.76  1421.26  1424.11  1426.35
eigval :     1426.44  1450.61  1455.58  1461.87  1482.14  1485.81
eigval :     1487.37  1491.11  1491.27  1497.00  1498.72  1499.57
eigval :     1502.53  1510.14  1510.70  1514.47  1516.65  1558.89
eigval :     1578.64  1580.23  1584.35  1585.38  1588.16  1589.97
eigval :     1605.98  3021.71  3022.86  3023.01  3024.47  3026.00
eigval :     3026.98  3027.30  3028.05  3030.10  3031.42  3033.02
eigval :     3034.01  3037.47  3039.39  3041.50  3045.82  3047.23
eigval :     3048.61  3050.06  3067.59  3069.35  3074.41  3075.74
eigval :     3076.23  3077.82  3079.60  3079.67  3080.68  3086.79
eigval :     3089.81  3092.23  3098.26  3108.80  3116.30  3120.17

   temp. (K)  partition function   enthalpy   heat capacity  entropy
                                   cal/mol     cal/K/mol   cal/K/mol   J/K/mol
 298.15  VIB  0.609E+16            20284.740    122.705    126.213
         ROT  0.325E+08              888.752      2.981     37.356
         INT  0.198E+24            21173.493    125.686    163.569
         TR   0.103E+29             1481.254      4.968     44.390
         TOT                       22654.7467   130.6543   207.9588   870.0994

       T/K    H(0)-H(T)+PV         H(T)/Eh          T*S/Eh         G(T)/Eh
   ------------------------------------------------------------------------
    298.15    0.361026E-01    0.609254E+00    0.988079E-01    0.510446E+00
   ------------------------------------------------------------------------

         :::::::::::::::::::::::::::::::::::::::::::::::::::::
         ::                  THERMODYNAMIC                  ::
         :::::::::::::::::::::::::::::::::::::::::::::::::::::
         :: total free energy         -96.619683551964 Eh   ::
         ::.................................................::
         :: total energy              -97.130129377760 Eh   ::
         :: zero point energy           0.573151105885 Eh   ::
         :: G(RRHO) w/o ZPVE           -0.062705280089 Eh   ::
         :: G(RRHO) contrib.            0.510445825797 Eh   ::
         :::::::::::::::::::::::::::::::::::::::::::::::::::::

           -------------------------------------------------
          | TOTAL ENERGY              -97.130129377760 Eh   |
          | TOTAL ENTHALPY            -96.520875634966 Eh   |
          | TOTAL FREE ENERGY         -96.619683551964 Eh   |
          | GRADIENT NORM               0.000024143851 Eh/α |
          | HOMO-LUMO GAP               3.331745981551 eV   |
           -------------------------------------------------

 * finished run on 2025/08/30 at 11:42:32.355
