   * xtb version 6.7.1 (edcfbbe) compiled by 'albert@albert-system' on 2024-07-22

   ID    Z sym.   atoms
    1    6 C      1-5, 7-13, 15-18, 20-33, 35-47, 49, 50
    2    7 N      6, 14, 19, 34, 48
    3    1 H      51-79

          program call               : xtb data2507/toluene/DCzTrz/DCzTrz_toluene_S0_finalOpt.xtbopt.xyz --gfn 2 --uhf 2 --gbsa toluene --ohess vtight --parallel 40 --molden --ceasefiles --namespace data2507/toluene/DCzTrz/DCzTrz_toluene_T1_preOpt
      * Solvation model:               GBSA
        Solvent                        toluene
        Solvent mass                       9.2140E+01 g/mol
          :  Hamiltonian                  GFN2-xTB          :
 * total energy  :  -125.8236502 Eh     change       -0.8267449E-08 Eh
 * total energy  :  -125.8256709 Eh     change       -0.2020730E-02 Eh
 * total energy  :  -125.8268910 Eh     change       -0.1220009E-02 Eh
 * total energy  :  -125.8270981 Eh     change       -0.2071579E-03 Eh
 * total energy  :  -125.8272963 Eh     change       -0.1981479E-03 Eh
 * total energy  :  -125.8273390 Eh     change       -0.4276755E-04 Eh
 * total energy  :  -125.8273638 Eh     change       -0.2478295E-04 Eh
 * total energy  :  -125.8273763 Eh     change       -0.1253396E-04 Eh
 * total energy  :  -125.8273895 Eh     change       -0.1317127E-04 Eh
 * total energy  :  -125.8274063 Eh     change       -0.1673823E-04 Eh
 * total energy  :  -125.8278531 Eh     change       -0.9327053E-06 Eh
 * total energy  :  -125.8278540 Eh     change       -0.8427997E-06 Eh
 * total energy  :  -125.8278548 Eh     change       -0.8069226E-06 Eh
 * total energy  :  -125.8278556 Eh     change       -0.8578651E-06 Eh
 * total energy  :  -125.8278566 Eh     change       -0.9337804E-06 Eh
 * total energy  :  -125.8278575 Eh     change       -0.9621673E-06 Eh
 * total energy  :  -125.8278585 Eh     change       -0.9659264E-06 Eh
 * total energy  :  -125.8278595 Eh     change       -0.9772313E-06 Eh
 * total energy  :  -125.8278595 Eh     change       -0.7018755E-08 Eh
   *** GEOMETRY OPTIMIZATION CONVERGED AFTER 68 ITERATIONS ***

 final structure:
================
79
 xtb: 6.7.1 (edcfbbe)
C           -6.02060473747860       -4.86470873678856        0.13192295939619
C           -6.72062504507491       -3.66780811781051        0.10834698321353
C           -6.04078840823103       -2.46645169838678        0.06417674279442
C           -4.64534246084779       -2.44849066098802        0.04321747178244
C           -3.92495287716702       -1.17973156129130        0.00964303290226
N           -4.64731481858244       -0.04030798001548        0.00613073678885
C           -3.94516798920125        1.11161422349569       -0.00215595833446
C           -4.68763261695477        2.36766249604706       -0.03206842119293
C           -6.08332552366387        2.36195293999303       -0.03496128942685
C           -6.78386361224839        3.55150897738232       -0.07488006421126
C           -6.10454808198929        4.75993468372033       -0.11224493247759
C           -4.71689352272301        4.77381941633123       -0.10851215328430
C           -4.01100369512989        3.58847393460501       -0.06872534414988
N           -2.63750146673513        1.15645209708520        0.00960390729000
C           -1.95504082209472       -0.01667379538444       -0.00119530334113
C           -0.53521178135790       -0.00403699432019       -0.00312337872985
C            0.17729335791762        1.20597570814633        0.12856650773518
C            1.55871972804223        1.21112927632781        0.12587910489936
N            2.24665583905770        2.42544523405480        0.27853049847205
C            2.00294241904435        3.58135040302276       -0.43280661906954
C            1.10894977863150        3.80899175393514       -1.47199410317534
C            1.08104985765260        5.07253615699441       -2.03326612123552
C            1.92699954816313        6.08486833470568       -1.58647334542797
C            2.83685456766896        5.85720840137269       -0.56813456003156
C            2.88053006932909        4.59904956764975        0.01268946924439
C            3.68181188319989        4.01637696503259        1.05741361807049
C            4.68337709578725        4.50905653614857        1.87981308098745
C            5.23637625557040        3.66522533208295        2.82792076568586
C            4.79008463217335        2.35349462050953        2.96881152992981
C            3.79360954863289        1.83968569383925        2.15928348331208
C            3.25280547903357        2.67360866009343        1.18835801723116
C            2.28068616590057        0.02065349733246       -0.00392657925223
C            1.57973540446498       -1.18231046094157       -0.13399358424011
N            2.28852936408277       -2.38446543097150       -0.28690525653974
C            2.06243892874561       -3.54552681714998        0.42199868369643
C            1.17050164849936       -3.78978541885111        1.45919902929040
C            1.16202627841005       -5.05479791790628        2.01779730506572
C            2.02501488399857       -6.05241808660201        1.57050500595305
C            2.93320492155785       -5.80778484091469        0.55463488379544
C            2.95756562857499       -4.54783967013921       -0.02346414503647
C            3.75155059064770       -3.95011762776218       -1.06521925119833
C            4.76324358809411       -4.42480221204163       -1.88579606719665
C            5.30479870970075       -3.57029598698880       -2.83092136468633
C            4.83730049225289       -2.26586503558136       -2.97071299859947
C            3.83019024430667       -1.77006302618365       -2.16310097586259
C            3.30079621570094       -2.61436581927185       -1.19484179339789
C            0.19840122353529       -1.20119493352439       -0.13617217298410
N           -2.61677176842349       -1.20167939064375       -0.00935302938393
C           -3.94780863621178       -3.65781801888822        0.06595153513568
C           -4.63308296272164       -4.85508708415215        0.10976325729652
H           -6.55445259962425       -5.80283367046239        0.16765425680113
H           -7.80088607217288       -3.67315432774751        0.12530350367127
H           -6.57108576460096       -1.52646583693626        0.04652666087796
H           -6.59738211540661        1.41324915098870       -0.00668028045312
H           -7.86418587521885        3.53865485665853       -0.07769905904434
H           -6.65458175317186        5.68879124309966       -0.14464144818771
H           -4.18595773351567        5.71424877819683       -0.13778405620387
H           -2.93149302717906        3.58409483371904       -0.06753744790973
H           -0.37721152969146        2.11990643018867        0.26688591966336
H            0.45895981190314        3.02629939381869       -1.83247178964482
H            0.39022115349312        5.27628348574085       -2.83792809902388
H            1.87451701712217        7.05905850305119       -2.04915802979211
H            3.50036573764156        6.63986987529894       -0.23350427117988
H            5.01828686427104        5.53066870833666        1.78521473063223
H            6.01822347598563        4.02977060375340        3.47729563523680
H            5.22757234102536        1.72454552879953        3.72979182174015
H            3.43870216422872        0.82895421820180        2.28903535348067
H            3.35801018321731        0.03015827214495       -0.00354753422989
H            0.50741301744523       -3.01852774763222        1.82043046961063
H            0.47312090263547       -5.27127497902273        2.82077959254555
H            1.98731120366213       -7.02833891042386        2.03096297472797
H            3.61008815943662       -6.57880385792086        0.21976878484568
H            5.11467230223302       -5.44092554089576       -1.79203776459848
H            6.09442803067422       -3.92067567936329       -3.47867520432740
H            5.26634585987469       -1.62847631603060       -3.72946607205381
H            3.45883305508271       -0.76522726592093       -2.29248947158460
H           -0.34014026629127       -2.12457480161022       -0.27458393181337
H           -2.86863635023807       -3.63525482787304        0.05077892707717
H           -4.08606800369904       -5.78654204934092        0.12803474399281

          :  Hamiltonian                  GFN2-xTB          :
         :: gradient norm              0.000066851125 Eh/a0 ::
         :: HOMO-LUMO gap              0.211415940520 eV    ::
         :: SCC energy              -128.141236810167 Eh    ::
         :: -> dispersion             -0.109210488140 Eh    ::
         :: -> Gsolv                  -0.059422723805 Eh    ::
         :: repulsion energy           2.313377332149 Eh    ::

    * Orbital Energies and Occupations

         #    Occupation            Energy/Eh            Energy/eV
      -------------------------------------------------------------
         1        2.0000           -0.6881370             -18.7252
       ...           ...                  ...                  ...
       106        2.0000           -0.4150050             -11.2929
       107        2.0000           -0.4103127             -11.1652
       108        2.0000           -0.4102467             -11.1634
       109        2.0000           -0.4074867             -11.0883
       110        2.0000           -0.4046571             -11.0113
       111        2.0000           -0.4022007             -10.9444
       112        2.0000           -0.3890729             -10.5872
       113        2.0000           -0.3890682             -10.5871
       114        1.9178           -0.3734290             -10.1615
       115        1.8460           -0.3727559             -10.1432
       116        1.7624           -0.3722448             -10.1293
       117        1.4739           -0.3710379             -10.0965
       118        0.9835           -0.2875363              -7.8243 (HOMO)
       119        0.0165           -0.2797666              -7.6128 (LUMO)
       120                         -0.2553576              -6.9486
       121                         -0.2546036              -6.9281
       122                         -0.2453989              -6.6776
       123                         -0.2383321              -6.4853
       124                         -0.2328589              -6.3364
       125                         -0.2328491              -6.3361
       126                         -0.2272319              -6.1833
       127                         -0.2272190              -6.1829
       128                         -0.2115319              -5.7561
       129                         -0.1971789              -5.3655
       ...                                ...                  ...
       229                          0.7347161              19.9926
      -------------------------------------------------------------
                  HL-Gap            0.0077697 Eh            0.2114 eV

     #   Z          covCN         q      C6AA      α(0)
     1   6 C        2.920    -0.029    28.720     8.788
     2   6 C        2.918    -0.030    28.743     8.792
     3   6 C        2.924    -0.030    28.741     8.792
     4   6 C        2.983    -0.009    28.240     8.717
     5   6 C        2.932     0.209    23.591     7.966
     6   7 N        1.843    -0.337    29.610     8.064
     7   6 C        2.932     0.209    23.591     7.966
     8   6 C        2.983    -0.009    28.240     8.717
     9   6 C        2.924    -0.030    28.741     8.792
    10   6 C        2.918    -0.030    28.743     8.792
    11   6 C        2.920    -0.029    28.720     8.788
    12   6 C        2.918    -0.030    28.746     8.792
    13   6 C        2.923    -0.030    28.754     8.794
    14   7 N        1.845    -0.298    28.581     7.923
    15   6 C        2.938     0.166    24.428     8.106
    16   6 C        2.976    -0.016    28.397     8.741
    17   6 C        2.924    -0.053    29.327     8.881
    18   6 C        2.908     0.060    26.651     8.465
    19   7 N        2.804    -0.020    21.639     6.909
    20   6 C        3.074     0.048    26.848     8.496
    21   6 C        2.909    -0.043    29.073     8.841
    22   6 C        2.923    -0.031    28.780     8.798
    23   6 C        2.920    -0.034    28.856     8.809
    24   6 C        2.912    -0.030    28.743     8.791
    25   6 C        3.065    -0.013    28.262     8.718
    26   6 C        3.065    -0.013    28.259     8.717
    27   6 C        2.912    -0.030    28.738     8.791
    28   6 C        2.920    -0.034    28.854     8.809
    29   6 C        2.923    -0.031    28.781     8.798
    30   6 C        2.909    -0.044    29.094     8.845
    31   6 C        3.073     0.048    26.850     8.496
    32   6 C        2.921    -0.079    29.970     8.978
    33   6 C        2.908     0.060    26.651     8.465
    34   7 N        2.804    -0.020    21.638     6.909
    35   6 C        3.073     0.048    26.849     8.496
    36   6 C        2.909    -0.043    29.073     8.841
    37   6 C        2.923    -0.031    28.780     8.798
    38   6 C        2.920    -0.034    28.856     8.809
    39   6 C        2.912    -0.030    28.743     8.791
    40   6 C        3.065    -0.013    28.262     8.717
    41   6 C        3.065    -0.013    28.259     8.717
    42   6 C        2.912    -0.030    28.738     8.791
    43   6 C        2.920    -0.034    28.854     8.809
    44   6 C        2.923    -0.031    28.781     8.798
    45   6 C        2.909    -0.044    29.094     8.845
    46   6 C        3.073     0.048    26.850     8.496
    47   6 C        2.924    -0.053    29.328     8.881
    48   7 N        1.845    -0.298    28.583     7.923
    49   6 C        2.923    -0.030    28.754     8.794
    50   6 C        2.918    -0.030    28.746     8.792
    51   1 H        0.926     0.042     2.418     2.432
    52   1 H        0.926     0.040     2.446     2.446
    53   1 H        0.926     0.042     2.423     2.434
    54   1 H        0.926     0.042     2.423     2.434
    55   1 H        0.926     0.040     2.446     2.446
    56   1 H        0.926     0.042     2.418     2.432
    57   1 H        0.926     0.041     2.433     2.439
    58   1 H        0.926     0.042     2.424     2.435
    59   1 H        0.926     0.047     2.363     2.404
    60   1 H        0.926     0.036     2.498     2.471
    61   1 H        0.926     0.039     2.461     2.453
    62   1 H        0.926     0.041     2.441     2.443
    63   1 H        0.926     0.043     2.404     2.425
    64   1 H        0.926     0.043     2.411     2.428
    65   1 H        0.926     0.040     2.443     2.444
    66   1 H        0.926     0.041     2.441     2.443
    67   1 H        0.926     0.040     2.454     2.450
    68   1 H        0.926     0.048     2.347     2.396
    69   1 H        0.926     0.036     2.497     2.471
    70   1 H        0.926     0.039     2.461     2.453
    71   1 H        0.926     0.041     2.441     2.443
    72   1 H        0.926     0.043     2.404     2.425
    73   1 H        0.926     0.043     2.411     2.428
    74   1 H        0.926     0.040     2.443     2.444
    75   1 H        0.926     0.041     2.440     2.443
    76   1 H        0.926     0.040     2.453     2.449
    77   1 H        0.926     0.047     2.363     2.404
    78   1 H        0.926     0.042     2.425     2.435
    79   1 H        0.926     0.041     2.433     2.439

molecular dipole:
                 x           y           z       tot (Debye)
 q only:        2.529       0.021      -0.002
   full:        2.310       0.019      -0.002       5.871

 projected vibrational frequencies (cm⁻¹)
eigval :       -0.00    -0.00    -0.00     0.00     0.00     0.00
eigval :      -18.33   -10.25    11.50    18.89    20.61    22.24
eigval :       25.86    26.63    48.04    57.19    60.00    67.64
eigval :       96.11    98.60   100.31   101.24   120.89   136.40
eigval :      141.14   145.36   156.42   174.30   182.18   210.12
eigval :      213.35   226.54   235.02   243.98   248.88   255.57
eigval :      270.00   270.39   295.35   308.66   329.48   362.87
eigval :      365.76   366.70   367.94   380.83   392.02   394.98
eigval :      406.95   407.45   420.29   422.00   434.19   434.51
eigval :      440.49   488.99   500.63   514.45   515.09   536.17
eigval :      536.58   539.98   543.56   550.48   556.02   560.82
eigval :      581.33   585.32   586.97   588.59   590.68   605.97
eigval :      607.88   620.32   627.40   646.92   650.45   654.56
eigval :      662.73   673.91   674.63   688.63   689.52   709.24
eigval :      710.04   723.43   747.91   753.56   762.41   762.77
eigval :      767.82   768.69   770.03   777.43   779.09   803.01
eigval :      807.30   829.31   838.32   855.91   869.34   871.09
eigval :      871.45   874.48   874.98   878.66   894.81   897.17
eigval :      899.25   900.72   904.42   905.04   905.90   906.77
eigval :      920.52   921.28   923.39   924.94   925.96   926.46
eigval :      928.13   928.44   938.61   963.48   983.41   988.25
eigval :      994.23  1009.77  1011.12  1029.38  1066.05  1067.05
eigval :     1069.04  1070.45  1072.58  1072.99  1080.00  1107.74
eigval :     1109.26  1112.95  1113.95  1134.94  1140.97  1141.87
eigval :     1156.19  1159.92  1174.37  1175.99  1176.40  1176.59
eigval :     1177.27  1177.87  1180.45  1188.03  1192.36  1215.52
eigval :     1226.09  1228.55  1229.18  1230.46  1251.96  1266.77
eigval :     1270.08  1276.00  1281.89  1284.42  1288.25  1290.24
eigval :     1322.32  1328.23  1329.24  1329.59  1336.85  1338.28
eigval :     1354.27  1358.87  1359.01  1380.25  1389.48  1393.37
eigval :     1407.98  1409.06  1410.59  1428.74  1429.45  1433.87
eigval :     1436.32  1458.43  1459.94  1463.01  1466.33  1474.09
eigval :     1479.17  1479.46  1490.20  1530.08  1562.67  1563.08
eigval :     1569.78  1570.73  1576.33  1576.51  1576.91  1580.03
eigval :     1583.18  1590.82  1597.08  1602.98  3072.37  3072.56
eigval :     3075.25  3075.86  3078.76  3079.02  3079.25  3079.28
eigval :     3084.59  3084.87  3085.55  3085.65  3086.85  3087.16
eigval :     3091.75  3092.18  3093.19  3093.36  3094.07  3094.58
eigval :     3096.51  3097.24  3097.50  3097.77  3098.22  3099.18
eigval :     3111.87  3112.66  3116.23

   temp. (K)  partition function   enthalpy   heat capacity  entropy
                                   cal/mol     cal/K/mol   cal/K/mol   J/K/mol
 298.15  VIB  0.478E+19            22975.601    144.485    143.036
         ROT  0.484E+08              888.752      2.981     38.146
         INT  0.232E+27            23864.353    147.466    181.182
         TR   0.157E+29             1481.254      4.968     45.230
         TOT                       25345.6068   152.4344   226.4117   947.3065

       T/K    H(0)-H(T)+PV         H(T)/Eh          T*S/Eh         G(T)/Eh
   ------------------------------------------------------------------------
    298.15    0.403908E-01    0.634390E+00    0.107576E+00    0.526814E+00
   ------------------------------------------------------------------------

         :::::::::::::::::::::::::::::::::::::::::::::::::::::
         ::                  THERMODYNAMIC                  ::
         :::::::::::::::::::::::::::::::::::::::::::::::::::::
         :: total free energy        -125.301045387946 Eh   ::
         ::.................................................::
         :: total energy             -125.827859480652 Eh   ::
         :: zero point energy           0.593998798497 Eh   ::
         :: G(RRHO) w/o ZPVE           -0.067184705792 Eh   ::
         :: G(RRHO) contrib.            0.526814092705 Eh   ::
         :::::::::::::::::::::::::::::::::::::::::::::::::::::

           -------------------------------------------------
          | TOTAL ENERGY             -125.827859480652 Eh   |
          | TOTAL ENTHALPY           -125.193469886671 Eh   |
          | TOTAL FREE ENERGY        -125.301045387946 Eh   |
          | GRADIENT NORM               0.000066296618 Eh/α |
          | HOMO-LUMO GAP               0.211424099144 eV   |
           -------------------------------------------------

 * finished run on 2025/07/16 at 22:54:27.619
