   * xtb version 6.7.1 (edcfbbe) compiled by 'albert@albert-system' on 2024-07-22

   ID    Z sym.   atoms
    1    6 C      1-5, 7-13, 15-18, 20-33, 35-47, 49, 50
    2    7 N      6, 14, 19, 34, 48
    3    1 H      51-79

          program call               : xtb data2507/toluene/DCzTrz/DCzTrz.xyz --gfn 2 --gbsa toluene --ohess vtight --parallel 40 --molden --ceasefiles --namespace data2507/toluene/DCzTrz/DCzTrz_toluene_S0_preOpt
      * Solvation model:               GBSA
        Solvent                        toluene
        Solvent mass                       9.2140E+01 g/mol
          :  Hamiltonian                  GFN2-xTB          :
 * total energy  :  -125.8878683 Eh     change       -0.1317801E-08 Eh
 * total energy  :  -125.9016032 Eh     change       -0.1373492E-01 Eh
 * total energy  :  -125.9051142 Eh     change       -0.3510988E-02 Eh
 * total energy  :  -125.9059830 Eh     change       -0.8688431E-03 Eh
 * total energy  :  -125.9063650 Eh     change       -0.3819315E-03 Eh
 * total energy  :  -125.9064431 Eh     change       -0.7811858E-04 Eh
 * total energy  :  -125.9064877 Eh     change       -0.4457925E-04 Eh
 * total energy  :  -125.9065211 Eh     change       -0.3342310E-04 Eh
 * total energy  :  -125.9065367 Eh     change       -0.1557104E-04 Eh
 * total energy  :  -125.9065666 Eh     change       -0.2994821E-04 Eh
 * total energy  :  -125.9067313 Eh     change       -0.8110387E-05 Eh
 * total energy  :  -125.9067366 Eh     change       -0.5272296E-05 Eh
 * total energy  :  -125.9067402 Eh     change       -0.3646885E-05 Eh
 * total energy  :  -125.9067429 Eh     change       -0.2641129E-05 Eh
 * total energy  :  -125.9067442 Eh     change       -0.1326410E-05 Eh
 * total energy  :  -125.9067448 Eh     change       -0.6230096E-06 Eh
 * total energy  :  -125.9067452 Eh     change       -0.4067806E-06 Eh
 * total energy  :  -125.9067455 Eh     change       -0.2887943E-06 Eh
 * total energy  :  -125.9067456 Eh     change       -0.6904567E-07 Eh
   *** GEOMETRY OPTIMIZATION CONVERGED AFTER 41 ITERATIONS ***

 final structure:
================
79
 xtb: 6.7.1 (edcfbbe)
C           -6.05837721710699       -4.79875471354546        0.24679950104781
C           -6.75462027265796       -3.59945421307365        0.22997467005297
C           -6.06955180179367       -2.40139970635268        0.16625331391551
C           -4.67575970608480       -2.39446854707792        0.11893651567837
C           -3.94727662010750       -1.12844106481178        0.05248523369343
N           -4.65046827480996       -0.00021050885974       -0.00012272121405
C           -3.94755139897993        1.12819690976848       -0.05264303948022
C           -4.67639261579196        2.39403113068026       -0.11900745827770
C           -6.07015230586075        2.40051272775018       -0.16735280268275
C           -6.75558741299926        3.59836813121327       -0.23072479004366
C           -6.05974886505933        4.79791996327837       -0.24611881902715
C           -4.67378389796411        4.79821556784510       -0.19819915765539
C           -3.98233022044359        3.60376803396547       -0.13571259212681
N           -2.61602985069345        1.17409050447575       -0.04851882031142
C           -1.99608700078991        0.00011808432020       -0.00033236414707
C           -0.53028350574947        0.00022442546978       -0.00040919099234
C            0.16215736442304        1.19264047237504        0.17822805117815
C            1.55252221389475        1.19542731789926        0.16850120220150
N            2.25106911457855        2.39551886192425        0.33387180326968
C            1.99988212841720        3.57239800855103       -0.34939625112439
C            1.08140418653293        3.83217951638830       -1.35665634957732
C            1.05649759239449        5.10516010731116       -1.89519479039033
C            1.92913072880594        6.09834664728212       -1.45545715941812
C            2.86287830539580        5.83804060738263       -0.47190103494284
C            2.90558859023059        4.56645718289036        0.08575717431111
C            3.73397987566923        3.95535609850416        1.08880124613031
C            4.77051537849747        4.42519653334191        1.88527023236687
C            5.34924906922234        3.56258213466515        2.79518172183676
C            4.89547154621773        2.25204348655615        2.92731100583380
C            3.86610495173495        1.76189062420522        2.14541688554979
C            3.29866297323809        2.61602789151670        1.21062448929514
C            2.24679197708526        0.00024640572831       -0.00053123804321
C            1.55253902432788       -1.19495506251006       -0.16944520526801
N            2.25102034728969       -2.39512799046992       -0.33450720594459
C            3.29867656839181       -2.61603075230274       -1.21107881265176
C            3.86628297590958       -1.76227180140723       -2.14611745978382
C            4.89569895577901       -2.25278585012689       -2.92772094244990
C            5.34937634759561       -3.56330561631438       -2.79505520916488
C            4.77049367435752       -4.42554393148403       -1.88487973510781
C            3.73390069666590       -3.95534171142667       -1.08870303941295
C            2.90536371578600       -4.56602375717371       -0.08552720800987
C            2.86250384785580       -5.83739902436368        0.47259499368940
C            1.92868671882741       -6.09725487208502        1.45620679840931
C            1.05612894884112       -5.10382337881411        1.89554327379319
C            1.08117469672973       -3.83104976290930        1.35652687702174
C            1.99971751599357       -3.57172852405096        0.34920585372343
C            0.16217865093596       -1.19217445443618       -0.17908101895155
N           -2.61574986461307       -1.17399518443707        0.04813888891209
C           -3.98129255793942       -3.60395658615768        0.13694090394396
C           -4.67237599210277       -4.79860296102326        0.19986574683253
H           -6.59625415835522       -5.73388675960924        0.29589586653933
H           -7.83390047164378       -3.60021492839933        0.26698655322378
H           -6.59442951073891       -1.45898038381175        0.15322931916883
H           -6.59471464338290        1.45790438832634       -0.15523189294042
H           -7.83483987922040        3.59877724853037       -0.26861418016609
H           -6.59791296972672        5.73290097773946       -0.29518429744125
H           -4.13168106366924        5.73213052420891       -0.20998996361830
H           -2.90421346510942        3.58687819695518       -0.09913566564999
H           -0.38995589438689        2.10383114613997        0.34037182066663
H            0.41139160410112        3.06609252275093       -1.71734058851555
H            0.34676085620878        5.33234443211889       -2.67727122173115
H            1.87700262216826        7.08130465668070       -1.89987701021196
H            3.54977066696075        6.60303705725804       -0.14265559840084
H            5.10914624679843        5.44635223809266        1.79552474036739
H            6.15785439468015        3.90716140618173        3.42275546768985
H            5.35470168504793        1.60450697862804        3.65986224172507
H            3.51028454441827        0.75064583475963        2.27257130134330
H            3.32577928321145        0.00025929828119       -0.00056101936873
H            3.51057791657026       -0.75103233498328       -2.27363976679589
H            5.35507289257288       -1.60554652534481       -3.66044224914320
H            6.15800657037411       -3.90818205484106       -3.42243718330984
H            5.10901228756535       -5.44670357462923       -1.79475639768161
H            3.54938401089136       -6.60256214152371        0.14371669091039
H            1.87646209050390       -7.08003523897353        1.90100920108600
H            0.34631869013923       -5.33065351023253        2.67765345661850
H            0.41119444549680       -3.06477688832836        1.71687400845233
H           -0.38993624880473       -2.10337447140145       -0.34116596892843
H           -2.90315512221032       -3.58671631476814        0.10122485601504
H           -4.12995768053281       -5.73232017988299        0.21258651360901

          :  Hamiltonian                  GFN2-xTB          :
         :: gradient norm              0.000117791408 Eh/a0 ::
         :: HOMO-LUMO gap              1.881415447578 eV    ::
         :: SCC energy              -128.230052092885 Eh    ::
         :: -> dispersion             -0.109479147043 Eh    ::
         :: -> Gsolv                  -0.056838621266 Eh    ::
         :: repulsion energy           2.323306513722 Eh    ::

    * Orbital Energies and Occupations

         #    Occupation            Energy/Eh            Energy/eV
      -------------------------------------------------------------
         1        2.0000           -0.6953183             -18.9206
       ...           ...                  ...                  ...
       105        2.0000           -0.4196276             -11.4186
       106        2.0000           -0.4182328             -11.3807
       107        2.0000           -0.4182111             -11.3801
       108        2.0000           -0.4156338             -11.3100
       109        2.0000           -0.4149667             -11.2918
       110        2.0000           -0.4085289             -11.1166
       111        2.0000           -0.4085168             -11.1163
       112        2.0000           -0.3855020             -10.4900
       113        2.0000           -0.3845977             -10.4654
       114        2.0000           -0.3820621             -10.3964
       115        2.0000           -0.3820612             -10.3964
       116        2.0000           -0.3685342             -10.0283
       117        2.0000           -0.3679888             -10.0135 (HOMO)
       118                         -0.2988481              -8.1321 (LUMO)
       119                         -0.2969044              -8.0792
       120                         -0.2557651              -6.9597
       121                         -0.2539194              -6.9095
       122                         -0.2479189              -6.7462
       123                         -0.2439913              -6.6393
       124                         -0.2353872              -6.4052
       125                         -0.2353786              -6.4050
       126                         -0.2253171              -6.1312
       127                         -0.2253163              -6.1312
       128                         -0.2159416              -5.8761
       ...                                ...                  ...
       229                          0.7410348              20.1646
      -------------------------------------------------------------
                  HL-Gap            0.0691407 Eh            1.8814 eV

     #   Z          covCN         q      C6AA      α(0)
     1   6 C        2.920    -0.021    28.537     8.760
     2   6 C        2.918    -0.027    28.670     8.780
     3   6 C        2.923    -0.025    28.639     8.776
     4   6 C        2.983    -0.010    28.251     8.719
     5   6 C        2.980     0.217    23.429     7.940
     6   7 N        1.844    -0.318    29.106     7.995
     7   6 C        2.980     0.217    23.429     7.940
     8   6 C        2.983    -0.010    28.251     8.719
     9   6 C        2.923    -0.025    28.639     8.776
    10   6 C        2.918    -0.027    28.670     8.780
    11   6 C        2.920    -0.021    28.537     8.760
    12   6 C        2.918    -0.027    28.669     8.780
    13   6 C        2.923    -0.025    28.634     8.775
    14   7 N        1.844    -0.321    29.163     8.003
    15   6 C        2.984     0.219    23.398     7.935
    16   6 C        2.983    -0.005    28.147     8.703
    17   6 C        2.926    -0.046    29.146     8.854
    18   6 C        2.910     0.069    26.446     8.433
    19   7 N        2.802    -0.043    22.072     6.978
    20   6 C        3.071     0.046    26.905     8.505
    21   6 C        2.910    -0.051    29.275     8.872
    22   6 C        2.924    -0.034    28.846     8.808
    23   6 C        2.920    -0.041    29.022     8.834
    24   6 C        2.912    -0.034    28.840     8.806
    25   6 C        3.066    -0.016    28.354     8.731
    26   6 C        3.066    -0.016    28.353     8.731
    27   6 C        2.912    -0.034    28.836     8.806
    28   6 C        2.920    -0.041    29.018     8.834
    29   6 C        2.924    -0.034    28.840     8.807
    30   6 C        2.910    -0.052    29.289     8.874
    31   6 C        3.070     0.046    26.909     8.506
    32   6 C        2.925    -0.056    29.400     8.892
    33   6 C        2.910     0.069    26.446     8.433
    34   7 N        2.802    -0.043    22.072     6.978
    35   6 C        3.070     0.046    26.909     8.506
    36   6 C        2.910    -0.052    29.289     8.874
    37   6 C        2.924    -0.034    28.840     8.807
    38   6 C        2.920    -0.041    29.018     8.834
    39   6 C        2.912    -0.034    28.836     8.806
    40   6 C        3.066    -0.016    28.353     8.731
    41   6 C        3.066    -0.016    28.354     8.731
    42   6 C        2.912    -0.034    28.840     8.806
    43   6 C        2.920    -0.041    29.022     8.834
    44   6 C        2.924    -0.034    28.846     8.808
    45   6 C        2.910    -0.051    29.275     8.872
    46   6 C        3.071     0.046    26.905     8.505
    47   6 C        2.926    -0.046    29.147     8.854
    48   7 N        1.844    -0.321    29.163     8.003
    49   6 C        2.923    -0.025    28.634     8.775
    50   6 C        2.918    -0.027    28.669     8.780
    51   1 H        0.926     0.051     2.307     2.375
    52   1 H        0.926     0.049     2.335     2.390
    53   1 H        0.926     0.051     2.302     2.373
    54   1 H        0.926     0.051     2.302     2.373
    55   1 H        0.926     0.049     2.335     2.390
    56   1 H        0.926     0.051     2.307     2.375
    57   1 H        0.926     0.048     2.339     2.392
    58   1 H        0.926     0.050     2.316     2.380
    59   1 H        0.926     0.062     2.173     2.305
    60   1 H        0.926     0.027     2.623     2.533
    61   1 H        0.926     0.033     2.547     2.496
    62   1 H        0.926     0.033     2.550     2.497
    63   1 H        0.926     0.035     2.512     2.478
    64   1 H        0.926     0.035     2.515     2.480
    65   1 H        0.926     0.032     2.557     2.501
    66   1 H        0.926     0.033     2.539     2.492
    67   1 H        0.926     0.030     2.593     2.518
    68   1 H        0.926     0.063     2.168     2.302
    69   1 H        0.926     0.030     2.593     2.518
    70   1 H        0.926     0.033     2.539     2.492
    71   1 H        0.926     0.032     2.557     2.501
    72   1 H        0.926     0.035     2.515     2.480
    73   1 H        0.926     0.035     2.512     2.478
    74   1 H        0.926     0.033     2.550     2.497
    75   1 H        0.926     0.033     2.547     2.496
    76   1 H        0.926     0.027     2.623     2.533
    77   1 H        0.926     0.062     2.173     2.305
    78   1 H        0.926     0.050     2.316     2.380
    79   1 H        0.926     0.048     2.339     2.392

molecular dipole:
                 x           y           z       tot (Debye)
 q only:       -0.588      -0.000       0.000
   full:       -0.686      -0.000       0.000       1.742

 projected vibrational frequencies (cm⁻¹)
eigval :       -0.00    -0.00     0.00     0.00     0.00     0.00
eigval :       -9.54     3.84     9.10    20.52    20.85    21.96
eigval :       25.34    27.24    51.01    58.78    60.61    65.17
eigval :       88.04    94.42    97.36   100.55   122.96   139.10
eigval :      144.14   146.60   158.97   180.07   181.98   187.77
eigval :      220.07   232.79   240.98   245.63   246.48   266.39
eigval :      271.56   272.34   298.38   311.38   336.99   359.95
eigval :      364.79   365.66   388.18   396.68   396.75   398.80
eigval :      410.35   423.08   423.79   425.00   436.54   437.02
eigval :      460.28   496.27   510.66   517.82   519.65   535.16
eigval :      540.93   541.10   543.30   555.52   585.32   586.83
eigval :      587.45   587.79   605.69   612.01   620.75   622.45
eigval :      627.64   638.13   650.63   652.24   667.30   673.13
eigval :      673.50   673.96   686.98   706.80   707.81   713.84
eigval :      748.89   751.74   755.13   769.42   770.40   770.71
eigval :      774.12   781.24   781.68   795.65   842.16   847.35
eigval :      859.50   868.91   871.52   873.64   874.37   876.08
eigval :      880.01   889.87   897.03   897.41   899.09   903.45
eigval :      906.66   907.86   910.70   911.79   912.79   921.82
eigval :      923.88   925.13   925.91   929.15   930.50   932.53
eigval :      932.60   956.32   989.08   989.88  1001.18  1010.87
eigval :     1014.01  1032.53  1051.09  1069.97  1070.39  1073.22
eigval :     1073.51  1074.01  1075.23  1098.69  1107.87  1111.57
eigval :     1116.78  1117.72  1148.71  1150.78  1152.41  1162.27
eigval :     1166.35  1176.08  1176.67  1177.50  1179.08  1179.58
eigval :     1180.95  1187.13  1200.77  1205.04  1207.44  1217.52
eigval :     1233.71  1234.45  1235.13  1250.75  1267.37  1268.58
eigval :     1294.08  1295.85  1299.26  1299.47  1324.57  1325.17
eigval :     1327.73  1331.71  1341.28  1354.57  1355.34  1359.88
eigval :     1359.91  1368.19  1370.70  1398.42  1416.64  1424.61
eigval :     1426.06  1428.33  1430.03  1432.46  1453.41  1456.90
eigval :     1462.60  1473.20  1473.53  1475.60  1485.38  1485.39
eigval :     1508.28  1516.11  1566.60  1568.59  1573.93  1574.84
eigval :     1580.50  1582.37  1587.16  1587.63  1591.93  1592.85
eigval :     1597.18  1597.46  1611.47  1611.99  3073.34  3073.35
eigval :     3073.73  3073.76  3078.18  3078.27  3078.89  3078.95
eigval :     3079.64  3079.76  3083.09  3083.21  3085.92  3086.07
eigval :     3087.01  3087.09  3092.34  3092.56  3092.75  3092.79
eigval :     3095.26  3095.28  3103.83  3104.53  3105.26  3106.19
eigval :     3106.50  3120.00  3120.35

   temp. (K)  partition function   enthalpy   heat capacity  entropy
                                   cal/mol     cal/K/mol   cal/K/mol   J/K/mol
 298.15  VIB  0.212E+20            22657.382    141.804    143.205
         ROT  0.483E+08              888.752      2.981     38.141
         INT  0.102E+28            23546.134    144.785    181.346
         TR   0.157E+29             1481.254      4.968     45.230
         TOT                       25027.3882   149.7531   226.5752   947.9905

       T/K    H(0)-H(T)+PV         H(T)/Eh          T*S/Eh         G(T)/Eh
   ------------------------------------------------------------------------
    298.15    0.398837E-01    0.639535E+00    0.107653E+00    0.531881E+00
   ------------------------------------------------------------------------

         :::::::::::::::::::::::::::::::::::::::::::::::::::::
         ::                  THERMODYNAMIC                  ::
         :::::::::::::::::::::::::::::::::::::::::::::::::::::
         :: total free energy        -125.374864155329 Eh   ::
         ::.................................................::
         :: total energy             -125.906745578877 Eh   ::
         :: zero point energy           0.599650919958 Eh   ::
         :: G(RRHO) w/o ZPVE           -0.067769496411 Eh   ::
         :: G(RRHO) contrib.            0.531881423547 Eh   ::
         :::::::::::::::::::::::::::::::::::::::::::::::::::::

           -------------------------------------------------
          | TOTAL ENERGY             -125.906745578877 Eh   |
          | TOTAL ENTHALPY           -125.267210977047 Eh   |
          | TOTAL FREE ENERGY        -125.374864155329 Eh   |
          | GRADIENT NORM               0.000117758104 Eh/α |
          | HOMO-LUMO GAP               1.881415394774 eV   |
           -------------------------------------------------

 * finished run on 2025/07/16 at 22:50:58.934
