   * xtb version 6.7.1 (edcfbbe) compiled by 'albert@albert-system' on 2024-07-22

   ID    Z sym.   atoms
    1    6 C      1-5, 7-13, 15-18, 20-33, 35-47, 49, 50
    2    7 N      6, 14, 19, 34, 48
    3    1 H      51-79

          program call               : xtb data2507/toluene/DCzTrz/DCzTrz_toluene_S0_crest.xyz --gfn 2 --gbsa toluene --ohess vtight --parallel 40 --molden --ceasefiles --namespace data2507/toluene/DCzTrz/DCzTrz_toluene_S0_finalOpt
      * Solvation model:               GBSA
        Solvent                        toluene
        Solvent mass                       9.2140E+01 g/mol
          :  Hamiltonian                  GFN2-xTB          :
 * total energy  :  -125.9065469 Eh     change       -0.1375639E-08 Eh
 * total energy  :  -125.9065864 Eh     change       -0.3952721E-04 Eh
 * total energy  :  -125.9066031 Eh     change       -0.1667219E-04 Eh
 * total energy  :  -125.9066092 Eh     change       -0.6139118E-05 Eh
 * total energy  :  -125.9066161 Eh     change       -0.6810219E-05 Eh
 * total energy  :  -125.9066229 Eh     change       -0.6828282E-05 Eh
 * total energy  :  -125.9066294 Eh     change       -0.6512418E-05 Eh
 * total energy  :  -125.9066355 Eh     change       -0.6118569E-05 Eh
 * total energy  :  -125.9066418 Eh     change       -0.6299719E-05 Eh
 * total energy  :  -125.9066488 Eh     change       -0.7020094E-05 Eh
 * total energy  :  -125.9067181 Eh     change       -0.3420892E-06 Eh
 * total energy  :  -125.9067184 Eh     change       -0.3135712E-06 Eh
 * total energy  :  -125.9067188 Eh     change       -0.4491275E-06 Eh
 * total energy  :  -125.9067194 Eh     change       -0.5546092E-06 Eh
 * total energy  :  -125.9067200 Eh     change       -0.6133106E-06 Eh
 * total energy  :  -125.9067206 Eh     change       -0.6093351E-06 Eh
 * total energy  :  -125.9067210 Eh     change       -0.4033454E-06 Eh
 * total energy  :  -125.9067212 Eh     change       -0.1851364E-06 Eh
 * total energy  :  -125.9067212 Eh     change       -0.2326644E-08 Eh
   *** GEOMETRY OPTIMIZATION CONVERGED AFTER 44 ITERATIONS ***

 final structure:
================
79
 xtb: 6.7.1 (edcfbbe)
C           -6.01484724876510       -4.81658333333359        0.61061879448929
C           -6.71900376427192       -3.64654237031580        0.36867480726641
C           -6.04378345176888       -2.45153096079129        0.21132804916559
C           -4.65201266313741       -2.41879548537934        0.29362565833780
C           -3.93389678271882       -1.15524602589434        0.13328009730100
N           -4.64659293866343       -0.03956620033700        0.00266110082249
C           -3.95381724771899        1.08845487443322       -0.12937469511911
C           -4.69454758843504        2.33932436682357       -0.28635694690403
C           -6.08655964359864        2.34694664934520       -0.20163180082281
C           -6.78331891141588        3.53018106589786       -0.35394009860441
C           -6.10062540319834        4.71339011171140       -0.59333379379526
C           -4.71645610376309        4.71232843752279       -0.67876739197330
C           -4.01362157066144        3.53278236742495       -0.52587748392269
N           -2.62259592082180        1.14650085304706       -0.12761993786565
C           -1.99320423627627       -0.01632197814681       -0.00022579993495
C           -0.52729312993220       -0.00379960733855       -0.00131499060126
C            0.15456112956876        1.19373508871971        0.18297660816119
C            1.54502809520695        1.20716498392361        0.17794914720696
N            2.23471113795291        2.41006017328879        0.36056184417192
C            1.98064467830626        3.59315563592270       -0.31019606688129
C            1.07385347595999        3.85581654624257       -1.32708815309362
C            1.04217649377925        5.13544866896023       -1.84915735346079
C            1.89755884338092        6.13212783043593       -1.38405473520629
C            2.82087077739442        5.86889478779497       -0.39145400989949
C            2.86994271879727        4.59059789856503        0.15011851640655
C            3.69146817350423        3.97447536744851        1.15575766446922
C            4.71288987515757        4.44370094483783        1.97191221513663
C            5.28867627770725        3.57452784932386        2.87743932087802
C            4.84672930442096        2.25777185263699        2.98585097854511
C            3.83271857671512        1.76795741872632        2.18394135345556
C            3.26841345226362        2.62926256742620        1.25391130095796
C            2.24903299495417        0.01943472882664       -0.00224798365013
C            1.56486674866149       -1.17989354477787       -0.18224352634652
N            2.27468539081318       -2.37082001263118       -0.36615887554480
C            2.04190339833008       -3.55870945093147        0.30385506345427
C            1.14024407384000       -3.83827813893836        1.32080004863864
C            1.13094582713977       -5.11890608495030        1.84131859741709
C            2.00345272563161       -6.09999018045552        1.37486248661541
C            2.92183612189759       -5.81952975274812        0.38241063593652
C            2.94841334677321       -4.53996187326018       -0.15775813303857
C            3.75824163008668       -3.90874245336252       -1.16352781792488
C            4.78717987911835       -4.35923100346842       -1.98080688345477
C            5.34625934458322       -3.47955481483102       -2.88665670658807
C            4.88068669022425       -2.17088213944185       -2.99415147657595
C            3.85892217525015       -1.69963233925629       -2.19097942480022
C            3.31125473168030       -2.57123674079587       -1.26059201961148
C            0.17440087594985       -1.18974172033867       -0.18630341805843
N           -2.60189899370313       -1.18995205503407        0.12849794512169
C           -3.94940964045712       -3.59917099728267        0.53533327327502
C           -4.63076289032621       -4.79056956052134        0.69334047695985
H           -6.54501767319412       -5.74920609136083        0.73434512563640
H           -7.79669717463086       -3.66760884758417        0.30323679837419
H           -6.57475965832812       -1.53189606376498        0.02112484318723
H           -6.60067381762171        1.41742104402101       -0.01323681537484
H           -7.86108216420208        3.53185156939736       -0.28636397290912
H           -6.64760111249958        5.63683074570177       -0.71270504512329
H           -4.18489066231756        5.63367767079934       -0.86502223628327
H           -2.93692399304849        3.51429004744562       -0.59089603122938
H           -0.40537182078633        2.09978710291565        0.34878599309467
H            0.41900505636028        3.08606210274553       -1.70722096424646
H            0.34133648319317        5.36543452641951       -2.63841293803975
H            1.84047122789611        7.12043803769495       -1.81580481599771
H            3.49484840180909        6.63682446121344       -0.04288126826857
H            5.04246513957742        5.46923858790164        1.90016513801480
H            6.08575584777481        3.91849703344951        3.51992118332089
H            5.30318567715720        1.60491988456512        3.71541258854994
H            3.48580529340044        0.75140185761145        2.29222201275187
H            3.32804547809158        0.02842373222219       -0.00253205182331
H            0.47226955718301       -3.08046314714272        1.70205519734198
H            0.43440815801787       -5.36199749154567        2.63045300220819
H            1.96360298230064       -7.08968358682247        1.80537234796180
H            3.60905086546818       -6.57517982659326        0.03283676071687
H            5.13520294125640       -5.37870294212967       -1.90978285803926
H            6.14868861068575       -3.80892866949272       -3.53011302644294
H            5.32445636062860       -1.50980345029184       -3.72412381718363
H            3.49360593792449       -0.68945584838014       -2.29848167676323
H           -0.37036113529651       -2.10502761759756       -0.35185802038850
H           -2.87310157198800       -3.56120607857456        0.59815346301707
H           -4.08249042292712       -5.70166520954743        0.88161243742445

          :  Hamiltonian                  GFN2-xTB          :
         :: gradient norm              0.000037584546 Eh/a0 ::
         :: HOMO-LUMO gap              1.890053609183 eV    ::
         :: SCC energy              -128.230154280617 Eh    ::
         :: -> dispersion             -0.109532995896 Eh    ::
         :: -> Gsolv                  -0.056792835502 Eh    ::
         :: repulsion energy           2.323433099593 Eh    ::

    * Orbital Energies and Occupations

         #    Occupation            Energy/Eh            Energy/eV
      -------------------------------------------------------------
         1        2.0000           -0.6955027             -18.9256
       ...           ...                  ...                  ...
       105        2.0000           -0.4196966             -11.4205
       106        2.0000           -0.4182489             -11.3811
       107        2.0000           -0.4182311             -11.3806
       108        2.0000           -0.4156556             -11.3106
       109        2.0000           -0.4150203             -11.2933
       110        2.0000           -0.4085035             -11.1159
       111        2.0000           -0.4084916             -11.1156
       112        2.0000           -0.3857082             -10.4957
       113        2.0000           -0.3846670             -10.4673
       114        2.0000           -0.3820434             -10.3959
       115        2.0000           -0.3820413             -10.3959
       116        2.0000           -0.3685152             -10.0278
       117        2.0000           -0.3679950             -10.0137 (HOMO)
       118                         -0.2985368              -8.1236 (LUMO)
       119                         -0.2969311              -8.0799
       120                         -0.2556534              -6.9567
       121                         -0.2539792              -6.9111
       122                         -0.2478924              -6.7455
       123                         -0.2440839              -6.6419
       124                         -0.2354002              -6.4056
       125                         -0.2353914              -6.4053
       126                         -0.2252851              -6.1303
       127                         -0.2252839              -6.1303
       128                         -0.2163706              -5.8877
       ...                                ...                  ...
       229                          0.7410897              20.1661
      -------------------------------------------------------------
                  HL-Gap            0.0694582 Eh            1.8901 eV

     #   Z          covCN         q      C6AA      α(0)
     1   6 C        2.920    -0.021    28.538     8.760
     2   6 C        2.918    -0.027    28.669     8.780
     3   6 C        2.923    -0.025    28.639     8.776
     4   6 C        2.983    -0.010    28.251     8.719
     5   6 C        2.980     0.217    23.428     7.940
     6   7 N        1.844    -0.318    29.100     7.995
     7   6 C        2.980     0.217    23.428     7.940
     8   6 C        2.983    -0.010    28.251     8.719
     9   6 C        2.923    -0.025    28.639     8.776
    10   6 C        2.918    -0.027    28.669     8.780
    11   6 C        2.920    -0.021    28.538     8.760
    12   6 C        2.918    -0.027    28.669     8.780
    13   6 C        2.923    -0.025    28.637     8.776
    14   7 N        1.844    -0.321    29.163     8.003
    15   6 C        2.985     0.219    23.393     7.934
    16   6 C        2.983    -0.005    28.138     8.701
    17   6 C        2.926    -0.046    29.141     8.853
    18   6 C        2.910     0.070    26.444     8.432
    19   7 N        2.802    -0.043    22.075     6.978
    20   6 C        3.071     0.046    26.905     8.505
    21   6 C        2.910    -0.051    29.275     8.872
    22   6 C        2.924    -0.034    28.846     8.808
    23   6 C        2.920    -0.041    29.024     8.835
    24   6 C        2.912    -0.034    28.840     8.806
    25   6 C        3.066    -0.017    28.355     8.732
    26   6 C        3.067    -0.017    28.354     8.731
    27   6 C        2.912    -0.034    28.837     8.806
    28   6 C        2.920    -0.041    29.019     8.834
    29   6 C        2.924    -0.034    28.840     8.807
    30   6 C        2.910    -0.052    29.290     8.874
    31   6 C        3.070     0.046    26.908     8.506
    32   6 C        2.925    -0.056    29.395     8.891
    33   6 C        2.910     0.070    26.444     8.432
    34   7 N        2.802    -0.043    22.075     6.978
    35   6 C        3.071     0.046    26.905     8.505
    36   6 C        2.910    -0.051    29.275     8.872
    37   6 C        2.924    -0.034    28.846     8.808
    38   6 C        2.920    -0.041    29.024     8.835
    39   6 C        2.912    -0.034    28.840     8.806
    40   6 C        3.066    -0.017    28.355     8.732
    41   6 C        3.067    -0.017    28.354     8.731
    42   6 C        2.912    -0.034    28.837     8.806
    43   6 C        2.920    -0.041    29.019     8.834
    44   6 C        2.924    -0.034    28.840     8.807
    45   6 C        2.910    -0.052    29.290     8.874
    46   6 C        3.070     0.046    26.908     8.506
    47   6 C        2.926    -0.046    29.141     8.853
    48   7 N        1.844    -0.321    29.163     8.003
    49   6 C        2.923    -0.025    28.637     8.776
    50   6 C        2.918    -0.027    28.669     8.780
    51   1 H        0.926     0.051     2.307     2.375
    52   1 H        0.926     0.049     2.335     2.390
    53   1 H        0.926     0.051     2.303     2.373
    54   1 H        0.926     0.051     2.303     2.373
    55   1 H        0.926     0.049     2.335     2.390
    56   1 H        0.926     0.051     2.307     2.375
    57   1 H        0.926     0.049     2.338     2.391
    58   1 H        0.926     0.051     2.312     2.378
    59   1 H        0.926     0.062     2.180     2.309
    60   1 H        0.926     0.028     2.622     2.532
    61   1 H        0.926     0.033     2.545     2.495
    62   1 H        0.926     0.033     2.551     2.497
    63   1 H        0.926     0.035     2.513     2.479
    64   1 H        0.926     0.035     2.516     2.480
    65   1 H        0.926     0.032     2.557     2.501
    66   1 H        0.926     0.033     2.540     2.492
    67   1 H        0.926     0.029     2.594     2.519
    68   1 H        0.926     0.063     2.167     2.302
    69   1 H        0.926     0.028     2.622     2.532
    70   1 H        0.926     0.033     2.545     2.495
    71   1 H        0.926     0.033     2.551     2.497
    72   1 H        0.926     0.035     2.513     2.479
    73   1 H        0.926     0.035     2.516     2.480
    74   1 H        0.926     0.032     2.557     2.501
    75   1 H        0.926     0.033     2.540     2.492
    76   1 H        0.926     0.029     2.594     2.519
    77   1 H        0.926     0.062     2.180     2.309
    78   1 H        0.926     0.051     2.312     2.378
    79   1 H        0.926     0.049     2.338     2.391

molecular dipole:
                 x           y           z       tot (Debye)
 q only:       -0.603      -0.005       0.003
   full:       -0.699      -0.006       0.003       1.776

 projected vibrational frequencies (cm⁻¹)
eigval :       -0.00    -0.00     0.00     0.00     0.00     0.00
eigval :        7.63    18.19    20.88    21.47    24.11    24.98
eigval :       38.79    42.46    52.20    58.21    60.11    65.98
eigval :       91.91    92.71    97.38   102.74   124.38   139.02
eigval :      144.18   146.63   158.78   182.24   185.14   187.07
eigval :      219.00   234.48   240.93   245.82   248.18   266.24
eigval :      271.52   272.34   298.00   310.80   337.05   360.21
eigval :      363.13   364.03   386.50   396.21   396.59   400.48
eigval :      413.87   423.38   423.89   429.99   436.69   436.85
eigval :      461.31   496.36   510.32   517.92   519.92   536.20
eigval :      541.12   541.43   543.16   555.36   585.63   586.73
eigval :      587.37   587.86   607.15   612.05   620.85   622.48
eigval :      629.72   638.83   650.82   654.00   667.60   673.34
eigval :      674.15   675.30   689.04   706.90   707.86   713.83
eigval :      748.93   753.01   755.24   769.43   770.31   770.75
eigval :      776.11   781.07   781.69   799.35   843.06   847.94
eigval :      859.53   869.06   871.72   873.06   873.96   875.06
eigval :      879.81   890.58   897.00   897.95   899.28   903.32
eigval :      906.49   907.98   909.58   910.68   912.80   922.21
eigval :      923.81   924.82   926.15   928.42   929.54   931.57
eigval :      931.95   956.23   989.26   989.93  1001.21  1010.94
eigval :     1014.04  1032.50  1051.15  1069.80  1070.20  1073.15
eigval :     1073.60  1074.38  1075.60  1099.19  1108.32  1111.83
eigval :     1116.66  1118.30  1149.41  1150.83  1152.93  1162.85
eigval :     1167.09  1176.02  1176.63  1177.77  1179.39  1180.02
eigval :     1181.20  1187.87  1200.88  1205.84  1207.48  1218.48
eigval :     1233.72  1234.52  1235.06  1250.85  1267.45  1268.71
eigval :     1294.17  1296.17  1299.37  1299.73  1323.82  1325.31
eigval :     1327.72  1331.83  1341.64  1354.70  1355.50  1359.99
eigval :     1360.08  1368.49  1371.10  1398.59  1416.64  1424.75
eigval :     1426.11  1428.12  1429.75  1433.04  1453.58  1456.89
eigval :     1462.94  1473.56  1473.66  1475.84  1485.49  1485.56
eigval :     1508.10  1516.83  1566.52  1568.49  1573.98  1574.82
eigval :     1580.67  1582.57  1587.35  1587.80  1591.77  1592.76
eigval :     1597.31  1597.59  1611.59  1612.12  3073.37  3073.46
eigval :     3073.74  3073.87  3078.51  3078.79  3078.94  3079.01
eigval :     3079.64  3079.80  3083.34  3083.95  3085.94  3086.10
eigval :     3086.98  3087.10  3092.66  3092.76  3092.78  3092.90
eigval :     3095.25  3095.34  3104.24  3105.10  3106.04  3106.19
eigval :     3106.79  3117.15  3118.20

   temp. (K)  partition function   enthalpy   heat capacity  entropy
                                   cal/mol     cal/K/mol   cal/K/mol   J/K/mol
 298.15  VIB  0.784E+18            22552.253    142.320    140.479
         ROT  0.483E+08              888.752      2.981     38.143
         INT  0.379E+26            23441.005    145.301    178.622
         TR   0.157E+29             1481.254      4.968     45.230
         TOT                       24922.2589   150.2694   223.8519   936.5962

       T/K    H(0)-H(T)+PV         H(T)/Eh          T*S/Eh         G(T)/Eh
   ------------------------------------------------------------------------
    298.15    0.397161E-01    0.639614E+00    0.106359E+00    0.533255E+00
   ------------------------------------------------------------------------

         :::::::::::::::::::::::::::::::::::::::::::::::::::::
         ::                  THERMODYNAMIC                  ::
         :::::::::::::::::::::::::::::::::::::::::::::::::::::
         :: total free energy        -125.373466258487 Eh   ::
         ::.................................................::
         :: total energy             -125.906721183385 Eh   ::
         :: zero point energy           0.599898020923 Eh   ::
         :: G(RRHO) w/o ZPVE           -0.066643096024 Eh   ::
         :: G(RRHO) contrib.            0.533254924898 Eh   ::
         :::::::::::::::::::::::::::::::::::::::::::::::::::::

           -------------------------------------------------
          | TOTAL ENERGY             -125.906721183385 Eh   |
          | TOTAL ENTHALPY           -125.267107014844 Eh   |
          | TOTAL FREE ENERGY        -125.373466258487 Eh   |
          | GRADIENT NORM               0.000042632645 Eh/α |
          | HOMO-LUMO GAP               1.890053555544 eV   |
           -------------------------------------------------

 * finished run on 2025/07/16 at 22:54:16.191
