   * xtb version 6.7.1 (edcfbbe) compiled by 'albert@albert-system' on 2024-07-22

   ID    Z sym.   atoms
    1    6 C      1-5, 7-13, 15-18, 20-33, 35-47, 49, 50
    2    7 N      6, 14, 19, 34, 48
    3    1 H      51-79

          program call               : xtb data2507/toluene/DCzTrz/DCzTrz_toluene_T1_crest.xyz --gfn 2 --uhf 2 --gbsa toluene --ohess vtight --parallel 40 --molden --ceasefiles --namespace data2507/toluene/DCzTrz/DCzTrz_toluene_T1_finalOpt
      * Solvation model:               GBSA
        Solvent                        toluene
        Solvent mass                       9.2140E+01 g/mol
          :  Hamiltonian                  GFN2-xTB          :
 * total energy  :  -125.8278889 Eh     change        0.1977384E-08 Eh
 * total energy  :  -125.8279982 Eh     change       -0.1092496E-03 Eh
 * total energy  :  -125.8280320 Eh     change       -0.3381779E-04 Eh
 * total energy  :  -125.8280352 Eh     change       -0.3194904E-05 Eh
 * total energy  :  -125.8280386 Eh     change       -0.3396930E-05 Eh
 * total energy  :  -125.8280434 Eh     change       -0.4851068E-05 Eh
 * total energy  :  -125.8280491 Eh     change       -0.5725278E-05 Eh
 * total energy  :  -125.8280540 Eh     change       -0.4854416E-05 Eh
 * total energy  :  -125.8280577 Eh     change       -0.3710703E-05 Eh
 * total energy  :  -125.8280611 Eh     change       -0.3419340E-05 Eh
 * total energy  :  -125.8280799 Eh     change       -0.2022426E-06 Eh
 * total energy  :  -125.8280801 Eh     change       -0.2023511E-06 Eh
 * total energy  :  -125.8280803 Eh     change       -0.2094547E-06 Eh
 * total energy  :  -125.8280805 Eh     change       -0.2053778E-06 Eh
 * total energy  :  -125.8280807 Eh     change       -0.1939607E-06 Eh
 * total energy  :  -125.8280809 Eh     change       -0.1687170E-06 Eh
 * total energy  :  -125.8280811 Eh     change       -0.1769109E-06 Eh
 * total energy  :  -125.8280812 Eh     change       -0.1691907E-06 Eh
 * total energy  :  -125.8280812 Eh     change       -0.9742394E-09 Eh
   *** GEOMETRY OPTIMIZATION CONVERGED AFTER 44 ITERATIONS ***

 final structure:
================
79
 xtb: 6.7.1 (edcfbbe)
C           -5.98682044992416       -4.90965162547987       -0.54176736161026
C           -6.68861839976920       -3.71509151392365       -0.60201778732566
C           -6.01464358239841       -2.51064515038745       -0.55227083433424
C           -4.62350595714814       -2.48719789511030       -0.44229276416085
C           -3.91027053456802       -1.21470422882726       -0.38936803819914
N           -4.63941862092160       -0.07992897315364       -0.41639815381303
C           -3.94745989364116        1.07605698761726       -0.34759157500720
C           -4.70071156130579        2.32638987166951       -0.34368347731811
C           -6.09332562316475        2.31076490863935       -0.43413563864550
C           -6.80440958959090        3.49471104625554       -0.42560516498304
C           -6.13862579455465        4.70720653459529       -0.32666583091882
C           -4.75409893594795        4.73083675841235       -0.23558546153389
C           -4.03777562336529        3.55107940812727       -0.24413615344675
N           -2.64214715205007        1.12984297361864       -0.27851926269019
C           -1.95185832827741       -0.03941587311339       -0.26381093618908
C           -0.53684514071022       -0.01578722116828       -0.16490094002150
C            0.16424676008760        1.20779291713421       -0.12117755238418
C            1.53775444536391        1.22756574769616        0.02577664230911
N            2.20826482949507        2.45764863255482        0.11102079567806
C            3.32993586890190        2.82561144512060       -0.60253479348706
C            4.01431478248913        2.13514390724872       -1.59403432786063
C            5.10687679795261        2.74975012449773       -2.17697232678579
C            5.50877573447001        4.02719977737204       -1.79505085339463
C            4.81395432310410        4.73376368294798       -0.82838627557539
C            3.71554465617274        4.13551704180904       -0.23005452849279
C            2.76722039241855        4.57103455248075        0.76166818916323
C            2.62351091323775        5.73849153430890        1.49546569442325
C            1.57652180498355        5.82931154433526        2.39648991473564
C            0.69318407135306        4.76811262212912        2.57889661637572
C            0.82011308461304        3.59209982870439        1.86237148170160
C            1.85308301905722        3.50442569152168        0.93706011319069
C            2.26691387211653        0.03672923968892        0.11678965706863
C            1.57951848716984       -1.17995983972172        0.05066400027376
N            2.29305599109970       -2.38342036260379        0.16614430205357
C            1.98422864773082       -3.41002294588174        1.03407663762781
C            0.96853257416602       -3.49366471299709        1.97841211686921
C            0.89087467230279       -4.64411814883924        2.74179832216179
C            1.80507366736522       -5.68311885707662        2.58467958316018
C            2.83475570066502       -5.59461931197032        1.66353912627241
C            2.92987411187442       -4.45255060362145        0.88324902251933
C            3.84949229100894       -4.02254061490536       -0.13771192130437
C            4.95861449774264       -4.60519985646944       -0.73168956337641
C            5.61729249262233       -3.90976093680956       -1.73123346442906
C            5.17057865409936       -2.65861158192372       -2.14889170318960
C            4.06629108413436       -2.05991803526063       -1.57154955901492
C            3.41674323471648       -2.73918230199646       -0.54943373227161
C            0.20646904920569       -1.21302422798769       -0.09749095174885
N           -2.60416673406238       -1.22924900257131       -0.31425794937356
C           -3.92421200224653       -3.69400377410812       -0.38162675154358
C           -4.60357430190952       -4.89450390235044       -0.43130920543619
H           -6.51591811414533       -5.85033484541907       -0.58063581121993
H           -7.76555836019589       -3.72467380000674       -0.68793887466804
H           -6.54615469982094       -1.57230190209865       -0.59797160537197
H           -6.59657568240757        1.35890128945082       -0.51024027837597
H           -7.88230424300507        3.47437538952103       -0.49614033880942
H           -6.69685472619624        5.63169489944137       -0.31967298699131
H           -4.23400137667038        5.67451594097670       -0.15743031080934
H           -2.96060576214425        3.55409442984834       -0.17294524787488
H           -0.39301808323670        2.12440280061719       -0.22660014759661
H            3.69390590798569        1.15589307437631       -1.91114240088578
H            5.65620856738517        2.23009250109707       -2.94774818941435
H            6.36858983487893        4.47494901868227       -2.27049536307222
H            5.11521533091622        5.73166956383899       -0.54868731248134
H            3.31556289556330        6.55645447630560        1.36614622241504
H            1.44457078792093        6.73162335740497        2.97459870561801
H           -0.10693229151522        4.86244407472886        3.29805176467462
H            0.14087621950818        2.76880888921296        2.02269764794463
H            3.33068095822662        0.05611158744863        0.28856635433461
H            0.26657562684867       -2.68547113468592        2.11698792957768
H            0.10588737661167       -4.73585913647519        3.47774975709084
H            1.71151967427562       -6.56593622336241        3.19926835029437
H            3.55000053980046       -6.39546322092779        1.55453882068253
H            5.29568565381659       -5.58312822064184       -0.42389082865348
H            6.48464054794863       -4.34596258152421       -2.20376159613128
H            5.69363604466498       -2.14774442634503       -2.94348212660208
H            3.71081567488268       -1.10174580913378       -1.91489641541177
H           -0.31733828931700       -2.15143492180197       -0.18087070672309
H           -2.84850510009119       -3.66709350507624       -0.29504791362027
H           -4.05542459295234       -5.82424912378027       -0.38387207633674

          :  Hamiltonian                  GFN2-xTB          :
         :: gradient norm              0.000037626334 Eh/a0 ::
         :: HOMO-LUMO gap              0.221775634352 eV    ::
         :: SCC energy              -128.142059604400 Eh    ::
         :: -> dispersion             -0.110125272682 Eh    ::
         :: -> Gsolv                  -0.059164727633 Eh    ::
         :: repulsion energy           2.313978361529 Eh    ::

    * Orbital Energies and Occupations

         #    Occupation            Energy/Eh            Energy/eV
      -------------------------------------------------------------
         1        2.0000           -0.6882782             -18.7290
       ...           ...                  ...                  ...
       106        2.0000           -0.4151981             -11.2981
       107        2.0000           -0.4102860             -11.1645
       108        2.0000           -0.4102154             -11.1625
       109        2.0000           -0.4074961             -11.0885
       110        2.0000           -0.4045844             -11.0093
       111        2.0000           -0.4020985             -10.9417
       112        2.0000           -0.3893299             -10.5942
       113        2.0000           -0.3893084             -10.5936
       114        1.9859           -0.3747516             -10.1975
       115        1.8022           -0.3720499             -10.1240
       116        1.7129           -0.3715839             -10.1113
       117        1.4990           -0.3707158             -10.0877
       118        0.9865           -0.2876652              -7.8278 (HOMO)
       119        0.0135           -0.2795150              -7.6060 (LUMO)
       120                         -0.2555892              -6.9549
       121                         -0.2548544              -6.9349
       122                         -0.2454029              -6.6778
       123                         -0.2384417              -6.4883
       124                         -0.2330606              -6.3419
       125                         -0.2329981              -6.3402
       126                         -0.2272211              -6.1830
       127                         -0.2272050              -6.1826
       128                         -0.2119510              -5.7675
       129                         -0.1963401              -5.3427
       ...                                ...                  ...
       229                          0.7350505              20.0017
      -------------------------------------------------------------
                  HL-Gap            0.0081501 Eh            0.2218 eV

     #   Z          covCN         q      C6AA      α(0)
     1   6 C        2.920    -0.029    28.718     8.788
     2   6 C        2.918    -0.030    28.743     8.792
     3   6 C        2.924    -0.030    28.741     8.792
     4   6 C        2.983    -0.009    28.240     8.717
     5   6 C        2.933     0.209    23.586     7.965
     6   7 N        1.843    -0.338    29.629     8.067
     7   6 C        2.932     0.209    23.587     7.965
     8   6 C        2.983    -0.009    28.240     8.717
     9   6 C        2.924    -0.030    28.740     8.792
    10   6 C        2.918    -0.030    28.743     8.792
    11   6 C        2.920    -0.029    28.718     8.788
    12   6 C        2.918    -0.030    28.746     8.792
    13   6 C        2.923    -0.030    28.753     8.793
    14   7 N        1.845    -0.299    28.605     7.926
    15   6 C        2.939     0.165    24.435     8.107
    16   6 C        2.976    -0.016    28.411     8.743
    17   6 C        2.924    -0.053    29.323     8.880
    18   6 C        2.907     0.060    26.646     8.464
    19   7 N        2.803    -0.020    21.625     6.907
    20   6 C        3.074     0.048    26.853     8.496
    21   6 C        2.910    -0.043    29.076     8.842
    22   6 C        2.922    -0.031    28.780     8.798
    23   6 C        2.920    -0.034    28.856     8.809
    24   6 C        2.912    -0.030    28.738     8.790
    25   6 C        3.065    -0.012    28.259     8.717
    26   6 C        3.066    -0.012    28.255     8.716
    27   6 C        2.912    -0.030    28.743     8.791
    28   6 C        2.920    -0.034    28.850     8.808
    29   6 C        2.923    -0.031    28.776     8.797
    30   6 C        2.909    -0.043    29.066     8.840
    31   6 C        3.074     0.048    26.849     8.496
    32   6 C        2.921    -0.079    29.969     8.977
    33   6 C        2.908     0.060    26.648     8.465
    34   7 N        2.803    -0.020    21.630     6.907
    35   6 C        3.075     0.048    26.845     8.495
    36   6 C        2.909    -0.043    29.065     8.840
    37   6 C        2.923    -0.031    28.776     8.797
    38   6 C        2.920    -0.034    28.852     8.808
    39   6 C        2.912    -0.030    28.743     8.791
    40   6 C        3.065    -0.012    28.257     8.717
    41   6 C        3.065    -0.013    28.260     8.717
    42   6 C        2.912    -0.030    28.738     8.790
    43   6 C        2.920    -0.034    28.858     8.809
    44   6 C        2.922    -0.031    28.780     8.798
    45   6 C        2.910    -0.043    29.075     8.842
    46   6 C        3.074     0.048    26.851     8.496
    47   6 C        2.924    -0.053    29.317     8.879
    48   7 N        1.845    -0.299    28.606     7.927
    49   6 C        2.923    -0.030    28.752     8.793
    50   6 C        2.918    -0.030    28.746     8.792
    51   1 H        0.926     0.042     2.418     2.432
    52   1 H        0.926     0.040     2.446     2.446
    53   1 H        0.926     0.042     2.421     2.433
    54   1 H        0.926     0.042     2.422     2.434
    55   1 H        0.926     0.040     2.447     2.446
    56   1 H        0.926     0.042     2.418     2.432
    57   1 H        0.926     0.041     2.434     2.440
    58   1 H        0.926     0.042     2.426     2.436
    59   1 H        0.926     0.048     2.351     2.398
    60   1 H        0.926     0.038     2.475     2.460
    61   1 H        0.926     0.042     2.429     2.437
    62   1 H        0.926     0.041     2.442     2.444
    63   1 H        0.926     0.043     2.414     2.429
    64   1 H        0.926     0.044     2.399     2.422
    65   1 H        0.926     0.041     2.437     2.441
    66   1 H        0.926     0.039     2.462     2.454
    67   1 H        0.926     0.036     2.499     2.472
    68   1 H        0.926     0.046     2.371     2.408
    69   1 H        0.926     0.036     2.506     2.476
    70   1 H        0.926     0.039     2.465     2.455
    71   1 H        0.926     0.041     2.438     2.441
    72   1 H        0.926     0.044     2.399     2.422
    73   1 H        0.926     0.043     2.414     2.430
    74   1 H        0.926     0.040     2.443     2.444
    75   1 H        0.926     0.041     2.429     2.437
    76   1 H        0.926     0.038     2.480     2.463
    77   1 H        0.926     0.047     2.356     2.400
    78   1 H        0.926     0.042     2.427     2.436
    79   1 H        0.926     0.041     2.435     2.440

molecular dipole:
                 x           y           z       tot (Debye)
 q only:        2.549       0.058       0.238
   full:        2.330       0.053       0.228       5.953

 projected vibrational frequencies (cm⁻¹)
eigval :       -0.00     0.00     0.00     0.00     0.00     0.00
eigval :       10.87    16.92    18.06    19.44    24.73    28.93
eigval :       44.64    51.31    53.61    56.19    58.06    66.58
eigval :       95.12    98.67   102.12   105.00   118.44   135.39
eigval :      137.59   144.72   156.16   179.82   181.14   215.60
eigval :      217.21   221.60   224.53   249.42   256.12   259.58
eigval :      270.31   270.71   292.19   312.94   327.94   364.12
eigval :      366.12   368.41   369.92   382.48   389.82   393.41
eigval :      412.18   414.40   419.52   420.90   433.43   434.81
eigval :      438.86   491.27   505.11   515.02   515.20   535.83
eigval :      536.50   537.64   544.82   554.13   556.22   567.44
eigval :      577.20   585.17   587.82   588.57   589.12   607.78
eigval :      612.99   619.33   637.47   645.84   647.19   659.42
eigval :      665.91   673.77   674.28   689.69   692.13   709.37
eigval :      710.44   738.00   754.43   757.34   763.91   764.12
eigval :      764.50   768.37   769.95   777.46   777.83   798.02
eigval :      809.55   828.21   839.47   857.00   860.51   870.05
eigval :      872.22   872.64   875.09   879.12   893.84   898.05
eigval :      899.10   900.26   901.75   904.27   906.22   906.55
eigval :      916.12   919.63   922.62   925.01   925.76   926.59
eigval :      927.65   928.18   938.79   963.09   983.82   989.94
eigval :      994.82  1009.85  1011.86  1028.97  1063.22  1067.27
eigval :     1069.44  1070.86  1073.02  1074.35  1080.16  1108.26
eigval :     1109.73  1111.93  1112.65  1136.04  1137.73  1142.62
eigval :     1156.82  1160.38  1173.10  1175.07  1176.82  1176.90
eigval :     1177.23  1177.75  1181.92  1186.79  1192.77  1213.90
eigval :     1223.38  1228.33  1229.59  1232.46  1256.16  1267.62
eigval :     1271.48  1275.46  1281.73  1283.22  1288.36  1290.72
eigval :     1321.57  1328.76  1329.87  1330.30  1338.02  1339.22
eigval :     1355.06  1358.51  1359.72  1387.95  1388.98  1396.46
eigval :     1409.09  1409.72  1410.25  1428.92  1430.15  1432.00
eigval :     1438.05  1459.30  1460.34  1463.50  1470.46  1477.06
eigval :     1479.26  1479.95  1486.76  1537.89  1563.49  1564.21
eigval :     1570.64  1571.60  1576.91  1577.80  1578.79  1581.14
eigval :     1583.62  1592.15  1597.49  1603.48  3072.60  3072.90
eigval :     3075.40  3076.48  3079.12  3079.96  3080.76  3080.98
eigval :     3084.44  3085.94  3086.86  3087.41  3087.46  3087.59
eigval :     3091.01  3093.42  3093.69  3094.96  3096.11  3096.29
eigval :     3096.64  3097.95  3098.19  3098.98  3104.44  3105.99
eigval :     3111.19  3111.89  3113.48

   temp. (K)  partition function   enthalpy   heat capacity  entropy
                                   cal/mol     cal/K/mol   cal/K/mol   J/K/mol
 298.15  VIB  0.612E+18            22858.530    145.264    141.860
         ROT  0.967E+08              888.752      2.981     39.520
         INT  0.592E+26            23747.282    148.245    181.380
         TR   0.157E+29             1481.254      4.968     45.230
         TOT                       25228.5361   153.2127   226.6094   948.1335

       T/K    H(0)-H(T)+PV         H(T)/Eh          T*S/Eh         G(T)/Eh
   ------------------------------------------------------------------------
    298.15    0.402042E-01    0.634644E+00    0.107669E+00    0.526975E+00
   ------------------------------------------------------------------------

         :::::::::::::::::::::::::::::::::::::::::::::::::::::
         ::                  THERMODYNAMIC                  ::
         :::::::::::::::::::::::::::::::::::::::::::::::::::::
         :: total free energy        -125.301106296715 Eh   ::
         ::.................................................::
         :: total energy             -125.828081242013 Eh   ::
         :: zero point energy           0.594440129723 Eh   ::
         :: G(RRHO) w/o ZPVE           -0.067465184425 Eh   ::
         :: G(RRHO) contrib.            0.526974945298 Eh   ::
         :::::::::::::::::::::::::::::::::::::::::::::::::::::

           -------------------------------------------------
          | TOTAL ENERGY             -125.828081242013 Eh   |
          | TOTAL ENTHALPY           -125.193436880946 Eh   |
          | TOTAL FREE ENERGY        -125.301106296715 Eh   |
          | GRADIENT NORM               0.000037689582 Eh/α |
          | HOMO-LUMO GAP               0.221776288007 eV   |
           -------------------------------------------------

 * finished run on 2025/07/16 at 23:00:22.198
