   * xtb version 6.7.1 (edcfbbe) compiled by 'albert@albert-system' on 2024-07-22

   ID    Z sym.   atoms
    1    7 N      1, 4, 10, 29, 47, 50
    2    6 C      2, 3, 5-9, 11-16, 18-28, 30-35, 37-46, 48, 49
    3   16 S      17, 36
    4    1 H      51-72

          program call               : xtb data2507/toluene/PTZ-DCPP/PTZ-DCPP_toluene_T1_crest.xyz --gfn 2 --uhf 2 --gbsa toluene --ohess vtight --parallel 40 --molden --ceasefiles --namespace data2507/toluene/PTZ-DCPP/PTZ-DCPP_toluene_T1_finalOpt
      * Solvation model:               GBSA
        Solvent                        toluene
        Solvent mass                       9.2140E+01 g/mol
          :  Hamiltonian                  GFN2-xTB          :
 * total energy  :  -125.1749086 Eh     change       -0.2977079E-07 Eh
 * total energy  :  -125.1751549 Eh     change       -0.2462222E-03 Eh
 * total energy  :  -125.1751112 Eh     change        0.4369207E-04 Eh
 * total energy  :  -125.1753069 Eh     change       -0.1956897E-03 Eh
 * total energy  :  -125.1752805 Eh     change        0.2633533E-04 Eh
 * total energy  :  -125.1753402 Eh     change       -0.5965207E-04 Eh
 * total energy  :  -125.1753466 Eh     change       -0.6384850E-05 Eh
 * total energy  :  -125.1753519 Eh     change       -0.5345847E-05 Eh
 * total energy  :  -125.1753546 Eh     change       -0.2741131E-05 Eh
 * total energy  :  -125.1753586 Eh     change       -0.3948618E-05 Eh
 * total energy  :  -125.1754060 Eh     change       -0.3283861E-07 Eh
 * total energy  :  -125.1754063 Eh     change       -0.2749968E-06 Eh
 * total energy  :  -125.1754065 Eh     change       -0.1827371E-06 Eh
 * total energy  :  -125.1754067 Eh     change       -0.1782889E-06 Eh
 * total energy  :  -125.1754069 Eh     change       -0.1944507E-06 Eh
 * total energy  :  -125.1754071 Eh     change       -0.1977862E-06 Eh
 * total energy  :  -125.1754072 Eh     change       -0.1546949E-06 Eh
 * total energy  :  -125.1754074 Eh     change       -0.1563637E-06 Eh
 * total energy  :  -125.1754075 Eh     change       -0.9073466E-07 Eh
   *** GEOMETRY OPTIMIZATION CONVERGED AFTER 56 ITERATIONS ***

 final structure:
================
72
 xtb: 6.7.1 (edcfbbe)
N            0.80670420630160       -8.44044682973237        0.08210701102030
C            0.98785128833203       -7.30496255583157        0.06731028712753
C            1.24023454185934       -5.91896701568390        0.04980256305543
N            0.22584449342238       -5.06755119040543        0.01450508582860
C            0.50996757623721       -3.73728453749689        0.00175984375690
C           -0.55391962125083       -2.79939092641436       -0.01842013618422
C           -1.88847819675986       -3.25583765876003       -0.03310794707865
C           -2.93759019722970       -2.38038760527486       -0.04232401621906
C           -2.67641434642522       -1.00029085039166       -0.02241514228046
N           -3.76633832242580       -0.07370169229949       -0.01933611038202
C           -4.42643951736168        0.12825482016348        1.18050734984512
C           -3.97450310889102       -0.52169844328561        2.33830709499745
C           -4.61295589768470       -0.36483812159048        3.55028774713124
C           -5.72801360306373        0.45522007534274        3.65886878675482
C           -6.17935096008711        1.12399329783768        2.53985504994588
C           -5.53985379525298        0.97136696248725        1.31459515970757
S           -6.20204408733212        1.90737943772306       -0.01909786124200
C           -5.12508310635790        1.47974700205579       -1.34324592005389
C           -5.38323989545138        2.10300238028386       -2.55941131708122
C           -4.62274906191550        1.81707462675839       -3.67425357446342
C           -3.60087208298931        0.88292601728944       -3.57099594737486
C           -3.33771082454246        0.26254298737849       -2.36803754406963
C           -4.07926067760000        0.55320032929809       -1.21332779505186
C           -1.38164182711550       -0.52862498298906       -0.01015718097990
C           -0.28743420278202       -1.40121938272615       -0.02170233472251
C            1.07948903862125       -0.94419231093657       -0.04802935551152
C            1.41533526534036        0.41008411209024       -0.12417148455064
C            2.73207441608131        0.85015410042405       -0.18922450349639
N            3.02142813834161        2.19942511743565       -0.28976769538886
C            2.01981278756315        3.19034240053611       -0.33692391197249
C            1.01465741822809        3.16424476929106       -1.30154766526991
C            0.02997289495828        4.13448716389632       -1.30989492365042
C            0.04878114826994        5.15861673196077       -0.37389172108854
C            1.07370206688031        5.23041579455889        0.55077756575814
C            2.06026242579265        4.25474275681268        0.56388247662093
S            3.39688205973283        4.36000430827161        1.72441484534975
C            4.65637764439886        3.71732795888897        0.65535443314826
C            5.94348997623907        4.22997452120515        0.71924884445700
C            6.91499628745846        3.75413806721388       -0.14124729038103
C            6.59125409224790        2.79300010843578       -1.08758947491132
C            5.30882056374882        2.28083213471702       -1.15275646650953
C            4.33458862679453        2.70942185992091       -0.25447879625377
C            3.76268338891875       -0.10650465506481       -0.07174102592892
C            3.45785443960029       -1.43664767043648        0.00578956796657
C            2.13023973829814       -1.89284910597621       -0.01445631696754
C            1.85453132357598       -3.29556270755096        0.01706456942112
N            2.87097327896807       -4.16297790870033        0.04923535440742
C            2.58284899103032       -5.48138506715839        0.06892388980437
C            3.60970024816384       -6.42702351951385        0.10523003548430
N            4.43711751540086       -7.23166424949761        0.13602254230044
H           -2.05055603793624       -4.32258802822112       -0.04050749721327
H           -3.95758294439437       -2.73255365309861       -0.05989969195021
H           -3.10634113055473       -1.15753636091646        2.27832235208314
H           -4.23497256849034       -0.88612626381325        4.41595863343045
H           -6.23220460894929        0.57665543412488        4.60403376764083
H           -7.03564683803692        1.77868948520093        2.59465422505589
H           -6.19550893173485        2.81167556381937       -2.61073567357203
H           -4.82916008334315        2.30659380288529       -4.61239254311485
H           -3.00519957608564        0.63109870815209       -4.43462491105978
H           -2.54684167035583       -0.46744211794296       -2.31370391700969
H           -1.23221093669604        0.53915263905119        0.00976207653703
H            0.62784586535834        1.14257021351275       -0.12067191795289
H            1.01645162659466        2.37678178736637       -2.04016735072531
H           -0.75083977815307        4.09331832792560       -2.05385336441396
H           -0.72298772774985        5.91235210934344       -0.37716438668726
H            1.12130007648133        6.03522160933822        1.26770354078570
H            6.16953270839741        4.99781590661081        1.44282136948038
H            7.91808385121624        4.14732025178913       -0.08676735523889
H            7.33913202329954        2.44323917011412       -1.78242861831876
H            5.05011860471862        1.54645574638655       -1.90035910872296
H            4.79345741131041        0.20344448210706       -0.02134191069211
H            4.24093552720801       -2.17536881649255        0.08455961903598

          :  Hamiltonian                  GFN2-xTB          :
         :: gradient norm              0.000075551607 Eh/a0 ::
         :: HOMO-LUMO gap              0.165433658277 eV    ::
         :: SCC energy              -127.410255634009 Eh    ::
         :: -> dispersion             -0.113485439166 Eh    ::
         :: -> Gsolv                  -0.078502541420 Eh    ::
         :: repulsion energy           2.234848178308 Eh    ::

    * Orbital Energies and Occupations

         #    Occupation            Energy/Eh            Energy/eV
      -------------------------------------------------------------
         1        2.0000           -0.7504975             -20.4221
       ...           ...                  ...                  ...
       105        2.0000           -0.4280461             -11.6477
       106        2.0000           -0.4272332             -11.6256
       107        2.0000           -0.4252185             -11.5708
       108        2.0000           -0.4228546             -11.5065
       109        2.0000           -0.4201058             -11.4317
       110        2.0000           -0.4089989             -11.1294
       111        2.0000           -0.4052653             -11.0278
       112        2.0000           -0.3995915             -10.8734
       113        2.0000           -0.3888309             -10.5806
       114        1.8591           -0.3660145              -9.9598
       115        1.7364           -0.3652732              -9.9396
       116        1.4046           -0.3639303              -9.9030
       117        0.9608           -0.3026092              -8.2344 (HOMO)
       118        0.0392           -0.2965294              -8.0690 (LUMO)
       119                         -0.2676402              -7.2829
       120                         -0.2623578              -7.1391
       121                         -0.2566320              -6.9833
       122                         -0.2544503              -6.9239
       123                         -0.2518745              -6.8539
       124                         -0.2493472              -6.7851
       125                         -0.2474782              -6.7342
       126                         -0.2459177              -6.6918
       127                         -0.2443938              -6.6503
       128                         -0.2235079              -6.0820
       ...                                ...                  ...
       232                          1.1631248              31.6502
      -------------------------------------------------------------
                  HL-Gap            0.0060798 Eh            0.1654 eV

     #   Z          covCN         q      C6AA      α(0)
     1   7 N        0.911    -0.273    27.053     7.523
     2   6 C        1.913     0.110    28.384     8.604
     3   6 C        2.943     0.101    25.761     8.324
     4   7 N        1.849    -0.288    28.309     7.886
     5   6 C        2.953     0.069    26.458     8.437
     6   6 C        2.985    -0.014    28.361     8.736
     7   6 C        2.922    -0.029    28.726     8.789
     8   6 C        2.915    -0.042    29.055     8.839
     9   6 C        2.931     0.047    26.952     8.514
    10   7 N        2.750    -0.025    21.725     6.923
    11   6 C        2.943     0.062    26.616     8.461
    12   6 C        2.926    -0.048    29.195     8.861
    13   6 C        2.918    -0.024    28.594     8.769
    14   6 C        2.917    -0.027    28.687     8.783
    15   6 C        2.993    -0.035    28.861     8.813
    16   6 C        2.969     0.030    27.339     8.577
    17  16 S        2.152    -0.028   142.214    20.071
    18   6 C        2.969     0.030    27.334     8.576
    19   6 C        2.993    -0.035    28.857     8.812
    20   6 C        2.917    -0.028    28.694     8.784
    21   6 C        2.918    -0.024    28.601     8.770
    22   6 C        2.926    -0.049    29.211     8.863
    23   6 C        2.941     0.061    26.624     8.463
    24   6 C        2.921    -0.044    29.100     8.846
    25   6 C        2.977    -0.005    28.145     8.702
    26   6 C        2.976     0.003    27.951     8.672
    27   6 C        2.926    -0.065    29.614     8.924
    28   6 C        2.910     0.069    26.455     8.434
    29   7 N        2.752    -0.051    22.221     7.001
    30   6 C        2.974     0.054    26.773     8.487
    31   6 C        2.922    -0.043    29.064     8.841
    32   6 C        2.918    -0.030    28.749     8.793
    33   6 C        2.920    -0.029    28.722     8.789
    34   6 C        2.957    -0.034    28.856     8.811
    35   6 C        2.971     0.035    27.205     8.556
    36  16 S        2.113    -0.113   145.790    20.322
    37   6 C        2.972     0.035    27.222     8.558
    38   6 C        2.959    -0.035    28.862     8.812
    39   6 C        2.920    -0.029    28.716     8.788
    40   6 C        2.919    -0.029    28.721     8.788
    41   6 C        2.922    -0.042    29.039     8.837
    42   6 C        2.973     0.056    26.751     8.484
    43   6 C        2.918    -0.054    29.338     8.882
    44   6 C        2.920    -0.026    28.642     8.776
    45   6 C        2.988    -0.019    28.464     8.752
    46   6 C        2.948     0.091    25.977     8.359
    47   7 N        1.848    -0.293    28.457     7.906
    48   6 C        2.942     0.082    26.182     8.392
    49   6 C        1.911     0.101    28.603     8.637
    50   7 N        0.911    -0.304    27.821     7.629
    51   1 H        0.926     0.050     2.319     2.381
    52   1 H        0.926     0.047     2.361     2.403
    53   1 H        0.926     0.052     2.300     2.371
    54   1 H        0.926     0.054     2.271     2.357
    55   1 H        0.926     0.057     2.232     2.336
    56   1 H        0.926     0.060     2.195     2.317
    57   1 H        0.926     0.061     2.191     2.315
    58   1 H        0.926     0.058     2.225     2.333
    59   1 H        0.926     0.055     2.258     2.350
    60   1 H        0.926     0.052     2.290     2.367
    61   1 H        0.926     0.050     2.315     2.379
    62   1 H        0.926     0.049     2.327     2.385
    63   1 H        0.926     0.056     2.252     2.347
    64   1 H        0.926     0.055     2.259     2.350
    65   1 H        0.926     0.056     2.246     2.344
    66   1 H        0.926     0.057     2.234     2.338
    67   1 H        0.926     0.056     2.248     2.345
    68   1 H        0.926     0.054     2.270     2.356
    69   1 H        0.926     0.053     2.282     2.362
    70   1 H        0.926     0.054     2.267     2.354
    71   1 H        0.926     0.045     2.378     2.412
    72   1 H        0.926     0.047     2.363     2.404

molecular dipole:
                 x           y           z       tot (Debye)
 q only:       -4.361       9.569      -0.736
   full:       -4.277       9.719      -0.853      27.076

 projected vibrational frequencies (cm⁻¹)
eigval :       -0.00    -0.00     0.00     0.00     0.00     0.00
eigval :        7.86    10.33    17.21    20.13    21.66    27.98
eigval :       36.85    44.99    57.52    60.48    76.63    81.47
eigval :       88.67    97.15    99.63   103.09   119.30   135.94
eigval :      144.50   154.74   156.19   162.24   165.98   201.76
eigval :      211.05   223.59   229.87   242.01   251.77   259.66
eigval :      277.24   293.01   303.69   313.21   330.44   336.19
eigval :      347.67   366.99   370.53   372.22   379.44   385.40
eigval :      392.48   403.27   416.34   418.24   422.87   423.27
eigval :      426.68   432.61   441.50   449.11   464.75   466.05
eigval :      477.89   481.47   485.72   493.78   501.22   516.84
eigval :      520.78   535.97   540.49   543.90   577.40   579.91
eigval :      588.26   605.76   608.88   618.79   623.81   641.87
eigval :      650.57   654.23   656.21   657.29   657.51   670.32
eigval :      671.56   685.05   687.75   691.93   702.30   705.44
eigval :      720.72   733.00   759.73   770.37   774.94   777.67
eigval :      779.32   811.38   812.57   818.83   839.37   862.02
eigval :      867.39   869.81   883.62   889.17   891.10   900.53
eigval :      905.47   907.87   912.26   912.79   913.90   916.95
eigval :      921.07   921.44   921.61   926.89   932.85   937.54
eigval :      966.14   990.66  1032.90  1040.88  1043.93  1049.68
eigval :     1054.90  1065.28  1085.60  1086.05  1098.25  1099.33
eigval :     1135.38  1145.46  1148.72  1148.93  1151.61  1154.23
eigval :     1161.09  1170.85  1172.70  1173.10  1175.75  1188.07
eigval :     1190.99  1219.38  1226.47  1229.55  1235.59  1239.23
eigval :     1240.69  1247.34  1252.91  1271.53  1276.33  1279.80
eigval :     1294.47  1301.48  1305.92  1311.32  1315.91  1325.00
eigval :     1326.54  1330.87  1338.62  1365.05  1391.61  1396.87
eigval :     1397.93  1407.22  1410.00  1414.82  1416.42  1430.01
eigval :     1430.70  1433.92  1445.37  1454.17  1459.11  1465.79
eigval :     1494.21  1519.42  1540.08  1553.49  1555.35  1558.62
eigval :     1562.52  1563.88  1566.82  1569.95  1576.49  1580.55
eigval :     2271.75  2315.89  3087.20  3088.52  3090.70  3092.89
eigval :     3093.44  3094.05  3094.58  3095.05  3096.81  3097.47
eigval :     3098.73  3099.21  3102.78  3103.87  3106.97  3107.15
eigval :     3110.80  3111.16  3112.32  3119.10  3120.51  3137.74

   temp. (K)  partition function   enthalpy   heat capacity  entropy
                                   cal/mol     cal/K/mol   cal/K/mol   J/K/mol
 298.15  VIB  0.256E+19            23318.290    145.231    145.150
         ROT  0.104E+09              888.752      2.981     39.671
         INT  0.267E+27            24207.043    148.212    184.821
         TR   0.170E+29             1481.254      4.968     45.388
         TOT                       25688.2967   153.1805   230.2098   963.1980

       T/K    H(0)-H(T)+PV         H(T)/Eh          T*S/Eh         G(T)/Eh
   ------------------------------------------------------------------------
    298.15    0.409369E-01    0.548232E+00    0.109380E+00    0.438852E+00
   ------------------------------------------------------------------------

         :::::::::::::::::::::::::::::::::::::::::::::::::::::
         ::                  THERMODYNAMIC                  ::
         :::::::::::::::::::::::::::::::::::::::::::::::::::::
         :: total free energy        -124.736555181681 Eh   ::
         ::.................................................::
         :: total energy             -125.175407452272 Eh   ::
         :: zero point energy           0.507295489094 Eh   ::
         :: G(RRHO) w/o ZPVE           -0.068443218503 Eh   ::
         :: G(RRHO) contrib.            0.438852270591 Eh   ::
         :::::::::::::::::::::::::::::::::::::::::::::::::::::

           -------------------------------------------------
          | TOTAL ENERGY             -125.175407452272 Eh   |
          | TOTAL ENTHALPY           -124.627175056632 Eh   |
          | TOTAL FREE ENERGY        -124.736555181681 Eh   |
          | GRADIENT NORM               0.000076894465 Eh/α |
          | HOMO-LUMO GAP               0.165439561261 eV   |
           -------------------------------------------------

 * finished run on 2025/07/17 at 05:33:03.590
