   * xtb version 6.7.1 (edcfbbe) compiled by 'albert@albert-system' on 2024-07-22

   ID    Z sym.   atoms
    1    7 N      1, 4, 10, 29, 47, 50
    2    6 C      2, 3, 5-9, 11-16, 18-28, 30-35, 37-46, 48, 49
    3   16 S      17, 36
    4    1 H      51-72

          program call               : xtb data2507/toluene/PTZ-DCPP/PTZ-DCPP.xyz --gfn 2 --gbsa toluene --ohess vtight --parallel 40 --molden --ceasefiles --namespace data2507/toluene/PTZ-DCPP/PTZ-DCPP_toluene_S0_preOpt
      * Solvation model:               GBSA
        Solvent                        toluene
        Solvent mass                       9.2140E+01 g/mol
          :  Hamiltonian                  GFN2-xTB          :
 * total energy  :  -125.1846107 Eh     change       -0.4554266E-08 Eh
 * total energy  :  -125.2053137 Eh     change       -0.2070307E-01 Eh
 * total energy  :  -125.2129784 Eh     change       -0.7664681E-02 Eh
 * total energy  :  -125.2147844 Eh     change       -0.1806010E-02 Eh
 * total energy  :  -125.2156585 Eh     change       -0.8740704E-03 Eh
 * total energy  :  -125.2158738 Eh     change       -0.2153108E-03 Eh
 * total energy  :  -125.2158555 Eh     change        0.1829789E-04 Eh
 * total energy  :  -125.2159324 Eh     change       -0.7687188E-04 Eh
 * total energy  :  -125.2159434 Eh     change       -0.1106281E-04 Eh
 * total energy  :  -125.2159388 Eh     change        0.4695663E-05 Eh
 * total energy  :  -125.2173762 Eh     change       -0.1282413E-05 Eh
 * total energy  :  -125.2173775 Eh     change       -0.1229152E-05 Eh
 * total energy  :  -125.2173787 Eh     change       -0.1226825E-05 Eh
 * total energy  :  -125.2173799 Eh     change       -0.1226624E-05 Eh
 * total energy  :  -125.2173812 Eh     change       -0.1284420E-05 Eh
 * total energy  :  -125.2173825 Eh     change       -0.1341400E-05 Eh
 * total energy  :  -125.2173838 Eh     change       -0.1220483E-05 Eh
 * total energy  :  -125.2173849 Eh     change       -0.1189054E-05 Eh
 * total energy  :  -125.2173850 Eh     change       -0.1338016E-07 Eh
   *** GEOMETRY OPTIMIZATION CONVERGED AFTER 152 ITERATIONS ***

 final structure:
================
72
 xtb: 6.7.1 (edcfbbe)
N           -1.93666406845802       -8.40546085080570       -0.25982059423456
C           -1.40411572288662       -7.39268534934051       -0.18502805660747
C           -0.70406286954483       -6.16588740794517       -0.08865817080230
N           -1.38046366564462       -5.03153639597048       -0.17057673719286
C           -0.70588970275639       -3.88455757043861       -0.08293098298749
C           -1.42426614825595       -2.64284967523146       -0.15354849228108
C           -2.81917748126985       -2.65444755703731       -0.29218973262579
C           -3.52958013921827       -1.48214400349713       -0.34989296010489
C           -2.84917320469147       -0.26138183696838       -0.26493935191913
N           -3.55241147197400        0.96936706754766       -0.29827746861125
C           -4.20464450711172        1.34329686716248       -1.47624272066622
C           -4.24226936616810        0.47970342147258       -2.57319855149256
C           -4.89929287345612        0.81971259317991       -3.74220618451945
C           -5.54153208435929        2.03876008504342       -3.85595043101684
C           -5.47904710381250        2.92699273031771       -2.79768939134321
C           -4.80594848825835        2.59618414723389       -1.63187069335995
S           -4.67123168211108        3.88274252036114       -0.42057375120121
C           -4.17694511700119        2.95612402573833        1.00443633262312
C           -4.29210730957666        3.59359658842223        2.23033377969472
C           -3.91165893781208        2.95676370769951        3.39750463902880
C           -3.43862651065871        1.65894028971148        3.32895374486649
C           -3.33953517023241        1.01480651984422        2.10906202657776
C           -3.68329191343328        1.65265481167590        0.91436734754282
C           -1.47176672058593       -0.23881968997467       -0.12457712996191
C           -0.72406992386058       -1.41791278265810       -0.06878650654215
C            0.72445178562732       -1.41796214457592        0.06646413148977
C            1.47215117566889       -0.23889159119678        0.12271277053757
C            2.84965925382689       -0.26150956777320        0.26198680929443
N            3.55250744996876        0.96941275703752        0.29712592714893
C            4.20486265576046        1.34198028480865        1.47548221614761
C            4.24649927233493        0.47558356027530        2.57005997818617
C            4.90343571799944        0.81476624520053        3.73935693028048
C            5.54165238970989        2.03567279116808        3.85573878711794
C            5.47551365741225        2.92635769037502        2.79975713304765
C            4.80246376735745        2.59631952763791        1.63370310535802
S            4.66268139264028        3.88527505028161        0.42548935388113
C            4.17351579027693        2.95958035873050       -1.00189819582095
C            4.28890870827677        3.59901867396407       -2.22673432086852
C            3.91128925355134        2.96294927615258       -3.39524839483977
C            3.44070909430781        1.66410258444884       -3.32910210064934
C            3.34160619044030        1.01796322211383       -2.11027007577466
C            3.68283838411607        1.65482959652274       -0.91434968485096
C            3.53026277352701       -1.48233666211642        0.34438573490095
C            2.81978636013800       -2.65461975132750        0.28686982294929
C            1.42465948083359       -2.64294488246022        0.15045088665548
C            0.70596523383081       -3.88461310587747        0.08205237545454
N            1.38009346694792       -5.03161073330742        0.17269006197417
C            0.70319448146621       -6.16592262184989        0.09413900798765
C            1.40255964572843       -7.39279359172757        0.19445746413480
N            1.93428012776884       -8.40573504132671        0.27276434740438
H           -3.31789966255123       -3.60968819776539       -0.33968912206516
H           -4.60510477268622       -1.49182937580616       -0.43892943542189
H           -3.73739925850148       -0.47134807901944       -2.52236613590080
H           -4.90285108744631        0.12111047579422       -4.56491601717137
H           -6.06654880828866        2.30749110958036       -4.75887523153450
H           -5.93767077858811        3.90193728147629       -2.86751745448053
H           -4.67692984942374        4.60209268771619        2.25139594260195
H           -3.99395666080695        3.46699558031042        4.34410099350078
H           -3.15178990727663        1.13354083460839        4.22705098576664
H           -2.99036738850650       -0.00536161051454        2.08444658751667
H           -0.99196919257160        0.72358785698612       -0.05425944357309
H            0.99224282302847        0.72356287485425        0.05379948418132
H            3.74486523317956       -0.47706158782227        2.51716864669986
H            4.91010210665789        0.11404934918015        4.56025268489224
H            6.06641885590659        2.30385479698838        4.75897284023618
H            5.93105187861737        3.90259307236498        2.87167785877538
H            4.67148149472834        4.60840643133086       -2.24591496560745
H            3.99370035597238        3.47465873582850       -4.34103925063449
H            3.15586618644219        1.13948942121998       -4.22829162204159
H            2.99444790802024       -0.00294333392565       -2.08739083434081
H            4.60594777983831       -1.49208575180925        0.43148800550186
H            3.31858841791753       -3.60988675231923        0.33304744909099

          :  Hamiltonian                  GFN2-xTB          :
         :: gradient norm              0.000067795088 Eh/a0 ::
         :: HOMO-LUMO gap              0.457239993373 eV    ::
         :: SCC energy              -127.460646212446 Eh    ::
         :: -> dispersion             -0.111893313705 Eh    ::
         :: -> Gsolv                  -0.060192550420 Eh    ::
         :: repulsion energy           2.243261256197 Eh    ::

    * Orbital Energies and Occupations

         #    Occupation            Energy/Eh            Energy/eV
      -------------------------------------------------------------
         1        2.0000           -0.7261043             -19.7583
       ...           ...                  ...                  ...
       104        2.0000           -0.4304874             -11.7142
       105        2.0000           -0.4297293             -11.6935
       106        2.0000           -0.4239752             -11.5370
       107        2.0000           -0.4231416             -11.5143
       108        2.0000           -0.4222732             -11.4906
       109        2.0000           -0.4218323             -11.4786
       110        2.0000           -0.4191528             -11.4057
       111        2.0000           -0.4183491             -11.3839
       112        2.0000           -0.3954151             -10.7598
       113        2.0000           -0.3894614             -10.5978
       114        2.0000           -0.3893846             -10.5957
       115        1.9998           -0.3501418              -9.5278
       116        1.9998           -0.3501174              -9.5272 (HOMO)
       117        0.0004           -0.3333142              -9.0699 (LUMO)
       118        0.0000           -0.3291101              -8.9555
       119                         -0.2833683              -7.7108
       120                         -0.2784793              -7.5778
       121                         -0.2505875              -6.8188
       122                         -0.2505332              -6.8174
       123                         -0.2479304              -6.7465
       124                         -0.2473392              -6.7304
       125                         -0.2420655              -6.5869
       126                         -0.2391545              -6.5077
       127                         -0.2389159              -6.5012
       ...                                ...                  ...
       232                          1.1429584              31.1015
      -------------------------------------------------------------
                  HL-Gap            0.0168032 Eh            0.4572 eV

     #   Z          covCN         q      C6AA      α(0)
     1   7 N        0.911    -0.221    25.828     7.350
     2   6 C        1.909     0.113    28.306     8.592
     3   6 C        2.952     0.099    25.813     8.333
     4   7 N        1.853    -0.229    26.863     7.682
     5   6 C        2.963     0.087    26.065     8.374
     6   6 C        2.987    -0.004    28.126     8.700
     7   6 C        2.922    -0.023    28.571     8.765
     8   6 C        2.917    -0.034    28.844     8.807
     9   6 C        2.928     0.076    26.313     8.412
    10   7 N        2.749    -0.065    22.508     7.046
    11   6 C        2.938     0.057    26.711     8.476
    12   6 C        2.927    -0.059    29.454     8.900
    13   6 C        2.919    -0.033    28.817     8.803
    14   6 C        2.918    -0.037    28.932     8.820
    15   6 C        2.989    -0.039    28.965     8.828
    16   6 C        2.971     0.034    27.237     8.561
    17  16 S        2.135    -0.156   147.654    20.452
    18   6 C        2.971     0.035    27.215     8.557
    19   6 C        2.985    -0.039    28.964     8.828
    20   6 C        2.918    -0.037    28.910     8.817
    21   6 C        2.919    -0.033    28.817     8.803
    22   6 C        2.928    -0.057    29.409     8.894
    23   6 C        2.946     0.057    26.723     8.478
    24   6 C        2.925    -0.041    29.022     8.835
    25   6 C        2.975     0.015    27.670     8.628
    26   6 C        2.975     0.015    27.670     8.628
    27   6 C        2.925    -0.041    29.021     8.834
    28   6 C        2.928     0.076    26.313     8.412
    29   7 N        2.749    -0.066    22.509     7.046
    30   6 C        2.938     0.057    26.711     8.476
    31   6 C        2.927    -0.059    29.455     8.900
    32   6 C        2.919    -0.033    28.817     8.803
    33   6 C        2.918    -0.037    28.932     8.820
    34   6 C        2.989    -0.039    28.965     8.828
    35   6 C        2.971     0.034    27.237     8.561
    36  16 S        2.135    -0.156   147.659    20.452
    37   6 C        2.971     0.035    27.215     8.557
    38   6 C        2.985    -0.039    28.964     8.828
    39   6 C        2.918    -0.037    28.910     8.817
    40   6 C        2.919    -0.033    28.817     8.803
    41   6 C        2.928    -0.057    29.409     8.893
    42   6 C        2.946     0.057    26.723     8.478
    43   6 C        2.917    -0.034    28.844     8.807
    44   6 C        2.922    -0.023    28.571     8.765
    45   6 C        2.987    -0.004    28.126     8.700
    46   6 C        2.963     0.087    26.065     8.374
    47   7 N        1.853    -0.229    26.863     7.682
    48   6 C        2.952     0.099    25.813     8.333
    49   6 C        1.909     0.113    28.306     8.592
    50   7 N        0.911    -0.221    25.829     7.350
    51   1 H        0.926     0.070     2.088     2.260
    52   1 H        0.926     0.064     2.154     2.295
    53   1 H        0.926     0.041     2.436     2.440
    54   1 H        0.926     0.042     2.418     2.432
    55   1 H        0.926     0.042     2.417     2.431
    56   1 H        0.926     0.044     2.390     2.417
    57   1 H        0.926     0.045     2.378     2.411
    58   1 H        0.926     0.043     2.403     2.424
    59   1 H        0.926     0.042     2.416     2.431
    60   1 H        0.926     0.036     2.496     2.471
    61   1 H        0.926     0.063     2.163     2.300
    62   1 H        0.926     0.063     2.163     2.300
    63   1 H        0.926     0.041     2.435     2.440
    64   1 H        0.926     0.042     2.418     2.432
    65   1 H        0.926     0.042     2.417     2.431
    66   1 H        0.926     0.044     2.390     2.417
    67   1 H        0.926     0.045     2.378     2.411
    68   1 H        0.926     0.043     2.403     2.424
    69   1 H        0.926     0.042     2.416     2.431
    70   1 H        0.926     0.036     2.496     2.471
    71   1 H        0.926     0.064     2.154     2.295
    72   1 H        0.926     0.070     2.088     2.260

molecular dipole:
                 x           y           z       tot (Debye)
 q only:        0.002       2.903      -0.006
   full:        0.003       3.080      -0.008       7.828

 projected vibrational frequencies (cm⁻¹)
eigval :       -0.00    -0.00    -0.00     0.00     0.00     0.00
eigval :        8.31     9.91    13.25    18.06    21.18    21.95
eigval :       25.24    32.45    40.61    73.12    75.35    85.21
eigval :       93.11    95.89   101.35   106.30   115.08   135.87
eigval :      143.15   145.25   151.09   163.75   176.77   207.12
eigval :      226.83   227.25   232.64   244.87   245.92   254.91
eigval :      273.05   280.63   303.99   319.35   319.92   338.95
eigval :      367.50   370.56   373.45   375.48   385.04   392.33
eigval :      402.48   408.38   412.25   414.68   419.20   421.75
eigval :      424.35   434.32   445.35   462.83   464.18   470.96
eigval :      474.51   490.90   491.08   498.44   504.42   510.07
eigval :      530.72   538.61   541.66   562.40   573.77   592.40
eigval :      601.19   606.16   631.74   639.42   643.30   650.40
eigval :      650.54   653.07   654.13   655.35   655.69   669.39
eigval :      680.98   694.59   700.42   709.35   711.17   715.42
eigval :      736.62   755.15   760.70   768.24   769.85   770.71
eigval :      771.22   807.29   834.08   834.93   857.84   860.83
eigval :      861.48   862.83   870.03   880.02   895.28   903.04
eigval :      903.14   903.46   903.97   906.54   907.28   916.06
eigval :      916.49   916.72   916.98   933.95   934.06   954.94
eigval :      990.45  1033.45  1040.90  1041.05  1053.42  1055.19
eigval :     1068.11  1103.20  1103.38  1104.26  1104.31  1146.17
eigval :     1146.36  1151.33  1151.44  1156.60  1157.30  1160.04
eigval :     1177.89  1178.66  1179.78  1180.18  1189.43  1191.57
eigval :     1224.70  1226.10  1243.30  1243.34  1252.03  1252.91
eigval :     1255.18  1264.24  1267.10  1296.08  1297.56  1303.56
eigval :     1307.74  1312.20  1312.36  1320.56  1326.70  1326.84
eigval :     1329.38  1348.46  1379.02  1395.83  1405.17  1405.35
eigval :     1408.50  1417.48  1419.08  1429.15  1431.69  1439.52
eigval :     1455.25  1455.44  1469.66  1471.34  1472.13  1481.35
eigval :     1527.11  1540.26  1555.54  1555.60  1567.54  1567.78
eigval :     1569.87  1572.92  1573.04  1580.18  1588.76  1589.92
eigval :     2353.08  2357.22  3086.68  3086.70  3086.88  3086.88
eigval :     3089.76  3089.79  3090.16  3090.20  3098.91  3098.93
eigval :     3101.63  3101.81  3103.20  3103.23  3107.79  3108.08
eigval :     3111.38  3111.95  3112.22  3113.18  3113.31  3120.97

   temp. (K)  partition function   enthalpy   heat capacity  entropy
                                   cal/mol     cal/K/mol   cal/K/mol   J/K/mol
 298.15  VIB  0.850E+19            23217.613    143.422    144.809
         ROT  0.531E+08              888.752      2.981     38.329
         INT  0.451E+27            24106.365    146.403    183.138
         TR   0.170E+29             1481.254      4.968     45.388
         TOT                       25587.6190   151.3709   228.5262   956.1535

       T/K    H(0)-H(T)+PV         H(T)/Eh          T*S/Eh         G(T)/Eh
   ------------------------------------------------------------------------
    298.15    0.407765E-01    0.551180E+00    0.108580E+00    0.442599E+00
   ------------------------------------------------------------------------

         :::::::::::::::::::::::::::::::::::::::::::::::::::::
         ::                  THERMODYNAMIC                  ::
         :::::::::::::::::::::::::::::::::::::::::::::::::::::
         :: total free energy        -124.774785595392 Eh   ::
         ::.................................................::
         :: total energy             -125.217384952516 Eh   ::
         :: zero point energy           0.510403052535 Eh   ::
         :: G(RRHO) w/o ZPVE           -0.067803695411 Eh   ::
         :: G(RRHO) contrib.            0.442599357124 Eh   ::
         :::::::::::::::::::::::::::::::::::::::::::::::::::::

           -------------------------------------------------
          | TOTAL ENERGY             -125.217384952516 Eh   |
          | TOTAL ENTHALPY           -124.666205433515 Eh   |
          | TOTAL FREE ENERGY        -124.774785595392 Eh   |
          | GRADIENT NORM               0.000067880581 Eh/α |
          | HOMO-LUMO GAP               0.457239246863 eV   |
           -------------------------------------------------

 * finished run on 2025/07/17 at 05:23:42.950
