   * xtb version 6.7.1 (edcfbbe) compiled by 'albert@albert-system' on 2024-07-22

   ID    Z sym.   atoms
    1    7 N      1, 4, 10, 29, 47, 50
    2    6 C      2, 3, 5-9, 11-16, 18-28, 30-35, 37-46, 48, 49
    3   16 S      17, 36
    4    1 H      51-72

          program call               : xtb data2507/toluene/PTZ-DCPP/PTZ-DCPP_toluene_S0_finalOpt.xtbopt.xyz --gfn 2 --uhf 2 --gbsa toluene --ohess vtight --parallel 40 --molden --ceasefiles --namespace data2507/toluene/PTZ-DCPP/PTZ-DCPP_toluene_T1_preOpt
      * Solvation model:               GBSA
        Solvent                        toluene
        Solvent mass                       9.2140E+01 g/mol
          :  Hamiltonian                  GFN2-xTB          :
 * total energy  :  -125.1693155 Eh     change       -0.4092541E-08 Eh
 * total energy  :  -125.1706480 Eh     change       -0.1332449E-02 Eh
 * total energy  :  -125.1710145 Eh     change       -0.3664849E-03 Eh
 * total energy  :  -125.1710804 Eh     change       -0.6598646E-04 Eh
 * total energy  :  -125.1710848 Eh     change       -0.4384641E-05 Eh
 * total energy  :  -125.1711519 Eh     change       -0.6710539E-04 Eh
 * total energy  :  -125.1711557 Eh     change       -0.3743048E-05 Eh
 * total energy  :  -125.1711748 Eh     change       -0.1911558E-04 Eh
 * total energy  :  -125.1711864 Eh     change       -0.1163296E-04 Eh
 * total energy  :  -125.1711960 Eh     change       -0.9557142E-05 Eh
 * total energy  :  -125.1712111 Eh     change       -0.2606902E-05 Eh
 * total energy  :  -125.1712138 Eh     change       -0.2726527E-05 Eh
 * total energy  :  -125.1712157 Eh     change       -0.1945038E-05 Eh
 * total energy  :  -125.1712170 Eh     change       -0.1286263E-05 Eh
 * total energy  :  -125.1712181 Eh     change       -0.1076842E-05 Eh
 * total energy  :  -125.1712191 Eh     change       -0.9892059E-06 Eh
 * total energy  :  -125.1712196 Eh     change       -0.5660172E-06 Eh
 * total energy  :  -125.1712198 Eh     change       -0.1823372E-06 Eh
 * total energy  :  -125.1712199 Eh     change       -0.2053426E-07 Eh
   *** GEOMETRY OPTIMIZATION CONVERGED AFTER 22 ITERATIONS ***

 final structure:
================
72
 xtb: 6.7.1 (edcfbbe)
N           -1.92671360766556       -8.24921364920236        0.17211079837645
C           -1.39817662841096       -7.22643384597839        0.12263482653244
C           -0.72560121847186       -5.99730547533413        0.06187283770392
N           -1.41050702983129       -4.85324034875461        0.11104663856148
C           -0.71720948475438       -3.69283934039775        0.05466591477166
C           -1.41565667395615       -2.45854506711460        0.10539775460951
C           -2.82274958436260       -2.45206238928509        0.16971232084967
C           -3.53252516672032       -1.29005067025228        0.23434870554250
C           -2.85921485625378       -0.04697967303997        0.25308537848059
N           -3.57288911628640        1.13628324772593        0.31385876139623
C           -2.96897810042762        2.40661955039201        0.24436647775580
C           -1.96281889819403        2.78757327029903        1.13047110297626
C           -1.39257771579299        4.04284761632729        1.04080008498615
C           -1.82691314689787        4.94191845018080        0.07717564539331
C           -2.85563898267166        4.59563047048974       -0.77764779101142
C           -3.43387533112765        3.33754487573054       -0.68662673339059
S           -4.79150120978103        2.90972722066654       -1.74255426084179
C           -5.68462453072597        1.95431852059096       -0.54858274417119
C           -7.07100033430124        1.99694835227202       -0.52457784340258
C           -7.76272630556295        1.28432820785079        0.43651747895408
C           -7.06891843264335        0.55597971159446        1.39253920966645
C           -5.68803180550270        0.50779132885616        1.36762545061650
C           -4.97963562080649        1.17627230302351        0.37130534518447
C           -1.47425654474765       -0.04281383497283        0.12062483853262
C           -0.72259918831803       -1.21878951489386        0.05723962212261
C            0.71602769482695       -1.22416702308830       -0.05873707030834
C            1.47623216511104       -0.05385259278204       -0.12471069714880
C            2.86141324033516       -0.06830418458902       -0.25417649956865
N            3.58337670481835        1.10991608825644       -0.31635543231243
C            2.98735720211781        2.38436914487778       -0.25447136790003
C            1.98776607541149        2.76816881725138       -1.14678452535248
C            1.42543280184615        4.02754770998610       -1.06513269209365
C            1.86123642613436        4.92783858372814       -0.10330941158011
C            2.88331310951108        4.57820933991890        0.75810016778440
C            3.45362586461134        3.31594278500499        0.67517416032443
S            4.80254543183991        2.88336127322328        1.74028844852038
C            5.69568318136486        1.91662547477870        0.55553238188877
C            7.08247312834667        1.94884878704939        0.54013436205359
C            7.77494091373564        1.22736924066697       -0.41377818461072
C            7.08174159736138        0.50121401308917       -1.37188380692640
C            5.70038588838978        0.46353542730231       -1.35561183367151
C            4.99070145869098        1.14033273071304       -0.36585818140723
C            3.52566189784312       -1.31613634074547       -0.23066584939399
C            2.80736737912654       -2.47284401419972       -0.16450914624027
C            1.40017078928908       -2.46902835675239       -0.10260499026925
C            0.69273357160888       -3.69810551334176       -0.04954118917268
N            1.37757213243471       -4.86365904311147       -0.10294191398225
C            0.68443297978341       -6.00258127778187       -0.04996382498173
C            1.34795574758731       -7.23677439977397       -0.10730666774105
N            1.86902021782921       -8.26353159809822       -0.15375049267806
H           -3.32740160710398       -3.40608534006067        0.15682829242469
H           -4.60924383316968       -1.32774314645327        0.24318253683147
H           -1.64483612996975        2.09428884378487        1.89425214908144
H           -0.61218471992003        4.32184938740920        1.73101062767708
H           -1.38182879619785        5.92142665707651        0.00747053846823
H           -3.22528340726912        5.29107013915713       -1.51486442979807
H           -7.59236492764524        2.59207500186906       -1.25811311986026
H           -8.84090046354871        1.31359607948528        0.45271300301151
H           -7.60520889217666        0.02696753868587        2.16504799857822
H           -5.14433097408277       -0.04374681541437        2.11967349575872
H           -0.96836415990196        0.90378024975714        0.04434250691389
H            0.97704270329609        0.89661268735285       -0.05231317156730
H            1.66845469818358        2.07362562244843       -1.90884629852476
H            0.64998641769719        4.30868854576688       -1.76004520317382
H            1.42239478826814        5.91058771318889       -0.03990743627686
H            3.25371742341160        5.27418731989035        1.49441861981468
H            7.60363458183101        2.54269640438478        1.27484732841503
H            8.85339335309171        1.24818038351975       -0.42295120902577
H            7.61891817386924       -0.03447582120495       -2.13915698640730
H            5.15738696440445       -0.08613945824717       -2.10951771496012
H            4.60206992251603       -1.36172436226955       -0.23714683158664
H            3.30513910221767       -3.43044354541099       -0.14838944073638

          :  Hamiltonian                  GFN2-xTB          :
         :: gradient norm              0.000149749502 Eh/a0 ::
         :: HOMO-LUMO gap              0.142272739529 eV    ::
         :: SCC energy              -127.406375204906 Eh    ::
         :: -> dispersion             -0.117594942682 Eh    ::
         :: -> Gsolv                  -0.076134268533 Eh    ::
         :: repulsion energy           2.235155351217 Eh    ::

    * Orbital Energies and Occupations

         #    Occupation            Energy/Eh            Energy/eV
      -------------------------------------------------------------
         1        2.0000           -0.7392883             -20.1171
       ...           ...                  ...                  ...
       105        2.0000           -0.4289495             -11.6723
       106        2.0000           -0.4288776             -11.6704
       107        2.0000           -0.4250366             -11.5658
       108        2.0000           -0.4239274             -11.5357
       109        2.0000           -0.4208041             -11.4507
       110        2.0000           -0.4154663             -11.3054
       111        2.0000           -0.4030102             -10.9665
       112        2.0000           -0.3937459             -10.7144
       113        2.0000           -0.3895214             -10.5994
       114        1.9968           -0.3715016             -10.1091
       115        1.6324           -0.3665529              -9.9744
       116        1.3707           -0.3655347              -9.9467
       117        0.9400           -0.3018743              -8.2144 (HOMO)
       118        0.0600           -0.2966465              -8.0722 (LUMO)
       119                         -0.2607400              -7.0951
       120                         -0.2587747              -7.0416
       121                         -0.2570761              -6.9954
       122                         -0.2564921              -6.9795
       123                         -0.2522473              -6.8640
       124                         -0.2517549              -6.8506
       125                         -0.2512070              -6.8357
       126                         -0.2483631              -6.7583
       127                         -0.2474643              -6.7338
       128                         -0.2388732              -6.5001
       ...                                ...                  ...
       232                          1.1616102              31.6090
      -------------------------------------------------------------
                  HL-Gap            0.0052278 Eh            0.1423 eV

     #   Z          covCN         q      C6AA      α(0)
     1   7 N        0.911    -0.286    27.371     7.567
     2   6 C        1.912     0.105    28.494     8.621
     3   6 C        2.942     0.093    25.928     8.351
     4   7 N        1.848    -0.289    28.332     7.889
     5   6 C        2.951     0.080    26.208     8.397
     6   6 C        2.987    -0.016    28.399     8.742
     7   6 C        2.920    -0.026    28.650     8.777
     8   6 C        2.917    -0.053    29.306     8.877
     9   6 C        2.910     0.066    26.514     8.443
    10   7 N        2.752    -0.040    22.015     6.969
    11   6 C        2.974     0.054    26.793     8.491
    12   6 C        2.922    -0.042    29.035     8.836
    13   6 C        2.918    -0.028    28.710     8.787
    14   6 C        2.920    -0.027    28.682     8.782
    15   6 C        2.958    -0.034    28.838     8.808
    16   6 C        2.971     0.035    27.216     8.557
    17  16 S        2.115    -0.098   145.151    20.277
    18   6 C        2.972     0.034    27.231     8.560
    19   6 C        2.959    -0.034    28.843     8.809
    20   6 C        2.920    -0.027    28.686     8.783
    21   6 C        2.919    -0.028    28.695     8.784
    22   6 C        2.922    -0.040    29.006     8.832
    23   6 C        2.976     0.055    26.772     8.487
    24   6 C        2.924    -0.060    29.487     8.905
    25   6 C        2.975    -0.000    28.027     8.684
    26   6 C        2.975    -0.000    28.027     8.684
    27   6 C        2.924    -0.060    29.487     8.905
    28   6 C        2.910     0.066    26.514     8.443
    29   7 N        2.752    -0.040    22.016     6.969
    30   6 C        2.974     0.054    26.792     8.490
    31   6 C        2.922    -0.042    29.034     8.836
    32   6 C        2.918    -0.028    28.710     8.787
    33   6 C        2.920    -0.027    28.682     8.782
    34   6 C        2.958    -0.034    28.838     8.808
    35   6 C        2.971     0.035    27.216     8.557
    36  16 S        2.115    -0.098   145.149    20.277
    37   6 C        2.972     0.034    27.231     8.560
    38   6 C        2.959    -0.034    28.843     8.809
    39   6 C        2.920    -0.027    28.685     8.783
    40   6 C        2.919    -0.028    28.695     8.784
    41   6 C        2.922    -0.040    29.006     8.832
    42   6 C        2.976     0.054    26.772     8.487
    43   6 C        2.917    -0.053    29.307     8.877
    44   6 C        2.920    -0.026    28.649     8.777
    45   6 C        2.987    -0.016    28.399     8.742
    46   6 C        2.951     0.080    26.208     8.397
    47   7 N        1.848    -0.289    28.332     7.889
    48   6 C        2.942     0.093    25.928     8.351
    49   6 C        1.912     0.105    28.494     8.621
    50   7 N        0.911    -0.286    27.372     7.567
    51   1 H        0.926     0.048     2.346     2.395
    52   1 H        0.926     0.048     2.350     2.397
    53   1 H        0.926     0.056     2.248     2.345
    54   1 H        0.926     0.056     2.241     2.341
    55   1 H        0.926     0.060     2.194     2.316
    56   1 H        0.926     0.061     2.192     2.315
    57   1 H        0.926     0.058     2.221     2.331
    58   1 H        0.926     0.056     2.246     2.344
    59   1 H        0.926     0.055     2.259     2.350
    60   1 H        0.926     0.056     2.247     2.344
    61   1 H        0.926     0.051     2.304     2.374
    62   1 H        0.926     0.051     2.305     2.374
    63   1 H        0.926     0.056     2.248     2.345
    64   1 H        0.926     0.056     2.241     2.341
    65   1 H        0.926     0.060     2.194     2.316
    66   1 H        0.926     0.061     2.192     2.315
    67   1 H        0.926     0.058     2.221     2.331
    68   1 H        0.926     0.056     2.246     2.344
    69   1 H        0.926     0.055     2.259     2.350
    70   1 H        0.926     0.056     2.246     2.344
    71   1 H        0.926     0.048     2.350     2.397
    72   1 H        0.926     0.048     2.347     2.395

molecular dipole:
                 x           y           z       tot (Debye)
 q only:        0.040      10.498      -0.009
   full:        0.042      10.649      -0.009      27.068

 projected vibrational frequencies (cm⁻¹)
eigval :       -0.00    -0.00    -0.00     0.00     0.00     0.00
eigval :       12.13    15.45    21.90    26.77    37.34    41.16
eigval :       46.36    55.83    58.52    70.09    77.92    79.64
eigval :       88.84    89.01   100.13   107.20   132.36   145.78
eigval :      147.66   155.97   156.65   158.50   169.72   196.11
eigval :      200.45   210.06   241.69   246.64   259.61   263.12
eigval :      271.75   287.42   309.49   315.27   333.87   338.30
eigval :      349.09   351.11   369.03   374.25   377.34   379.81
eigval :      386.68   399.11   421.26   421.38   422.75   424.06
eigval :      426.78   438.05   440.28   444.63   455.15   468.90
eigval :      469.75   483.44   491.70   492.56   509.30   516.09
eigval :      524.11   534.43   539.84   543.07   576.07   583.05
eigval :      592.25   597.83   605.93   607.75   617.90   635.93
eigval :      649.78   652.65   656.33   656.63   668.04   674.79
eigval :      682.83   685.31   686.58   691.50   693.00   701.61
eigval :      719.22   730.92   761.28   776.10   776.61   777.91
eigval :      779.99   812.44   814.91   817.20   836.89   844.03
eigval :      865.17   882.00   884.34   887.13   888.20   892.58
eigval :      899.95   901.22   911.91   912.41   917.27   918.95
eigval :      919.35   919.97   931.54   932.74   935.26   935.34
eigval :      958.47   989.57  1033.46  1040.76  1040.80  1047.54
eigval :     1054.16  1065.52  1085.43  1085.50  1087.14  1087.37
eigval :     1143.26  1146.40  1146.68  1152.19  1153.78  1164.84
eigval :     1166.70  1172.20  1172.22  1173.78  1173.81  1191.38
eigval :     1191.44  1194.97  1225.82  1226.26  1229.20  1231.99
eigval :     1239.71  1240.58  1254.54  1266.11  1277.58  1281.68
eigval :     1290.03  1304.19  1305.93  1310.43  1313.90  1316.82
eigval :     1317.01  1333.60  1343.38  1376.96  1384.65  1395.83
eigval :     1408.73  1408.89  1414.10  1414.36  1423.53  1429.03
eigval :     1430.74  1432.68  1445.56  1445.67  1458.34  1466.76
eigval :     1490.15  1505.41  1553.06  1553.19  1559.67  1560.07
eigval :     1561.12  1565.68  1565.72  1570.36  1577.24  1578.08
eigval :     2270.74  2302.83  3089.33  3089.34  3093.74  3094.07
eigval :     3094.61  3094.61  3095.88  3097.47  3098.12  3098.78
eigval :     3100.26  3100.29  3103.69  3104.63  3107.79  3107.99
eigval :     3112.05  3113.66  3115.81  3116.49  3126.44  3135.02

   temp. (K)  partition function   enthalpy   heat capacity  entropy
                                   cal/mol     cal/K/mol   cal/K/mol   J/K/mol
 298.15  VIB  0.161E+18            23213.833    146.369    143.312
         ROT  0.515E+08              888.752      2.981     38.269
         INT  0.831E+25            24102.585    149.350    181.581
         TR   0.170E+29             1481.254      4.968     45.388
         TOT                       25583.8388   154.3179   226.9690   949.6383

       T/K    H(0)-H(T)+PV         H(T)/Eh          T*S/Eh         G(T)/Eh
   ------------------------------------------------------------------------
    298.15    0.407704E-01    0.548092E+00    0.107840E+00    0.440252E+00
   ------------------------------------------------------------------------

         :::::::::::::::::::::::::::::::::::::::::::::::::::::
         ::                  THERMODYNAMIC                  ::
         :::::::::::::::::::::::::::::::::::::::::::::::::::::
         :: total free energy        -124.730967666173 Eh   ::
         ::.................................................::
         :: total energy             -125.171219862600 Eh   ::
         :: zero point energy           0.507322055143 Eh   ::
         :: G(RRHO) w/o ZPVE           -0.067069858716 Eh   ::
         :: G(RRHO) contrib.            0.440252196427 Eh   ::
         :::::::::::::::::::::::::::::::::::::::::::::::::::::

           -------------------------------------------------
          | TOTAL ENERGY             -125.171219862600 Eh   |
          | TOTAL ENTHALPY           -124.623127365213 Eh   |
          | TOTAL FREE ENERGY        -124.730967666173 Eh   |
          | GRADIENT NORM               0.000143801969 Eh/α |
          | HOMO-LUMO GAP               0.142255310993 eV   |
           -------------------------------------------------

 * finished run on 2025/07/17 at 05:27:18.048
