   * xtb version 6.7.1 (edcfbbe) compiled by 'albert@albert-system' on 2024-07-22

   ID    Z sym.   atoms
    1    7 N      1, 4, 10, 29, 47, 50
    2    6 C      2, 3, 5-9, 11-16, 18-28, 30-35, 37-46, 48, 49
    3   16 S      17, 36
    4    1 H      51-72

          program call               : xtb data2507/toluene/PTZ-DCPP/PTZ-DCPP_toluene_S0_crest.xyz --gfn 2 --gbsa toluene --ohess vtight --parallel 40 --molden --ceasefiles --namespace data2507/toluene/PTZ-DCPP/PTZ-DCPP_toluene_S0_finalOpt
      * Solvation model:               GBSA
        Solvent                        toluene
        Solvent mass                       9.2140E+01 g/mol
          :  Hamiltonian                  GFN2-xTB          :
 * total energy  :  -125.2288009 Eh     change       -0.3855959E-08 Eh
 * total energy  :  -125.2289333 Eh     change       -0.1324320E-03 Eh
 * total energy  :  -125.2289761 Eh     change       -0.4285484E-04 Eh
 * total energy  :  -125.2289627 Eh     change        0.1341035E-04 Eh
 * total energy  :  -125.2290225 Eh     change       -0.5980243E-04 Eh
 * total energy  :  -125.2290015 Eh     change        0.2106439E-04 Eh
 * total energy  :  -125.2290433 Eh     change       -0.4184329E-04 Eh
 * total energy  :  -125.2290546 Eh     change       -0.1128138E-04 Eh
 * total energy  :  -125.2290643 Eh     change       -0.9744576E-05 Eh
 * total energy  :  -125.2290690 Eh     change       -0.4620059E-05 Eh
 * total energy  :  -125.2290725 Eh     change       -0.4622868E-06 Eh
 * total energy  :  -125.2290731 Eh     change       -0.5243389E-06 Eh
 * total energy  :  -125.2290735 Eh     change       -0.3914332E-06 Eh
 * total energy  :  -125.2290738 Eh     change       -0.3249356E-06 Eh
 * total energy  :  -125.2290741 Eh     change       -0.3431143E-06 Eh
 * total energy  :  -125.2290744 Eh     change       -0.2866332E-06 Eh
 * total energy  :  -125.2290746 Eh     change       -0.2122144E-06 Eh
 * total energy  :  -125.2290748 Eh     change       -0.1845421E-06 Eh
 * total energy  :  -125.2290748 Eh     change       -0.3835908E-08 Eh
   *** GEOMETRY OPTIMIZATION CONVERGED AFTER 22 ITERATIONS ***

 final structure:
================
72
 xtb: 6.7.1 (edcfbbe)
N           -1.95989566275822       -8.23613796494582        0.16761769801305
C           -1.42796349130175       -7.22001356667030        0.12143096286953
C           -0.72680622410817       -5.99487638664312        0.06163112310919
N           -1.40690141124654       -4.85730769866891        0.11335024905234
C           -0.72411154596121       -3.71325876542469        0.05754701543687
C           -1.42912958441039       -2.47239673286721        0.11128886078060
C           -2.83029070226015       -2.46378856924791        0.18705917135209
C           -3.53481003283885       -1.29513088404635        0.25645563362408
C           -2.85791669232546       -0.05932827777752        0.26723175880891
N           -3.55466588970996        1.12099454313005        0.34082352092455
C           -2.94452810424622        2.39387622489687        0.26187460111184
C           -1.96524444891824        2.79320146972913        1.16609578580149
C           -1.39864809956979        4.05088982359931        1.06697447378863
C           -1.81708608665689        4.92963665612982        0.07970928685581
C           -2.82107649876151        4.56115011468622       -0.79639395397392
C           -3.38884976974917        3.29985178990614       -0.69945998848765
S           -4.72158749575413        2.83440646743691       -1.77809338430804
C           -5.65017162273986        1.92877244887972       -0.56628327573963
C           -7.03499073422398        1.99423138114149       -0.55534755045466
C           -7.74429395804741        1.32387432153235        0.42438486374065
C           -7.07022227050321        0.62028191384810        1.41087602160904
C           -5.68850556661383        0.55528183782685        1.40125611684176
C           -4.96708623741377        1.17726276437388        0.38769159593529
C           -1.46694983848488       -0.06612073728936        0.13173126588797
C           -0.73025327934767       -1.24329276584534        0.06098236158991
C            0.72350211794704       -1.24878898270368       -0.06421519901064
C            1.46881534314417       -0.07726050847801       -0.13796004205219
C            2.86015863408766       -0.08091146654135       -0.26981049555308
N            3.56520762879238        1.09444392913666       -0.34461010810905
C            2.96257290964443        2.37141867557779       -0.27432557144168
C            1.99188441013245        2.77321598893000       -1.18670127111921
C            1.43310744650129        4.03509441148367       -1.09691620740136
C            1.85096516471165        4.91544317485570       -0.11082607751721
C            2.84603463355024        4.54383789972717        0.77410106593821
C            3.40579742613247        3.27825899106455        0.68667894834111
S            4.72656610940696        2.80779476607003        1.77781379100027
C            5.65866655276857        1.89126084310602        0.57697310061304
C            7.04394807536144        1.94703367129141        0.57756352752657
C            7.75682613746800        1.26881160811287       -0.39411217284318
C            7.08617469876138        0.56723283825335       -1.38433393881150
C            5.70399303288765        0.51180462356712       -1.38614287885778
C            4.97836552856948        1.14146375286145       -0.38036782631010
C            3.52801471036451       -1.32153519438581       -0.25401044539607
C            2.81483488282094       -2.48485777036588       -0.18298337514376
C            1.41354318831047       -2.48308526285660       -0.10945611206989
C            0.69946918380384       -3.71862645913410       -0.05246834576776
N            1.37388666631920       -4.86778395267735       -0.10482680744222
C            0.68549201964955       -6.00021175196264       -0.04989024034012
C            1.37765460405076       -7.23062880643338       -0.10625933942939
N            1.90217490721910       -8.25069436329254       -0.14961579935177
H           -3.34191881249389       -3.41373817569197        0.18385664857036
H           -4.61173695302950       -1.32504614361825        0.28182201087512
H           -1.65590586544106        2.11190864227016        1.94450183894308
H           -0.63280430732313        4.34556181618526        1.76711111216896
H           -1.37687182353648        5.91113409788434        0.00366166334927
H           -3.17446225021974        5.24073359138898       -1.55633817229901
H           -7.54237524238133        2.56898618494740       -1.31470623083109
H           -8.82234101971279        1.36699758692099        0.42842887135346
H           -7.62097214637466        0.12201735938278        2.19374299844942
H           -5.15813875829867        0.01817045342848        2.17324928959881
H           -0.96061961383391        0.88074518587397        0.06323667338557
H            0.96923815823824        0.87352435868240       -0.07408269146780
H            1.68285468228660        2.09041208538847       -1.96389654387435
H            0.67386552498376        4.33175774081196       -1.80338814178482
H            1.41711406472055        5.90032529380938       -0.04230227081880
H            3.19844346684939        5.22421455853331        1.53378229315420
H            7.54890386150991        2.52056410901127        1.33946691882207
H            8.83514589784453        1.30431705607183       -0.38907467821321
H            7.64000401445131        0.06303812371641       -2.16120641927363
H            5.17650994957603       -0.02345274230498       -2.16137752547497
H            4.60472611933563       -1.35939142461323       -0.27684845633734
H            3.31954891079518       -3.43849053677601       -0.17624366251682

          :  Hamiltonian                  GFN2-xTB          :
         :: gradient norm              0.000086901237 Eh/a0 ::
         :: HOMO-LUMO gap              1.326854026640 eV    ::
         :: SCC energy              -127.475840897739 Eh    ::
         :: -> dispersion             -0.117627034099 Eh    ::
         :: -> Gsolv                  -0.064256136490 Eh    ::
         :: repulsion energy           2.246766082408 Eh    ::

    * Orbital Energies and Occupations

         #    Occupation            Energy/Eh            Energy/eV
      -------------------------------------------------------------
         1        2.0000           -0.7304395             -19.8763
       ...           ...                  ...                  ...
       104        2.0000           -0.4312350             -11.7345
       105        2.0000           -0.4289206             -11.6715
       106        2.0000           -0.4258107             -11.5869
       107        2.0000           -0.4245009             -11.5513
       108        2.0000           -0.4206892             -11.4475
       109        2.0000           -0.4198401             -11.4244
       110        2.0000           -0.4189259             -11.3996
       111        2.0000           -0.4069031             -11.0724
       112        2.0000           -0.3900265             -10.6132
       113        2.0000           -0.3855706             -10.4919
       114        2.0000           -0.3792324             -10.3194
       115        2.0000           -0.3676438             -10.0041
       116        2.0000           -0.3635517              -9.8927 (HOMO)
       117                         -0.3147906              -8.5659 (LUMO)
       118                         -0.3122953              -8.4980
       119                         -0.2640219              -7.1844
       120                         -0.2613000              -7.1103
       121                         -0.2511181              -6.8333
       122                         -0.2506780              -6.8213
       123                         -0.2488935              -6.7727
       124                         -0.2477200              -6.7408
       125                         -0.2469394              -6.7196
       126                         -0.2433033              -6.6206
       127                         -0.2424998              -6.5988
       ...                                ...                  ...
       232                          1.1520219              31.3481
      -------------------------------------------------------------
                  HL-Gap            0.0487611 Eh            1.3269 eV

     #   Z          covCN         q      C6AA      α(0)
     1   7 N        0.911    -0.245    26.378     7.428
     2   6 C        1.910     0.111    28.354     8.600
     3   6 C        2.953     0.096    25.870     8.342
     4   7 N        1.852    -0.254    27.459     7.766
     5   6 C        2.962     0.088    26.048     8.371
     6   6 C        2.987    -0.019    28.480     8.754
     7   6 C        2.920    -0.025    28.625     8.774
     8   6 C        2.919    -0.052    29.293     8.875
     9   6 C        2.911     0.076    26.305     8.410
    10   7 N        2.753    -0.055    22.306     7.015
    11   6 C        2.975     0.053    26.807     8.493
    12   6 C        2.922    -0.043    29.078     8.843
    13   6 C        2.919    -0.031    28.766     8.795
    14   6 C        2.921    -0.029    28.733     8.790
    15   6 C        2.956    -0.035    28.877     8.814
    16   6 C        2.972     0.037    27.166     8.549
    17  16 S        2.110    -0.146   147.193    20.420
    18   6 C        2.972     0.037    27.171     8.550
    19   6 C        2.956    -0.035    28.881     8.815
    20   6 C        2.920    -0.030    28.739     8.791
    21   6 C        2.919    -0.030    28.760     8.794
    22   6 C        2.922    -0.042    29.056     8.840
    23   6 C        2.977     0.053    26.798     8.491
    24   6 C        2.926    -0.063    29.574     8.918
    25   6 C        2.974     0.009    27.803     8.649
    26   6 C        2.974     0.009    27.803     8.649
    27   6 C        2.926    -0.063    29.573     8.918
    28   6 C        2.911     0.076    26.305     8.410
    29   7 N        2.753    -0.055    22.308     7.015
    30   6 C        2.975     0.053    26.807     8.493
    31   6 C        2.922    -0.043    29.077     8.843
    32   6 C        2.919    -0.031    28.766     8.795
    33   6 C        2.921    -0.029    28.733     8.790
    34   6 C        2.956    -0.035    28.878     8.814
    35   6 C        2.972     0.037    27.166     8.549
    36  16 S        2.110    -0.146   147.195    20.420
    37   6 C        2.972     0.037    27.171     8.550
    38   6 C        2.956    -0.035    28.881     8.815
    39   6 C        2.920    -0.030    28.739     8.791
    40   6 C        2.919    -0.030    28.761     8.794
    41   6 C        2.922    -0.042    29.056     8.840
    42   6 C        2.977     0.053    26.798     8.491
    43   6 C        2.919    -0.052    29.294     8.876
    44   6 C        2.921    -0.025    28.625     8.774
    45   6 C        2.987    -0.019    28.480     8.754
    46   6 C        2.962     0.088    26.048     8.371
    47   7 N        1.852    -0.254    27.459     7.766
    48   6 C        2.953     0.096    25.870     8.342
    49   6 C        1.910     0.111    28.354     8.600
    50   7 N        0.911    -0.245    26.377     7.428
    51   1 H        0.926     0.054     2.268     2.355
    52   1 H        0.926     0.049     2.334     2.389
    53   1 H        0.926     0.051     2.304     2.374
    54   1 H        0.926     0.051     2.302     2.373
    55   1 H        0.926     0.055     2.258     2.350
    56   1 H        0.926     0.055     2.256     2.349
    57   1 H        0.926     0.053     2.279     2.361
    58   1 H        0.926     0.052     2.295     2.369
    59   1 H        0.926     0.051     2.301     2.372
    60   1 H        0.926     0.052     2.294     2.369
    61   1 H        0.926     0.050     2.314     2.379
    62   1 H        0.926     0.050     2.315     2.379
    63   1 H        0.926     0.051     2.304     2.374
    64   1 H        0.926     0.051     2.302     2.373
    65   1 H        0.926     0.055     2.258     2.350
    66   1 H        0.926     0.055     2.256     2.349
    67   1 H        0.926     0.053     2.279     2.361
    68   1 H        0.926     0.052     2.295     2.369
    69   1 H        0.926     0.051     2.301     2.372
    70   1 H        0.926     0.052     2.293     2.368
    71   1 H        0.926     0.049     2.334     2.389
    72   1 H        0.926     0.054     2.268     2.355

molecular dipole:
                 x           y           z       tot (Debye)
 q only:        0.030       7.055      -0.007
   full:        0.033       7.350      -0.007      18.681

 projected vibrational frequencies (cm⁻¹)
eigval :       -0.00    -0.00    -0.00     0.00     0.00     0.00
eigval :       11.87    16.19    21.25    25.39    33.21    42.06
eigval :       46.97    55.95    59.40    71.43    74.36    81.93
eigval :       89.38    95.60    97.74   113.51   134.93   146.77
eigval :      148.18   153.85   154.91   158.48   170.84   197.46
eigval :      207.28   212.39   245.01   245.45   260.89   263.62
eigval :      279.76   310.54   315.60   316.87   334.38   334.79
eigval :      349.03   351.41   369.85   376.65   386.87   393.08
eigval :      396.59   400.30   420.59   422.61   423.23   426.69
eigval :      439.64   441.43   442.01   448.47   452.69   474.62
eigval :      486.19   495.69   496.56   511.25   513.82   524.57
eigval :      530.24   539.97   546.50   553.38   584.73   586.18
eigval :      594.35   608.35   611.28   624.37   644.55   651.92
eigval :      657.46   657.89   659.10   677.20   678.94   685.25
eigval :      688.05   689.26   691.34   696.92   707.82   710.41
eigval :      734.70   753.60   759.72   776.83   777.62   780.78
eigval :      781.04   810.91   817.56   821.75   848.97   856.42
eigval :      881.08   881.42   884.80   886.12   896.98   900.82
eigval :      901.57   912.89   913.34   916.35   919.00   922.13
eigval :      922.20   928.61   929.84   934.75   934.85   954.82
eigval :      993.45  1035.26  1040.27  1040.36  1052.34  1056.21
eigval :     1073.12  1084.71  1085.08  1086.42  1086.87  1147.03
eigval :     1147.61  1152.57  1154.28  1156.38  1165.79  1170.66
eigval :     1172.56  1172.91  1173.48  1173.85  1196.85  1196.92
eigval :     1226.58  1227.10  1231.09  1237.53  1240.64  1240.82
eigval :     1272.32  1272.53  1276.65  1287.51  1289.11  1310.90
eigval :     1311.41  1316.00  1316.19  1329.46  1330.76  1344.56
eigval :     1347.43  1355.32  1396.15  1406.75  1410.31  1412.94
eigval :     1418.52  1418.69  1421.42  1436.90  1437.09  1441.94
eigval :     1445.64  1447.12  1457.15  1466.16  1485.23  1497.68
eigval :     1525.48  1531.34  1561.44  1561.55  1567.58  1567.70
eigval :     1570.24  1570.28  1575.98  1578.65  1584.62  1591.34
eigval :     2349.56  2351.26  3086.44  3086.46  3089.15  3090.14
eigval :     3091.62  3091.65  3094.53  3095.20  3097.68  3097.69
eigval :     3100.47  3101.33  3101.92  3103.15  3105.74  3105.79
eigval :     3109.58  3110.93  3116.21  3116.62  3129.04  3137.81

   temp. (K)  partition function   enthalpy   heat capacity  entropy
                                   cal/mol     cal/K/mol   cal/K/mol   J/K/mol
 298.15  VIB  0.127E+18            22958.907    144.671    141.803
         ROT  0.511E+08              888.752      2.981     38.253
         INT  0.651E+25            23847.659    147.651    180.057
         TR   0.170E+29             1481.254      4.968     45.388
         TOT                       25328.9130   152.6196   225.4450   943.2617

       T/K    H(0)-H(T)+PV         H(T)/Eh          T*S/Eh         G(T)/Eh
   ------------------------------------------------------------------------
    298.15    0.403642E-01    0.551844E+00    0.107116E+00    0.444728E+00
   ------------------------------------------------------------------------

         :::::::::::::::::::::::::::::::::::::::::::::::::::::
         ::                  THERMODYNAMIC                  ::
         :::::::::::::::::::::::::::::::::::::::::::::::::::::
         :: total free energy        -124.784346861579 Eh   ::
         ::.................................................::
         :: total energy             -125.229074821800 Eh   ::
         :: zero point energy           0.511479939316 Eh   ::
         :: G(RRHO) w/o ZPVE           -0.066751979095 Eh   ::
         :: G(RRHO) contrib.            0.444727960221 Eh   ::
         :::::::::::::::::::::::::::::::::::::::::::::::::::::

           -------------------------------------------------
          | TOTAL ENERGY             -125.229074821800 Eh   |
          | TOTAL ENTHALPY           -124.677230690260 Eh   |
          | TOTAL FREE ENERGY        -124.784346861579 Eh   |
          | GRADIENT NORM               0.000086803722 Eh/α |
          | HOMO-LUMO GAP               1.326856641690 eV   |
           -------------------------------------------------

 * finished run on 2025/07/17 at 05:27:11.771
