   * xtb version 6.7.1 (edcfbbe) compiled by 'albert@albert-system' on 2024-07-22

   ID    Z sym.   atoms
    1    8 O      1
    2   15 P      2
    3    6 C      3-17, 19, 20, 22-28, 30-44, 46-51, 53
    4    7 N      18, 21, 29
    5   16 S      45, 52
    6    1 H      54-83

          program call               : xtb data2507/toluene/oTPAPO-DTPZ/oTPAPO-DTPZ_toluene_S0_finalOpt.xtbopt.xyz --gfn 2 --uhf 2 --gbsa toluene --ohess vtight --parallel 40 --molden --ceasefiles --namespace data2507/toluene/oTPAPO-DTPZ/oTPAPO-DTPZ_toluene_T1_preOpt
      * Solvation model:               GBSA
        Solvent                        toluene
        Solvent mass                       9.2140E+01 g/mol
          :  Hamiltonian                  GFN2-xTB          :
 * total energy  :  -135.7350204 Eh     change       -0.3415522E-08 Eh
 * total energy  :  -135.7374482 Eh     change       -0.2427806E-02 Eh
 * total energy  :  -135.7382543 Eh     change       -0.8060945E-03 Eh
 * total energy  :  -135.7383486 Eh     change       -0.9436538E-04 Eh
 * total energy  :  -135.7383890 Eh     change       -0.4038816E-04 Eh
 * total energy  :  -135.7383946 Eh     change       -0.5563475E-05 Eh
 * total energy  :  -135.7383996 Eh     change       -0.5010050E-05 Eh
 * total energy  :  -135.7384052 Eh     change       -0.5594858E-05 Eh
 * total energy  :  -135.7384121 Eh     change       -0.6918397E-05 Eh
 * total energy  :  -135.7384178 Eh     change       -0.5731022E-05 Eh
 * total energy  :  -135.7384365 Eh     change       -0.1928721E-06 Eh
 * total energy  :  -135.7384367 Eh     change       -0.1793096E-06 Eh
 * total energy  :  -135.7384369 Eh     change       -0.1674669E-06 Eh
 * total energy  :  -135.7384370 Eh     change       -0.1490139E-06 Eh
 * total energy  :  -135.7384372 Eh     change       -0.1447351E-06 Eh
 * total energy  :  -135.7384373 Eh     change       -0.1361408E-06 Eh
 * total energy  :  -135.7384374 Eh     change       -0.1353157E-06 Eh
 * total energy  :  -135.7384376 Eh     change       -0.1280004E-06 Eh
 * total energy  :  -135.7384376 Eh     change       -0.8420500E-09 Eh
   *** GEOMETRY OPTIMIZATION CONVERGED AFTER 44 ITERATIONS ***

 final structure:
================
83
 xtb: 6.7.1 (edcfbbe)
O           -0.66999949200013       -2.72690121669566        2.30554297970146
P           -0.39914557013741       -2.51833464240361        0.86837490379068
C            0.51275722802214       -3.92186612218554        0.14324773567516
C            1.07638661216053       -3.88516288222442       -1.12655359995473
C            1.71712516123653       -5.00350233360984       -1.62634270383283
C            1.79248092063175       -6.16172844859530       -0.86713510095982
C            1.22852832265395       -6.20189735795535        0.39723679190855
C            0.58717358319077       -5.08299430884686        0.89972752050060
C           -1.89885726227020       -2.47205104503969       -0.16440607358036
C           -3.06775095896867       -2.95890148060451        0.40311283306734
C           -4.22353571073516       -3.04409500153991       -0.35216802277654
C           -4.20754115498294       -2.65044202385732       -1.68029327062218
C           -3.03981743035809       -2.16332884362653       -2.24867746407969
C           -1.88402219408178       -2.07659412920619       -1.49533580558431
C            0.64766192551247       -1.06416859971570        0.51972139115487
C            2.01103077863066       -1.29862132583805        0.62382688310186
C            2.95065593752814       -0.30201627658873        0.37045279687344
N            4.26242652420814       -0.51352963453616        0.46892695327811
C            5.13807678812426        0.44968747796151        0.21268376728694
C            4.65846145989000        1.75593839552809       -0.18320272533345
N            3.35290189184325        1.96674703013427       -0.28796605585259
C            2.47050055808018        1.00234248506436       -0.02739911349107
C            1.09663684922805        1.21237953356636       -0.10989067732112
C            0.17438620509232        0.20950727102478        0.17595705418295
C           -1.25563970692557        0.52120250744565        0.14925897058853
C           -1.81237846524333        1.26932754160741       -0.88947582407190
C           -3.15330373006426        1.58046181094292       -0.89791121917909
C           -3.98409376021491        1.16179699876449        0.14681892663038
N           -5.33830883324015        1.48600806904909        0.14850360786653
C           -6.04518874329341        1.56898514196567       -1.05645337774652
C           -7.02435577254241        2.54828435804630       -1.23487020414661
C           -7.71993598210694        2.62292005488951       -2.42604170307874
C           -7.45103548819790        1.73099281609804       -3.45296203646312
C           -6.47860586935188        0.75773437219002       -3.27981352008412
C           -5.77869991391731        0.67147799287269       -2.09220818812896
C           -6.00003835337025        1.74524730969786        1.35484674743619
C           -5.35932191292695        2.44677796318982        2.37803380740676
C           -6.02274168996288        2.70512862594738        3.56169737172618
C           -7.32841873137983        2.27518656285970        3.74301053399115
C           -7.96940941457854        1.58041642483287        2.72873080661265
C           -7.31417888622333        1.31288369086030        1.54256734204344
C           -3.42712438747033        0.42340923167246        1.19498373966530
C           -2.08572374581152        0.10925173336195        1.19219917352647
C            5.61203097165946        2.74865666978457       -0.44323839492175
S            5.23744233841280        4.37935639812043       -0.92563616245694
C            6.92412750218943        4.76365152671392       -0.98536238684798
C            7.72608193481035        3.72343603706689       -0.66030873682545
C            6.99628953297452        2.54755998082827       -0.34280172600622
C            7.46475396869624        1.27051566581604        0.03972502005388
C            8.79605780187091        0.80780921015389        0.21109604119954
C            8.85264958071688       -0.49088371894135        0.58652361079652
S            7.29608459195847       -1.23024124769012        0.75523475266606
C            6.52384912411501        0.26444144983809        0.30375593144122
H            1.02836967038202       -2.97803939050087       -1.71114282442828
H            2.16197026661815       -4.97204531063336       -2.61026414250234
H            2.29507422851356       -7.03244636596375       -1.26184944313642
H            1.28882890285737       -7.10181092792879        0.99169952174776
H            0.14657993037338       -5.08622272331992        1.88734401349853
H           -3.05146689602451       -3.25960906640900        1.44165525046275
H           -5.13296273119054       -3.42166458108690        0.09171155162545
H           -5.10622256491374       -2.72730496970291       -2.27455481267702
H           -3.02937009885025       -1.85266036427462       -3.28334587808367
H           -0.97415932146269       -1.69205209969719       -1.93208479399525
H            2.37190260399444       -2.27845896588865        0.90680368896448
H            0.75684580546704        2.20430151184704       -0.36647369479933
H           -1.18245843727924        1.59868078768293       -1.70231240462181
H           -3.56583542487463        2.16734041969736       -1.70474639676334
H           -7.22353415051154        3.25279317933552       -0.44105962144396
H           -8.47065037721752        3.38804208361636       -2.55665860739233
H           -7.99600115358311        1.79416725392577       -4.38250765909055
H           -6.26913107841320        0.05687773251606       -4.07406976088981
H           -5.03107097374365       -0.09406960505396       -1.94781493037247
H           -4.34752314871811        2.79516840127247        2.23200768426544
H           -5.51952786603887        3.25333094291994        4.34421497370671
H           -7.84319347366891        2.48121608637890        4.66901994462351
H           -8.98411738729821        1.23751121438232        2.86561920282196
H           -7.80853135055283        0.75910867120688        0.75838128653153
H           -4.05530816776035        0.08792808414822        2.00624774892905
H           -1.66426926818868       -0.44495354916560        2.01815866274552
H            7.21368467807698        5.75790507514468       -1.26374906904121
H            8.79925720386928        3.77922295966872       -0.64322626428750
H            9.66349664031224        1.42376106116627        0.05881342815462
H            9.72491653454402       -1.08306761941291        0.78228526720867

          :  Hamiltonian                  GFN2-xTB          :
         :: gradient norm              0.000024257047 Eh/a0 ::
         :: HOMO-LUMO gap              1.098260078323 eV    ::
         :: SCC energy              -138.109247726232 Eh    ::
         :: -> dispersion             -0.133410507960 Eh    ::
         :: -> Gsolv                  -0.066610151456 Eh    ::
         :: repulsion energy           2.370810160214 Eh    ::

    * Orbital Energies and Occupations

         #    Occupation            Energy/Eh            Energy/eV
      -------------------------------------------------------------
         1        2.0000           -0.7307109             -19.8837
       ...           ...                  ...                  ...
       115        2.0000           -0.4159075             -11.3174
       116        2.0000           -0.4155136             -11.3067
       117        2.0000           -0.4146235             -11.2825
       118        2.0000           -0.4132706             -11.2457
       119        2.0000           -0.4118145             -11.2060
       120        2.0000           -0.4053015             -11.0288
       121        2.0000           -0.4027286             -10.9588
       122        2.0000           -0.3941031             -10.7241
       123        2.0000           -0.3853733             -10.4865
       124        2.0000           -0.3782408             -10.2925
       125        1.6900           -0.3634047              -9.8887
       126        1.3100           -0.3618842              -9.8474
       127        1.0000           -0.3118797              -8.4867 (HOMO)
       128                         -0.2715193              -7.3884 (LUMO)
       129                         -0.2597135              -7.0672
       130                         -0.2519951              -6.8571
       131                         -0.2427317              -6.6051
       132                         -0.2409326              -6.5561
       133                         -0.2389873              -6.5032
       134                         -0.2365150              -6.4359
       135                         -0.2361880              -6.4270
       136                         -0.2334868              -6.3535
       137                         -0.2322862              -6.3208
       138                         -0.2298410              -6.2543
       ...                                ...                  ...
       257                          1.2081278              32.8748
      -------------------------------------------------------------
                  HL-Gap            0.0403604 Eh            1.0983 eV

     #   Z          covCN         q      C6AA      α(0)
     1   8 O        0.808    -0.400    21.695     6.244
     2  15 P        4.085     0.036   158.638    22.625
     3   6 C        2.920     0.011    27.781     8.643
     4   6 C        2.972    -0.025    28.612     8.774
     5   6 C        2.919    -0.027    28.673     8.781
     6   6 C        2.920    -0.024    28.608     8.771
     7   6 C        2.918    -0.027    28.681     8.782
     8   6 C        3.025    -0.020    28.484     8.754
     9   6 C        2.921     0.015    27.688     8.629
    10   6 C        3.027    -0.021    28.491     8.755
    11   6 C        2.919    -0.028    28.691     8.784
    12   6 C        2.921    -0.026    28.645     8.777
    13   6 C        2.920    -0.028    28.693     8.784
    14   6 C        2.975    -0.025    28.622     8.776
    15   6 C        2.917     0.003    27.966     8.672
    16   6 C        3.052    -0.051    29.210     8.864
    17   6 C        2.941     0.089    26.016     8.365
    18   7 N        1.847    -0.250    27.366     7.753
    19   6 C        2.963     0.083    26.155     8.389
    20   6 C        2.963     0.082    26.175     8.392
    21   7 N        1.848    -0.247    27.297     7.743
    22   6 C        2.940     0.090    26.002     8.363
    23   6 C        2.926    -0.067    29.660     8.931
    24   6 C        3.010     0.005    27.895     8.664
    25   6 C        2.978     0.012    27.738     8.639
    26   6 C        2.922    -0.031    28.774     8.797
    27   6 C        2.920    -0.043    29.076     8.843
    28   6 C        2.924     0.064    26.560     8.451
    29   7 N        2.753    -0.038    21.968     6.961
    30   6 C        2.926     0.063    26.582     8.455
    31   6 C        2.921    -0.041    29.022     8.834
    32   6 C        2.919    -0.026    28.644     8.777
    33   6 C        2.919    -0.030    28.757     8.794
    34   6 C        2.919    -0.025    28.634     8.775
    35   6 C        2.921    -0.043    29.061     8.840
    36   6 C        2.925     0.064    26.573     8.454
    37   6 C        2.921    -0.041    29.019     8.834
    38   6 C        2.919    -0.025    28.638     8.776
    39   6 C        2.919    -0.030    28.749     8.793
    40   6 C        2.919    -0.026    28.644     8.777
    41   6 C        2.921    -0.041    29.021     8.834
    42   6 C        2.920    -0.042    29.034     8.836
    43   6 C        2.925    -0.026    28.651     8.778
    44   6 C        3.006    -0.002    28.060     8.689
    45  16 S        2.257    -0.044   142.889    20.119
    46   6 C        2.938    -0.015    28.378     8.737
    47   6 C        3.074    -0.047    29.090     8.843
    48   6 C        3.142    -0.013    28.089     8.673
    49   6 C        3.141    -0.013    28.083     8.672
    50   6 C        3.072    -0.047    29.092     8.844
    51   6 C        2.938    -0.014    28.356     8.733
    52  16 S        2.254    -0.049   143.094    20.133
    53   6 C        3.006    -0.001    28.044     8.687
    54   1 H        0.926     0.038     2.477     2.461
    55   1 H        0.926     0.044     2.393     2.419
    56   1 H        0.926     0.047     2.362     2.403
    57   1 H        0.926     0.044     2.394     2.420
    58   1 H        0.925     0.049     2.334     2.389
    59   1 H        0.925     0.049     2.334     2.389
    60   1 H        0.926     0.046     2.366     2.405
    61   1 H        0.926     0.051     2.311     2.377
    62   1 H        0.926     0.047     2.351     2.398
    63   1 H        0.926     0.039     2.466     2.456
    64   1 H        0.925     0.043     2.403     2.424
    65   1 H        0.926     0.054     2.274     2.358
    66   1 H        0.926     0.048     2.351     2.398
    67   1 H        0.926     0.051     2.310     2.377
    68   1 H        0.926     0.043     2.409     2.427
    69   1 H        0.926     0.044     2.390     2.418
    70   1 H        0.926     0.043     2.406     2.425
    71   1 H        0.926     0.045     2.388     2.416
    72   1 H        0.926     0.044     2.400     2.422
    73   1 H        0.926     0.041     2.439     2.442
    74   1 H        0.926     0.043     2.407     2.426
    75   1 H        0.926     0.043     2.407     2.426
    76   1 H        0.926     0.045     2.378     2.412
    77   1 H        0.926     0.045     2.388     2.417
    78   1 H        0.926     0.045     2.379     2.412
    79   1 H        0.926     0.055     2.261     2.351
    80   1 H        0.926     0.057     2.231     2.336
    81   1 H        0.926     0.050     2.317     2.380
    82   1 H        0.926     0.051     2.306     2.375
    83   1 H        0.926     0.057     2.232     2.336

molecular dipole:
                 x           y           z       tot (Debye)
 q only:       -4.422       0.955      -1.962
   full:       -4.038       0.909      -1.995      11.679

 projected vibrational frequencies (cm⁻¹)
eigval :       -0.00    -0.00    -0.00     0.00     0.00     0.00
eigval :       11.24    13.28    15.86    20.91    23.50    29.18
eigval :       33.63    43.78    47.68    53.57    58.56    63.02
eigval :       67.13    69.19    77.45    84.01    87.29    94.83
eigval :      111.35   117.95   124.22   140.75   141.73   157.72
eigval :      164.09   177.54   190.83   195.24   213.86   219.76
eigval :      233.13   233.93   238.38   258.63   272.24   286.21
eigval :      299.89   305.91   326.17   331.65   334.55   352.79
eigval :      362.49   366.37   369.85   374.72   376.35   378.13
eigval :      384.60   388.28   403.15   410.35   427.41   432.62
eigval :      436.20   446.85   454.26   475.90   483.09   492.19
eigval :      492.76   507.23   511.07   524.57   560.07   569.47
eigval :      571.21   582.77   584.38   584.76   586.27   587.29
eigval :      590.66   600.39   604.85   615.91   631.22   649.87
eigval :      654.10   657.29   659.43   661.45   665.57   676.79
eigval :      679.47   683.16   688.91   699.70   708.59   729.76
eigval :      738.41   747.19   748.61   753.94   755.13   759.47
eigval :      759.63   798.49   804.97   816.59   819.48   822.31
eigval :      826.04   832.00   838.03   865.57   868.14   870.61
eigval :      872.00   872.68   881.71   895.13   897.31   900.22
eigval :      907.15   908.34   909.82   917.37   922.11   924.86
eigval :      927.10   927.99   929.60   930.93   931.86   932.45
eigval :      935.72   948.11   955.84   972.90   973.55   987.01
eigval :     1002.63  1017.00  1021.70  1068.23  1074.70  1078.16
eigval :     1079.60  1081.92  1088.30  1096.91  1108.74  1116.53
eigval :     1120.31  1122.20  1122.67  1123.88  1135.21  1141.53
eigval :     1175.47  1176.35  1176.69  1179.28  1180.69  1186.20
eigval :     1189.43  1191.01  1193.22  1193.80  1207.22  1209.47
eigval :     1213.15  1229.13  1238.88  1256.57  1264.67  1265.95
eigval :     1269.30  1272.74  1273.93  1277.51  1280.25  1296.51
eigval :     1307.32  1313.09  1316.92  1320.21  1322.15  1323.31
eigval :     1326.52  1345.46  1372.45  1381.56  1393.59  1397.31
eigval :     1410.88  1421.40  1423.62  1431.17  1437.52  1450.95
eigval :     1453.60  1457.27  1458.06  1467.44  1476.27  1489.55
eigval :     1494.25  1499.43  1519.51  1526.96  1541.53  1543.20
eigval :     1567.43  1570.51  1578.19  1579.81  1581.27  1582.75
eigval :     1585.35  1586.52  1590.36  3057.37  3067.17  3068.93
eigval :     3069.87  3073.22  3076.74  3078.08  3079.51  3079.85
eigval :     3080.72  3081.75  3082.27  3082.97  3084.15  3085.61
eigval :     3088.80  3089.24  3089.82  3091.71  3092.13  3092.44
eigval :     3094.44  3095.59  3097.14  3099.59  3099.95  3131.91
eigval :     3135.17  3156.95  3157.97

   temp. (K)  partition function   enthalpy   heat capacity  entropy
                                   cal/mol     cal/K/mol   cal/K/mol   J/K/mol
 298.15  VIB  0.406E+21            26010.104    160.861    163.212
         ROT  0.136E+09              888.752      2.981     40.197
         INT  0.552E+29            26898.857    163.841    203.408
         TR   0.193E+29             1481.254      4.968     45.647
         TOT                       28380.1105   168.8096   249.0549  1042.0458

       T/K    H(0)-H(T)+PV         H(T)/Eh          T*S/Eh         G(T)/Eh
   ------------------------------------------------------------------------
    298.15    0.452266E-01    0.654623E+00    0.118334E+00    0.536289E+00
   ------------------------------------------------------------------------

         :::::::::::::::::::::::::::::::::::::::::::::::::::::
         ::                  THERMODYNAMIC                  ::
         :::::::::::::::::::::::::::::::::::::::::::::::::::::
         :: total free energy        -135.202148533540 Eh   ::
         ::.................................................::
         :: total energy             -135.738437567846 Eh   ::
         :: zero point energy           0.609396484642 Eh   ::
         :: G(RRHO) w/o ZPVE           -0.073107450336 Eh   ::
         :: G(RRHO) contrib.            0.536289034306 Eh   ::
         :::::::::::::::::::::::::::::::::::::::::::::::::::::

           -------------------------------------------------
          | TOTAL ENERGY             -135.738437567846 Eh   |
          | TOTAL ENTHALPY           -135.083814498329 Eh   |
          | TOTAL FREE ENERGY        -135.202148533540 Eh   |
          | GRADIENT NORM               0.000024398632 Eh/α |
          | HOMO-LUMO GAP               1.098261416091 eV   |
           -------------------------------------------------

 * finished run on 2025/09/11 at 09:48:34.660
