   * xtb version 6.7.1 (edcfbbe) compiled by 'albert@albert-system' on 2024-07-22

   ID    Z sym.   atoms
    1    8 O      1
    2   15 P      2
    3    6 C      3-17, 19, 20, 22-28, 30-44, 46-51, 53
    4    7 N      18, 21, 29
    5   16 S      45, 52
    6    1 H      54-83

          program call               : xtb data2507/toluene/oTPAPO-DTPZ/oTPAPO-DTPZ.xyz --gfn 2 --gbsa toluene --ohess vtight --parallel 40 --molden --ceasefiles --namespace data2507/toluene/oTPAPO-DTPZ/oTPAPO-DTPZ_toluene_S0_preOpt
      * Solvation model:               GBSA
        Solvent                        toluene
        Solvent mass                       9.2140E+01 g/mol
          :  Hamiltonian                  GFN2-xTB          :
 * total energy  :  -135.7533366 Eh     change       -0.1384223E-08 Eh
 * total energy  :  -135.7717727 Eh     change       -0.1843612E-01 Eh
 * total energy  :  -135.7785832 Eh     change       -0.6810532E-02 Eh
 * total energy  :  -135.7802289 Eh     change       -0.1645704E-02 Eh
 * total energy  :  -135.7813651 Eh     change       -0.1136212E-02 Eh
 * total energy  :  -135.7818102 Eh     change       -0.4450969E-03 Eh
 * total energy  :  -135.7820476 Eh     change       -0.2373806E-03 Eh
 * total energy  :  -135.7822356 Eh     change       -0.1879623E-03 Eh
 * total energy  :  -135.7823955 Eh     change       -0.1598878E-03 Eh
 * total energy  :  -135.7825274 Eh     change       -0.1319608E-03 Eh
 * total energy  :  -135.7840902 Eh     change       -0.2702638E-06 Eh
 * total energy  :  -135.7840904 Eh     change       -0.2071863E-06 Eh
 * total energy  :  -135.7840906 Eh     change       -0.2198009E-06 Eh
 * total energy  :  -135.7840908 Eh     change       -0.2274418E-06 Eh
 * total energy  :  -135.7840911 Eh     change       -0.2324326E-06 Eh
 * total energy  :  -135.7840913 Eh     change       -0.2176331E-06 Eh
 * total energy  :  -135.7840915 Eh     change       -0.2264998E-06 Eh
 * total energy  :  -135.7840918 Eh     change       -0.2651942E-06 Eh
 * total energy  :  -135.7840918 Eh     change       -0.1853067E-08 Eh
   *** GEOMETRY OPTIMIZATION CONVERGED AFTER 94 ITERATIONS ***

 final structure:
================
83
 xtb: 6.7.1 (edcfbbe)
O            0.19678924938032       -2.82183625230960       -2.10188846838504
P            0.55028815146696       -2.48276153045690       -0.70971464401288
C           -0.85673122544943       -2.43468761598277        0.44213696429313
C           -0.78769770230664       -1.83674458593761        1.69356385974003
C           -1.86036010686376       -1.93363711872617        2.56002337654245
C           -2.99336322066401       -2.64129328383123        2.18945707583522
C           -3.05768392225910       -3.24941800839726        0.94615510946222
C           -1.99019257423496       -3.14400736921707        0.07171266773381
C            1.61968916428944       -3.75353894628615        0.04241538710755
C            1.83329163470436       -4.91503704304372       -0.68651897101630
C            2.60624289896476       -5.93512509653905       -0.15916566005101
C            3.16225196736597       -5.79561638686667        1.10161474123052
C            2.94516983632005       -4.63811520912369        1.83447728241653
C            2.17326549358694       -3.61833080992467        1.31025093522835
C            1.51892798909112       -0.93345989034274       -0.55373129369793
C            2.87315061084548       -1.08140706225578       -0.68614941977568
C            3.74002809182289        0.02242301098132       -0.55499933950976
N            5.06204444451389       -0.14453760523465       -0.68216862382639
C            5.83246837690822        0.91871100647487       -0.52968572073234
C            5.26543555328234        2.21606036078474       -0.23301352633582
N            3.96138823176874        2.38021972154792       -0.10112848262787
C            3.17745953835354        1.30285767463799       -0.25803608051720
C            1.78070833919789        1.43019518085264       -0.15152151720308
C            0.94789142219744        0.34776471443685       -0.31942375069890
C           -0.50397706678950        0.53640476669514       -0.28695199826021
C           -1.30979435716757       -0.00963321091567       -1.28492301064725
C           -2.66832956118792        0.22119281847941       -1.30310725063938
C           -3.27497441255764        0.99000047056952       -0.30585149702010
N           -4.64196273133961        1.23812577439532       -0.31895779260624
C           -5.54525159945781        0.31958241064115       -0.87333678857946
C           -6.65844103481171        0.77201424041614       -1.58149947378188
C           -7.56107635641186       -0.13069694930873       -2.11056044467544
C           -7.36542348280605       -1.49306158246375       -1.95166156387248
C           -6.25784633531108       -1.94669059468852       -1.25356641784906
C           -5.35524088666900       -1.05197560367278       -0.71117128970522
C           -5.14483463052731        2.43941727434134        0.21286366302605
C           -4.50897255575059        3.65201741307583       -0.04828063385179
C           -5.01298782678186        4.82734970905303        0.47594909555572
C           -6.15666984264902        4.81248404448426        1.25826424101534
C           -6.79572970673756        3.60999268229061        1.51438264895108
C           -6.29511066504619        2.42894653421249        0.99979796251681
C           -2.46811120970845        1.52303460424414        0.70511636568727
C           -1.10763865407352        1.31376279848015        0.70149593706522
C            6.15494973896855        3.30939323255851       -0.08315448314151
S            5.67968014630979        4.93673376135715        0.26955207545942
C            7.32933569226175        5.43725694915551        0.25312990292625
C            8.19764406242883        4.42795899284939       -0.00550900724172
C            7.53785814102968        3.18907205492574       -0.20296164900188
C            8.09680628836133        1.90822896588685       -0.49212299676455
C            9.45669003738362        1.54261838530539       -0.65529679327160
C            9.60504334541922        0.22147769322898       -0.92285802446899
S            8.11113778169944       -0.63822576596979       -0.98918174417219
C            7.24144566517493        0.81935508535803       -0.64612308686755
H            0.09546824687131       -1.28420122462412        1.97930021677106
H           -1.81218896746476       -1.45867329440143        3.52878968866522
H           -3.82753962459403       -2.71834444869881        2.87105046962278
H           -3.93588410314653       -3.80996338356835        0.66142362615210
H           -2.01995578657497       -3.59957895486937       -0.90866529178176
H            1.39201759805061       -4.99693799023206       -1.67033259449992
H            2.77429369782552       -6.83552280180197       -0.73160311771650
H            3.76701010391770       -6.58895619991999        1.51538269694211
H            3.38021279698057       -4.53081762018416        2.81733389093733
H            2.00854182262882       -2.71301720902105        1.87574832409626
H            3.30933317260555       -2.05182881008780       -0.88138084249036
H            1.37659395060758        2.41435405872007        0.03231705616038
H           -0.85701593527868       -0.57848338733095       -2.08359644355657
H           -3.26692799174197       -0.18293155248682       -2.10562365109902
H           -6.80907163048050        1.83341077986673       -1.71497752588726
H           -8.41868081343486        0.23297553947103       -2.65761419721574
H           -8.07015855169774       -2.19605862910439       -2.36982265403055
H           -6.09978201972676       -3.00730285619456       -1.12361696466319
H           -4.49783962461848       -1.40718150545399       -0.15890416257127
H           -3.62251581740223        3.66431279199890       -0.66581610748354
H           -4.51330653725855        5.76158296416277        0.26500020376844
H           -6.54865419392543        5.73301958492441        1.66389260144604
H           -7.68636624695656        3.58977709206282        2.12532803238587
H           -6.79015201125847        1.49043854160049        1.20273085926901
H           -2.92003778350356        2.10511850660197        1.49428570098873
H           -0.50214224882789        1.73104474670842        1.49277582068211
H            7.55906461097119        6.46799477509674        0.43958877580347
H            9.26343675030240        4.55282831146964       -0.05581904052797
H           10.27533388377195        2.23364686611730       -0.57609958941931
H           10.51823102782260       -0.31551750103122       -1.08921262770566

          :  Hamiltonian                  GFN2-xTB          :
         :: gradient norm              0.000036593514 Eh/a0 ::
         :: HOMO-LUMO gap              0.951349624440 eV    ::
         :: SCC energy              -138.152819134275 Eh    ::
         :: -> dispersion             -0.133663867825 Eh    ::
         :: -> Gsolv                  -0.062666267605 Eh    ::
         :: repulsion energy           2.368727341293 Eh    ::

    * Orbital Energies and Occupations

         #    Occupation            Energy/Eh            Energy/eV
      -------------------------------------------------------------
         1        2.0000           -0.7406904             -20.1552
       ...           ...                  ...                  ...
       114        2.0000           -0.4163900             -11.3305
       115        2.0000           -0.4133629             -11.2482
       116        2.0000           -0.4106244             -11.1737
       117        2.0000           -0.4097908             -11.1510
       118        2.0000           -0.4079622             -11.1012
       119        2.0000           -0.4066946             -11.0667
       120        2.0000           -0.4057260             -11.0404
       121        2.0000           -0.4054460             -11.0327
       122        2.0000           -0.4011868             -10.9168
       123        2.0000           -0.3934923             -10.7075
       124        2.0000           -0.3887016             -10.5771
       125        2.0000           -0.3650463              -9.9334
       126        2.0000           -0.3528125              -9.6005 (HOMO)
       127                         -0.3178510              -8.6492 (LUMO)
       128                         -0.2783417              -7.5741
       129                         -0.2604078              -7.0861
       130                         -0.2514343              -6.8419
       131                         -0.2483838              -6.7589
       132                         -0.2395291              -6.5179
       133                         -0.2374065              -6.4602
       134                         -0.2348419              -6.3904
       135                         -0.2323966              -6.3238
       136                         -0.2290611              -6.2331
       137                         -0.2266607              -6.1678
       ...                                ...                  ...
       257                          1.2059132              32.8146
      -------------------------------------------------------------
                  HL-Gap            0.0349615 Eh            0.9513 eV

     #   Z          covCN         q      C6AA      α(0)
     1   8 O        0.808    -0.395    21.605     6.231
     2  15 P        4.085     0.049   158.044    22.583
     3   6 C        2.921     0.014    27.693     8.630
     4   6 C        2.976    -0.023    28.583     8.770
     5   6 C        2.920    -0.026    28.660     8.779
     6   6 C        2.920    -0.024    28.612     8.772
     7   6 C        2.919    -0.026    28.652     8.778
     8   6 C        3.031    -0.020    28.478     8.753
     9   6 C        2.920     0.008    27.834     8.652
    10   6 C        3.023    -0.020    28.474     8.753
    11   6 C        2.918    -0.026    28.663     8.779
    12   6 C        2.920    -0.023    28.587     8.768
    13   6 C        2.919    -0.026    28.657     8.779
    14   6 C        2.974    -0.025    28.632     8.777
    15   6 C        2.916     0.011    27.765     8.641
    16   6 C        3.050    -0.036    28.838     8.807
    17   6 C        2.967     0.084    26.116     8.382
    18   7 N        1.847    -0.265    27.748     7.807
    19   6 C        2.982     0.085    26.106     8.381
    20   6 C        2.981     0.086    26.083     8.377
    21   7 N        1.847    -0.265    27.736     7.805
    22   6 C        2.964     0.085    26.108     8.381
    23   6 C        2.925    -0.054    29.339     8.883
    24   6 C        3.006     0.016    27.634     8.623
    25   6 C        2.979    -0.001    28.036     8.685
    26   6 C        2.925    -0.027    28.688     8.784
    27   6 C        2.921    -0.048    29.197     8.861
    28   6 C        2.921     0.068    26.477     8.438
    29   7 N        2.752    -0.072    22.632     7.066
    30   6 C        2.924     0.064    26.563     8.452
    31   6 C        2.922    -0.047    29.163     8.856
    32   6 C        2.919    -0.030    28.739     8.791
    33   6 C        2.919    -0.038    28.942     8.822
    34   6 C        2.920    -0.029    28.721     8.788
    35   6 C        2.922    -0.048    29.185     8.859
    36   6 C        2.926     0.064    26.557     8.451
    37   6 C        2.922    -0.045    29.123     8.850
    38   6 C        2.919    -0.029    28.725     8.789
    39   6 C        2.919    -0.036    28.905     8.816
    40   6 C        2.919    -0.029    28.724     8.789
    41   6 C        2.922    -0.045    29.113     8.848
    42   6 C        2.921    -0.050    29.242     8.868
    43   6 C        2.923    -0.033    28.820     8.804
    44   6 C        3.009    -0.003    28.083     8.693
    45  16 S        2.269     0.009   140.687    19.963
    46   6 C        2.942    -0.014    28.368     8.735
    47   6 C        3.081    -0.046    29.053     8.836
    48   6 C        3.154    -0.004    27.829     8.627
    49   6 C        3.154    -0.005    27.845     8.629
    50   6 C        3.080    -0.046    29.054     8.837
    51   6 C        2.942    -0.014    28.362     8.735
    52  16 S        2.268     0.004   140.875    19.976
    53   6 C        3.008    -0.002    28.060     8.689
    54   1 H        0.926     0.038     2.477     2.461
    55   1 H        0.926     0.047     2.355     2.400
    56   1 H        0.926     0.049     2.330     2.387
    57   1 H        0.926     0.048     2.348     2.396
    58   1 H        0.925     0.049     2.334     2.389
    59   1 H        0.925     0.051     2.310     2.377
    60   1 H        0.926     0.046     2.370     2.407
    61   1 H        0.926     0.049     2.338     2.391
    62   1 H        0.926     0.046     2.372     2.408
    63   1 H        0.926     0.039     2.466     2.456
    64   1 H        0.925     0.053     2.282     2.362
    65   1 H        0.926     0.060     2.203     2.321
    66   1 H        0.926     0.048     2.347     2.396
    67   1 H        0.926     0.037     2.483     2.464
    68   1 H        0.926     0.033     2.544     2.494
    69   1 H        0.926     0.035     2.511     2.478
    70   1 H        0.926     0.034     2.530     2.487
    71   1 H        0.926     0.034     2.529     2.487
    72   1 H        0.926     0.033     2.540     2.492
    73   1 H        0.926     0.034     2.536     2.490
    74   1 H        0.926     0.037     2.492     2.468
    75   1 H        0.926     0.036     2.503     2.474
    76   1 H        0.926     0.037     2.484     2.465
    77   1 H        0.926     0.035     2.514     2.480
    78   1 H        0.926     0.041     2.429     2.437
    79   1 H        0.926     0.040     2.447     2.446
    80   1 H        0.926     0.068     2.103     2.268
    81   1 H        0.926     0.061     2.188     2.313
    82   1 H        0.926     0.061     2.185     2.312
    83   1 H        0.926     0.068     2.108     2.270

molecular dipole:
                 x           y           z       tot (Debye)
 q only:        0.161       0.848       1.957
   full:        0.386       0.837       1.996       5.589

 projected vibrational frequencies (cm⁻¹)
eigval :       -0.00    -0.00    -0.00     0.00     0.00     0.00
eigval :       10.94    11.80    12.41    19.91    23.96    27.25
eigval :       34.15    43.71    48.62    52.26    58.61    60.43
eigval :       65.34    73.69    78.51    81.25    84.89    90.96
eigval :      108.38   116.13   126.16   134.47   141.44   157.01
eigval :      158.35   177.33   188.72   201.11   219.62   226.11
eigval :      232.03   235.24   240.22   271.99   276.85   288.41
eigval :      303.56   305.00   334.63   335.14   342.05   353.78
eigval :      358.88   371.22   372.46   375.58   380.16   382.34
eigval :      389.69   392.68   404.46   413.71   421.15   438.19
eigval :      445.70   448.57   455.12   475.52   487.31   490.75
eigval :      496.62   502.42   510.64   526.85   561.65   578.32
eigval :      583.07   584.37   585.65   586.02   588.13   594.36
eigval :      600.39   603.47   605.94   632.81   648.40   653.81
eigval :      654.74   661.00   661.65   667.99   683.59   688.46
eigval :      690.96   699.60   705.21   712.10   732.92   738.90
eigval :      746.06   755.10   758.11   758.64   761.53   764.53
eigval :      768.28   813.32   816.30   825.31   832.18   840.35
eigval :      841.18   848.71   868.23   872.73   874.71   875.90
eigval :      876.35   879.57   895.09   896.56   898.41   903.36
eigval :      904.72   909.22   911.50   919.05   924.71   926.61
eigval :      927.55   928.56   929.97   930.74   932.85   933.77
eigval :      934.71   954.74   959.26   972.77   973.91   989.06
eigval :     1004.85  1019.30  1022.74  1066.11  1075.07  1078.65
eigval :     1080.08  1084.06  1085.72  1095.39  1108.33  1115.78
eigval :     1118.51  1122.39  1122.88  1123.71  1137.65  1143.14
eigval :     1174.78  1178.20  1178.54  1179.04  1184.17  1186.89
eigval :     1191.96  1193.35  1194.61  1195.84  1207.80  1210.71
eigval :     1218.40  1233.19  1253.14  1265.31  1268.79  1271.98
eigval :     1273.94  1275.88  1279.85  1281.99  1303.30  1313.97
eigval :     1319.29  1320.66  1322.39  1323.80  1326.67  1330.77
eigval :     1339.46  1367.56  1402.07  1406.94  1413.69  1416.71
eigval :     1420.79  1422.83  1434.13  1440.00  1450.72  1453.14
eigval :     1458.76  1464.35  1468.10  1471.55  1476.73  1488.34
eigval :     1493.77  1507.96  1518.96  1535.89  1549.67  1574.78
eigval :     1576.88  1580.74  1581.31  1582.86  1584.92  1586.08
eigval :     1590.45  1591.76  1599.05  3062.21  3066.44  3068.96
eigval :     3070.37  3073.18  3073.36  3074.52  3074.70  3075.80
eigval :     3077.42  3078.92  3079.46  3083.07  3084.32  3084.48
eigval :     3085.03  3085.46  3086.19  3090.12  3091.96  3092.73
eigval :     3093.56  3094.56  3095.18  3095.59  3096.59  3139.29
eigval :     3142.86  3160.34  3161.11

   temp. (K)  partition function   enthalpy   heat capacity  entropy
                                   cal/mol     cal/K/mol   cal/K/mol   J/K/mol
 298.15  VIB  0.608E+21            25858.276    159.596    162.918
         ROT  0.136E+09              888.752      2.981     40.191
         INT  0.824E+29            26747.029    162.576    203.110
         TR   0.193E+29             1481.254      4.968     45.647
         TOT                       28228.2824   167.5446   248.7561  1040.7957

       T/K    H(0)-H(T)+PV         H(T)/Eh          T*S/Eh         G(T)/Eh
   ------------------------------------------------------------------------
    298.15    0.449846E-01    0.656633E+00    0.118192E+00    0.538441E+00
   ------------------------------------------------------------------------

         :::::::::::::::::::::::::::::::::::::::::::::::::::::
         ::                  THERMODYNAMIC                  ::
         :::::::::::::::::::::::::::::::::::::::::::::::::::::
         :: total free energy        -135.245651264408 Eh   ::
         ::.................................................::
         :: total energy             -135.784091791644 Eh   ::
         :: zero point energy           0.611647963230 Eh   ::
         :: G(RRHO) w/o ZPVE           -0.073207435994 Eh   ::
         :: G(RRHO) contrib.            0.538440527235 Eh   ::
         :::::::::::::::::::::::::::::::::::::::::::::::::::::

           -------------------------------------------------
          | TOTAL ENERGY             -135.784091791644 Eh   |
          | TOTAL ENTHALPY           -135.127459196970 Eh   |
          | TOTAL FREE ENERGY        -135.245651264408 Eh   |
          | GRADIENT NORM               0.000036595540 Eh/α |
          | HOMO-LUMO GAP               0.951349513654 eV   |
           -------------------------------------------------

 * finished run on 2025/09/11 at 09:33:59.337
