   * xtb version 6.7.1 (edcfbbe) compiled by 'albert@albert-system' on 2024-07-22

   ID    Z sym.   atoms
    1    8 O      1
    2   15 P      2
    3    6 C      3-17, 19, 20, 22-28, 30-44, 46-51, 53
    4    7 N      18, 21, 29
    5   16 S      45, 52
    6    1 H      54-83

          program call               : xtb data2507/toluene/oTPAPO-DTPZ/oTPAPO-DTPZ_toluene_T1_crest.xyz --gfn 2 --uhf 2 --gbsa toluene --ohess vtight --parallel 40 --molden --ceasefiles --namespace data2507/toluene/oTPAPO-DTPZ/oTPAPO-DTPZ_toluene_T1_finalOpt
      * Solvation model:               GBSA
        Solvent                        toluene
        Solvent mass                       9.2140E+01 g/mol
          :  Hamiltonian                  GFN2-xTB          :
 * total energy  :  -135.7379531 Eh     change       -0.3566990E-07 Eh
 * total energy  :  -135.7381666 Eh     change       -0.2134849E-03 Eh
 * total energy  :  -135.7382880 Eh     change       -0.1213768E-03 Eh
 * total energy  :  -135.7383093 Eh     change       -0.2130810E-04 Eh
 * total energy  :  -135.7383350 Eh     change       -0.2570074E-04 Eh
 * total energy  :  -135.7383498 Eh     change       -0.1477042E-04 Eh
 * total energy  :  -135.7383660 Eh     change       -0.1623014E-04 Eh
 * total energy  :  -135.7383757 Eh     change       -0.9737188E-05 Eh
 * total energy  :  -135.7383823 Eh     change       -0.6559768E-05 Eh
 * total energy  :  -135.7383800 Eh     change        0.2347885E-05 Eh
 * total energy  :  -135.7384336 Eh     change       -0.1118427E-05 Eh
 * total energy  :  -135.7384341 Eh     change       -0.4678143E-06 Eh
 * total energy  :  -135.7384356 Eh     change       -0.1488677E-05 Eh
 * total energy  :  -135.7384359 Eh     change       -0.2865010E-06 Eh
 * total energy  :  -135.7384362 Eh     change       -0.2987700E-06 Eh
 * total energy  :  -135.7384367 Eh     change       -0.5722893E-06 Eh
 * total energy  :  -135.7384372 Eh     change       -0.5062370E-06 Eh
 * total energy  :  -135.7384375 Eh     change       -0.2443807E-06 Eh
 * total energy  :  -135.7384376 Eh     change       -0.9032135E-07 Eh
   *** GEOMETRY OPTIMIZATION CONVERGED AFTER 29 ITERATIONS ***

 final structure:
================
83
 xtb: 6.7.1 (edcfbbe)
O           -0.70600194684255       -2.77446309085183        2.22879151657686
P           -0.41376946682000       -2.52572968883899        0.80221866581428
C            0.50437395168463       -3.91223967348352        0.05235735623253
C            1.08102287498525       -3.84727138887458       -1.21047013673304
C            1.72521000532207       -4.95489920942795       -1.72938000509670
C            1.79139847187037       -6.13043230973368       -0.99639835279747
C            1.21460992930249       -6.19880120448621        0.26093803531396
C            0.56969787815454       -5.09072782532662        0.78247188738654
C           -1.89796944596057       -2.44507513774564       -0.25078324330758
C           -3.07773015174498       -2.94100463494955        0.28551595039645
C           -4.22207916529782       -3.00013167196862       -0.48937099456412
C           -4.18380213295004       -2.57142425069032       -1.80617343960568
C           -3.00520996686232       -2.07519846822423       -2.34334976416543
C           -1.86093949490630       -2.01405825545581       -1.57016863248588
C            0.64026941455663       -1.06431542564875        0.50886302085610
C            2.00235959955524       -1.30586795308012        0.61278563855421
C            2.94617425182315       -0.30497269101466        0.39434994080847
N            4.25684313113989       -0.52474960856678        0.48904079015736
C            5.13689553103484        0.44197560515884        0.26292252643314
C            4.66331658874483        1.76200643009044       -0.09244426947306
N            3.35876338312834        1.98169417584869       -0.19141998152848
C            2.47198763366767        1.01296361789080        0.03631750856787
C            1.09914578949589        1.23006582083519       -0.04493639123328
C            0.17242432521324        0.22125043316319        0.20307768356536
C           -1.25681090229592        0.53590995358494        0.17361273765187
C           -1.80235828847445        1.31964169387493       -0.84471813775827
C           -3.14396190138620        1.62729028720997       -0.85949399096125
C           -3.98781322053042        1.16744107601155        0.15730677561657
N           -5.34453758909246        1.47945188964126        0.14748183275354
C           -6.03218808347115        1.60384190326788       -1.06484648916751
C           -7.02269794541546        2.57602682924783       -1.21828030064556
C           -7.69805393632290        2.69305125456747       -2.41766320732871
C           -7.39780201882485        1.85115022373514       -3.47761009519372
C           -6.41479096875784        0.88448304557785       -3.32902547888053
C           -5.73527852419620        0.75576095138987       -2.13350403064309
C           -6.03088434369145        1.68116114207984        1.35156413666363
C           -5.42145752277340        2.35859018478302        2.40925233486671
C           -6.10964942712053        2.56149027199795        3.58962943571338
C           -7.40864574924604        2.09839369000585        3.73347187184715
C           -8.01801929904616        1.42610987432917        2.68513863293754
C           -7.33814690447486        1.21498662085165        1.50144380886255
C           -3.44110277082678        0.39779772817260        1.18826068559846
C           -2.09850080601159        0.08873596904898        1.19248207598489
C            5.62156456569945        2.75758939031091       -0.32266908857263
S            5.25482202092056        4.40382382909662       -0.75601158233131
C            6.94339452349130        4.78100573976559       -0.80678430316809
C            7.74036616731257        3.72733355625215       -0.51447492563369
C            7.00491551191778        2.54635557125864       -0.23084949157284
C            7.46744795868939        1.25571899581695        0.11109924283316
C            8.79673354074052        0.78031704037841        0.26251248284904
C            8.84717697972339       -0.52977896437032        0.59700613141495
S            7.28701128853744       -1.26517074527935        0.74885161247249
C            6.52178265150680        0.24704166021924        0.34645053244226
H            1.04038886977398       -2.92706448025344       -1.77471891235701
H            2.17992773912037       -4.90154964622128       -2.70783434577797
H            2.29675678159067       -6.99260201538896       -1.40604913770503
H            1.26746480742212       -7.11225449791016        0.83510472796345
H            0.11907769544418       -5.11604385008469        1.76521761086251
H           -3.07894984306395       -3.26900465216564        1.31590004688967
H           -5.13994619423257       -3.38471054359636       -0.06960412503002
H           -5.07358184229325       -2.62776141976314       -2.41598021815965
H           -2.97697382340825       -1.73753602451315       -3.36921397404585
H           -0.94284800517257       -1.62219774593154       -1.98241348186655
H            2.35925603167115       -2.29513992493298        0.86633522732723
H            0.76353755648536        2.23077567846770       -0.27103514300049
H           -1.16328182470277        1.67904920259747       -1.63742130452712
H           -3.54754157153714        2.24147501152898       -1.65038099892512
H           -7.24643087870401        3.24242876151722       -0.39852704195077
H           -8.45754823124746        3.45261492678730       -2.52844246029238
H           -7.92661474735313        1.94791190556664       -4.41355691086772
H           -6.18078752031631        0.22169011091311       -4.14868631223965
H           -4.98005114037910       -0.00573148506859       -2.00872341236035
H           -4.41496750881335        2.73242857419187        2.29218157023264
H           -5.63116811507135        3.09211763617607        4.39928717380482
H           -7.94263506976361        2.26083651234342        4.65729611549684
H           -9.02686924035959        1.05660476260476        2.79301821266578
H           -7.80753167205040        0.67966351876522        0.68957623551596
H           -4.07815265388056        0.03258323324258        1.97952299092279
H           -1.68587515038862       -0.49087624174282        2.00523438594063
H            7.23787998872625        5.78165804011107       -1.05555268275188
H            8.81383456085551        3.77704613974988       -0.49727192411609
H            9.66718582641185        1.39568366285491        0.12587231581024
H            9.71675451786066       -1.13273473218266        0.77063879481683

          :  Hamiltonian                  GFN2-xTB          :
         :: gradient norm              0.000095024132 Eh/a0 ::
         :: HOMO-LUMO gap              1.097737903295 eV    ::
         :: SCC energy              -138.109229532718 Eh    ::
         :: -> dispersion             -0.133453051073 Eh    ::
         :: -> Gsolv                  -0.066580001895 Eh    ::
         :: repulsion energy           2.370791965524 Eh    ::

    * Orbital Energies and Occupations

         #    Occupation            Energy/Eh            Energy/eV
      -------------------------------------------------------------
         1        2.0000           -0.7307057             -19.8835
       ...           ...                  ...                  ...
       115        2.0000           -0.4158833             -11.3168
       116        2.0000           -0.4155196             -11.3069
       117        2.0000           -0.4146261             -11.2826
       118        2.0000           -0.4132415             -11.2449
       119        2.0000           -0.4118125             -11.2060
       120        2.0000           -0.4052835             -11.0283
       121        2.0000           -0.4027408             -10.9591
       122        2.0000           -0.3941053             -10.7242
       123        2.0000           -0.3853676             -10.4864
       124        2.0000           -0.3782434             -10.2925
       125        1.6902           -0.3633855              -9.8882
       126        1.3098           -0.3618635              -9.8468
       127        1.0000           -0.3118610              -8.4862 (HOMO)
       128                         -0.2715199              -7.3884 (LUMO)
       129                         -0.2597065              -7.0670
       130                         -0.2519840              -6.8568
       131                         -0.2427357              -6.6052
       132                         -0.2409028              -6.5553
       133                         -0.2389599              -6.5024
       134                         -0.2365505              -6.4369
       135                         -0.2362122              -6.4277
       136                         -0.2334740              -6.3532
       137                         -0.2323223              -6.3218
       138                         -0.2297866              -6.2528
       ...                                ...                  ...
       257                          1.2079574              32.8702
      -------------------------------------------------------------
                  HL-Gap            0.0403410 Eh            1.0977 eV

     #   Z          covCN         q      C6AA      α(0)
     1   8 O        0.808    -0.400    21.698     6.244
     2  15 P        4.084     0.036   158.628    22.624
     3   6 C        2.920     0.011    27.781     8.643
     4   6 C        2.971    -0.025    28.612     8.774
     5   6 C        2.919    -0.027    28.673     8.781
     6   6 C        2.920    -0.024    28.608     8.771
     7   6 C        2.918    -0.027    28.681     8.782
     8   6 C        3.025    -0.020    28.484     8.754
     9   6 C        2.921     0.014    27.690     8.629
    10   6 C        3.027    -0.021    28.491     8.755
    11   6 C        2.919    -0.028    28.691     8.784
    12   6 C        2.921    -0.026    28.644     8.777
    13   6 C        2.920    -0.028    28.693     8.784
    14   6 C        2.975    -0.025    28.622     8.776
    15   6 C        2.917     0.003    27.967     8.672
    16   6 C        3.051    -0.051    29.213     8.864
    17   6 C        2.941     0.089    26.017     8.365
    18   7 N        1.847    -0.250    27.367     7.753
    19   6 C        2.963     0.083    26.155     8.389
    20   6 C        2.963     0.082    26.175     8.392
    21   7 N        1.848    -0.247    27.298     7.743
    22   6 C        2.940     0.090    26.002     8.363
    23   6 C        2.926    -0.067    29.659     8.931
    24   6 C        3.010     0.005    27.894     8.664
    25   6 C        2.978     0.012    27.740     8.639
    26   6 C        2.922    -0.031    28.775     8.797
    27   6 C        2.920    -0.043    29.079     8.843
    28   6 C        2.924     0.064    26.559     8.451
    29   7 N        2.753    -0.038    21.968     6.961
    30   6 C        2.926     0.063    26.581     8.455
    31   6 C        2.921    -0.041    29.023     8.835
    32   6 C        2.919    -0.026    28.644     8.777
    33   6 C        2.919    -0.030    28.757     8.794
    34   6 C        2.919    -0.025    28.635     8.775
    35   6 C        2.921    -0.043    29.063     8.841
    36   6 C        2.926     0.064    26.575     8.454
    37   6 C        2.921    -0.041    29.015     8.833
    38   6 C        2.919    -0.025    28.638     8.776
    39   6 C        2.919    -0.030    28.748     8.792
    40   6 C        2.919    -0.026    28.644     8.776
    41   6 C        2.921    -0.041    29.018     8.834
    42   6 C        2.920    -0.042    29.037     8.837
    43   6 C        2.925    -0.026    28.653     8.778
    44   6 C        3.006    -0.002    28.060     8.689
    45  16 S        2.256    -0.044   142.890    20.119
    46   6 C        2.938    -0.015    28.378     8.737
    47   6 C        3.074    -0.047    29.090     8.843
    48   6 C        3.142    -0.013    28.089     8.673
    49   6 C        3.141    -0.013    28.083     8.672
    50   6 C        3.072    -0.047    29.093     8.844
    51   6 C        2.938    -0.014    28.356     8.733
    52  16 S        2.254    -0.049   143.094    20.133
    53   6 C        3.006    -0.001    28.044     8.687
    54   1 H        0.926     0.038     2.476     2.461
    55   1 H        0.926     0.044     2.393     2.419
    56   1 H        0.926     0.047     2.362     2.403
    57   1 H        0.926     0.044     2.394     2.420
    58   1 H        0.925     0.049     2.332     2.388
    59   1 H        0.925     0.049     2.334     2.389
    60   1 H        0.926     0.046     2.366     2.405
    61   1 H        0.926     0.051     2.311     2.377
    62   1 H        0.926     0.047     2.352     2.398
    63   1 H        0.926     0.039     2.468     2.457
    64   1 H        0.925     0.043     2.403     2.424
    65   1 H        0.926     0.054     2.274     2.358
    66   1 H        0.926     0.047     2.352     2.398
    67   1 H        0.926     0.051     2.310     2.377
    68   1 H        0.926     0.043     2.410     2.427
    69   1 H        0.926     0.044     2.390     2.418
    70   1 H        0.926     0.043     2.406     2.426
    71   1 H        0.926     0.045     2.388     2.417
    72   1 H        0.926     0.044     2.399     2.422
    73   1 H        0.926     0.041     2.437     2.441
    74   1 H        0.926     0.043     2.405     2.425
    75   1 H        0.926     0.043     2.406     2.425
    76   1 H        0.926     0.045     2.377     2.411
    77   1 H        0.926     0.045     2.388     2.417
    78   1 H        0.926     0.045     2.381     2.413
    79   1 H        0.926     0.055     2.256     2.349
    80   1 H        0.926     0.057     2.231     2.336
    81   1 H        0.926     0.050     2.317     2.380
    82   1 H        0.926     0.051     2.306     2.375
    83   1 H        0.926     0.057     2.232     2.336

molecular dipole:
                 x           y           z       tot (Debye)
 q only:       -4.404       0.998      -1.974
   full:       -4.018       0.953      -2.006      11.670

 projected vibrational frequencies (cm⁻¹)
eigval :       -0.00    -0.00    -0.00     0.00     0.00     0.00
eigval :       12.20    14.00    18.61    22.05    24.27    29.58
eigval :       34.80    43.74    49.09    55.11    60.01    63.97
eigval :       67.42    69.81    77.88    84.34    87.01    94.21
eigval :      112.68   118.17   125.59   140.34   141.34   158.65
eigval :      163.92   177.53   191.43   195.06   214.41   219.62
eigval :      233.30   234.22   238.27   258.55   272.47   286.82
eigval :      299.89   305.77   326.28   332.00   334.68   352.68
eigval :      362.46   366.34   369.84   374.92   377.04   378.07
eigval :      384.66   388.55   402.98   410.33   427.40   432.45
eigval :      436.77   446.81   454.10   475.79   483.41   492.44
eigval :      493.21   507.26   511.11   524.96   560.18   569.74
eigval :      571.50   582.84   584.34   584.76   586.16   587.00
eigval :      590.85   600.48   605.14   616.14   631.85   649.97
eigval :      653.99   657.54   659.47   661.36   665.61   676.95
eigval :      679.41   683.53   689.04   699.94   708.59   729.82
eigval :      738.51   747.29   749.42   751.06   756.05   757.04
eigval :      760.87   801.92   804.72   811.83   818.14   822.90
eigval :      825.31   831.88   838.16   866.69   870.79   872.30
eigval :      872.77   873.54   881.95   896.66   897.46   899.53
eigval :      907.27   908.37   909.24   919.39   924.64   925.76
eigval :      926.87   928.65   930.23   930.58   931.79   931.98
eigval :      937.12   948.05   955.72   972.82   973.54   987.15
eigval :     1002.85  1017.02  1021.53  1068.10  1074.99  1078.93
eigval :     1080.08  1082.58  1087.93  1096.62  1108.31  1116.17
eigval :     1120.51  1121.94  1122.93  1123.76  1135.12  1141.02
eigval :     1175.63  1177.52  1177.97  1179.17  1181.38  1185.70
eigval :     1189.52  1192.11  1194.07  1194.49  1207.16  1209.79
eigval :     1213.17  1229.20  1239.15  1256.42  1264.70  1266.27
eigval :     1269.29  1273.21  1274.36  1277.76  1280.60  1296.96
eigval :     1307.51  1313.17  1317.04  1320.12  1322.09  1323.30
eigval :     1326.63  1345.39  1372.54  1381.45  1393.70  1397.35
eigval :     1410.87  1420.98  1423.62  1431.39  1437.76  1451.02
eigval :     1453.86  1457.87  1458.35  1467.47  1476.21  1489.40
eigval :     1494.26  1499.35  1519.51  1527.01  1541.33  1543.14
eigval :     1567.57  1570.70  1578.09  1580.23  1581.09  1582.73
eigval :     1585.28  1586.46  1590.54  3057.84  3067.40  3068.35
eigval :     3070.71  3073.80  3077.19  3078.38  3080.20  3080.50
eigval :     3081.50  3082.17  3083.04  3083.50  3084.23  3085.99
eigval :     3088.78  3089.62  3090.69  3091.83  3092.40  3092.78
eigval :     3094.83  3095.91  3097.39  3099.95  3100.88  3131.61
eigval :     3134.94  3157.35  3157.98

   temp. (K)  partition function   enthalpy   heat capacity  entropy
                                   cal/mol     cal/K/mol   cal/K/mol   J/K/mol
 298.15  VIB  0.239E+21            25982.342    160.973    162.733
         ROT  0.136E+09              888.752      2.981     40.193
         INT  0.325E+29            26871.094    163.954    202.926
         TR   0.193E+29             1481.254      4.968     45.647
         TOT                       28352.3479   168.9218   248.5726  1040.0278

       T/K    H(0)-H(T)+PV         H(T)/Eh          T*S/Eh         G(T)/Eh
   ------------------------------------------------------------------------
    298.15    0.451823E-01    0.654704E+00    0.118105E+00    0.536599E+00
   ------------------------------------------------------------------------

         :::::::::::::::::::::::::::::::::::::::::::::::::::::
         ::                  THERMODYNAMIC                  ::
         :::::::::::::::::::::::::::::::::::::::::::::::::::::
         :: total free energy        -135.201838728867 Eh   ::
         ::.................................................::
         :: total energy             -135.738437568482 Eh   ::
         :: zero point energy           0.609521366682 Eh   ::
         :: G(RRHO) w/o ZPVE           -0.072922527067 Eh   ::
         :: G(RRHO) contrib.            0.536598839615 Eh   ::
         :::::::::::::::::::::::::::::::::::::::::::::::::::::

           -------------------------------------------------
          | TOTAL ENERGY             -135.738437568482 Eh   |
          | TOTAL ENTHALPY           -135.083733859438 Eh   |
          | TOTAL FREE ENERGY        -135.201838728867 Eh   |
          | GRADIENT NORM               0.000094514083 Eh/α |
          | HOMO-LUMO GAP               1.097735475517 eV   |
           -------------------------------------------------

 * finished run on 2025/09/11 at 10:09:54.907
