   * xtb version 6.7.1 (edcfbbe) compiled by 'albert@albert-system' on 2024-07-22

   ID    Z sym.   atoms
    1    8 O      1
    2   15 P      2
    3    6 C      3-17, 19, 20, 22-28, 30-44, 46-51, 53
    4    7 N      18, 21, 29
    5   16 S      45, 52
    6    1 H      54-83

          program call               : xtb data2507/toluene/oTPAPO-DTPZ/oTPAPO-DTPZ_toluene_S0_crest.xyz --gfn 2 --gbsa toluene --ohess vtight --parallel 40 --molden --ceasefiles --namespace data2507/toluene/oTPAPO-DTPZ/oTPAPO-DTPZ_toluene_S0_finalOpt
      * Solvation model:               GBSA
        Solvent                        toluene
        Solvent mass                       9.2140E+01 g/mol
          :  Hamiltonian                  GFN2-xTB          :
 * total energy  :  -135.7838466 Eh     change       -0.2330836E-08 Eh
 * total energy  :  -135.7839769 Eh     change       -0.1302762E-03 Eh
 * total energy  :  -135.7840384 Eh     change       -0.6147936E-04 Eh
 * total energy  :  -135.7840644 Eh     change       -0.2596052E-04 Eh
 * total energy  :  -135.7840882 Eh     change       -0.2387753E-04 Eh
 * total energy  :  -135.7841134 Eh     change       -0.2515411E-04 Eh
 * total energy  :  -135.7841241 Eh     change       -0.1075229E-04 Eh
 * total energy  :  -135.7841320 Eh     change       -0.7858243E-05 Eh
 * total energy  :  -135.7841401 Eh     change       -0.8101381E-05 Eh
 * total energy  :  -135.7841494 Eh     change       -0.9311780E-05 Eh
 * total energy  :  -135.7843089 Eh     change       -0.1299246E-05 Eh
 * total energy  :  -135.7843101 Eh     change       -0.1147865E-05 Eh
 * total energy  :  -135.7843110 Eh     change       -0.9029995E-06 Eh
 * total energy  :  -135.7843118 Eh     change       -0.7875349E-06 Eh
 * total energy  :  -135.7843126 Eh     change       -0.8225998E-06 Eh
 * total energy  :  -135.7843136 Eh     change       -0.1047584E-05 Eh
 * total energy  :  -135.7843149 Eh     change       -0.1246105E-05 Eh
 * total energy  :  -135.7843161 Eh     change       -0.1251877E-05 Eh
 * total energy  :  -135.7843161 Eh     change       -0.5020468E-08 Eh
   *** GEOMETRY OPTIMIZATION CONVERGED AFTER 44 ITERATIONS ***

 final structure:
================
83
 xtb: 6.7.1 (edcfbbe)
O           -0.66305704162515       -2.69237479218280        2.28810575103319
P           -0.39843871959355       -2.50813551935069        0.84794061756695
C            0.51480686621742       -3.91868809753812        0.13938368639620
C            1.07904972338610       -3.89831162847055       -1.13069127723858
C            1.71618245987967       -5.02456919938819       -1.61716831318003
C            1.78680484327470       -6.17436146285562       -0.84475260030830
C            1.22148398631299       -6.19845701766268        0.41941799339784
C            0.58379894913880       -5.07169463508403        0.90894742660773
C           -1.89235942736101       -2.45887087637555       -0.18936383251254
C           -3.06522202000563       -2.93518608310311        0.37873679524840
C           -4.21681018894972       -3.02695464742987       -0.38206849225832
C           -4.19200128375106       -2.65097740016504       -1.71511484597107
C           -3.02028679234692       -2.17329401074508       -2.28326388321901
C           -1.86852678373223       -2.08001821591242       -1.52497631034407
C            0.67033829762055       -1.06073852211138        0.49366933886942
C            2.01251745378386       -1.30103968268586        0.61606115754334
C            2.95720136656556       -0.28599131904860        0.36321863184286
N            4.26579016923878       -0.54082771789731        0.48642603174027
C            5.10968435603547        0.44264503295378        0.22617550748748
C            4.63472309838852        1.74705627900609       -0.18125562066580
N            3.34427552078296        1.99672312625902       -0.31142542859052
C            2.48585767593016        1.00099436304896       -0.04407639353426
C            1.10062103090763        1.22512338839719       -0.14157250036185
C            0.19288138878814        0.23148978365651        0.14337786101276
C           -1.24209027509087        0.52564415728453        0.11781801186615
C           -1.81350574300093        1.24295790306782       -0.93249366541566
C           -3.15673505102409        1.54659421189379       -0.93354832381568
C           -3.97463956524346        1.15571785885292        0.13068022045772
N           -5.32821925829366        1.47763156890752        0.14444153745012
C           -6.05462665843520        1.55495237860131       -1.05324462197064
C           -7.02199530188385        2.54348138235386       -1.22988036341755
C           -7.74208977490776        2.60863196992516       -2.40780551934366
C           -7.50519873516312        1.69991580696445       -3.42655520563989
C           -6.54229705750737        0.71798154840646       -3.25609892967103
C           -5.82292735614873        0.63936068405272       -2.07896895212143
C           -5.97902862855724        1.75274918590640        1.35772572434092
C           -5.34256475271979        2.49446743233480        2.35227719201531
C           -5.99483236645569        2.76982732611726        3.53902697635109
C           -7.28877898439379        2.32086849358243        3.74937083285640
C           -7.92698359714671        1.58765656355485        2.76198797840792
C           -7.27933947285391        1.29965501917141        1.57560968736394
C           -3.40021335979801        0.44621434030025        1.18834713603146
C           -2.05763994275778        0.13512624206493        1.17831328411057
C            5.59931893997323        2.75215983288934       -0.44156658107854
S            5.23796334221901        4.37182525022770       -0.93495097670384
C            6.91962237543757        4.74850957613508       -0.98051903832764
C            7.71632400046107        3.70491292666691       -0.63989896365886
C            6.97149548675540        2.54097086257815       -0.32449031450718
C            7.43965469470598        1.25348656797603        0.07544158072289
C            8.77129341589041        0.80497371074211        0.26225752190330
C            8.82677139902080       -0.49392421976941        0.64825448350871
S            7.27532865185676       -1.23138767015933        0.80346883769704
C            6.50944740668326        0.24939187910543        0.33568764443516
H            1.03278148950588       -2.99862930059229       -1.72684301520797
H            2.16082988355894       -5.00627136189280       -2.60141734473218
H            2.28586451681582       -7.05139939576773       -1.22957506807679
H            1.27711328584445       -7.09205897726845        1.02357550395136
H            0.14131973449213       -5.06239056404552        1.89559909289463
H           -3.05616786154968       -3.22210987850879        1.42121171957673
H           -5.13028864426037       -3.39459205444814        0.06169801147039
H           -5.08759751516317       -2.73281352352308       -2.31329050519065
H           -3.00491634530170       -1.87375375677888       -3.32107452396310
H           -0.95601585057390       -1.70200125081348       -1.96205292395144
H            2.37697828022400       -2.27918910317237        0.90072119486519
H            0.76823331459828        2.21593596806716       -0.41248645899785
H           -1.19560312167535        1.55351212335800       -1.76223041960490
H           -3.58204457995071        2.10332359467744       -1.75511914145554
H           -7.20252154082395        3.25818298342017       -0.44016763327534
H           -8.48736822034100        3.38055674111706       -2.53353015545189
H           -8.06757162983589        1.75624591789622       -4.34650117923946
H           -6.35513972466654        0.00311024460205       -4.04410771473636
H           -5.07861053980337       -0.13075628588257       -1.93978617242731
H           -4.33728032824213        2.85419217586110        2.18702133560510
H           -5.49136324770178        3.34733986787061        4.30070169073887
H           -7.79635991404508        2.54191811061206        4.67626030884703
H           -8.93422901875489        1.23024018892519        2.91909382141765
H           -7.77552514341922        0.72223730579420        0.80922909167543
H           -4.01550054551425        0.13663748274593        2.01981604669896
H           -1.62627986071926       -0.39377573878764        2.01602395719663
H            7.22055455850222        5.73865163258399       -1.26187625846101
H            8.78909838696494        3.75415304024839       -0.61207637204871
H            9.63705738244606        1.42367225605205        0.11509742249308
H            9.70077394590272       -1.07919000730134        0.85686272154599

          :  Hamiltonian                  GFN2-xTB          :
         :: gradient norm              0.000055348967 Eh/a0 ::
         :: HOMO-LUMO gap              0.939189409407 eV    ::
         :: SCC energy              -138.153210638738 Eh    ::
         :: -> dispersion             -0.133676002468 Eh    ::
         :: -> Gsolv                  -0.062766496802 Eh    ::
         :: repulsion energy           2.368894493264 Eh    ::

    * Orbital Energies and Occupations

         #    Occupation            Energy/Eh            Energy/eV
      -------------------------------------------------------------
         1        2.0000           -0.7408284             -20.1590
       ...           ...                  ...                  ...
       114        2.0000           -0.4172470             -11.3539
       115        2.0000           -0.4132724             -11.2457
       116        2.0000           -0.4108492             -11.1798
       117        2.0000           -0.4094008             -11.1404
       118        2.0000           -0.4079464             -11.1008
       119        2.0000           -0.4066429             -11.0653
       120        2.0000           -0.4058114             -11.0427
       121        2.0000           -0.4052640             -11.0278
       122        2.0000           -0.4009827             -10.9113
       123        2.0000           -0.3934582             -10.7065
       124        2.0000           -0.3886964             -10.5770
       125        2.0000           -0.3653029              -9.9404
       126        2.0000           -0.3526749              -9.5968 (HOMO)
       127                         -0.3181603              -8.6576 (LUMO)
       128                         -0.2785460              -7.5796
       129                         -0.2608736              -7.0987
       130                         -0.2517981              -6.8518
       131                         -0.2485531              -6.7635
       132                         -0.2392814              -6.5112
       133                         -0.2373447              -6.4585
       134                         -0.2349101              -6.3922
       135                         -0.2320105              -6.3133
       136                         -0.2289697              -6.2306
       137                         -0.2269016              -6.1743
       ...                                ...                  ...
       257                          1.2077296              32.8640
      -------------------------------------------------------------
                  HL-Gap            0.0345146 Eh            0.9392 eV

     #   Z          covCN         q      C6AA      α(0)
     1   8 O        0.808    -0.396    21.614     6.232
     2  15 P        4.089     0.046   158.197    22.594
     3   6 C        2.920     0.009    27.822     8.650
     4   6 C        2.971    -0.025    28.618     8.775
     5   6 C        2.919    -0.026    28.657     8.779
     6   6 C        2.920    -0.023    28.588     8.768
     7   6 C        2.918    -0.026    28.661     8.779
     8   6 C        3.026    -0.020    28.470     8.752
     9   6 C        2.921     0.015    27.673     8.627
    10   6 C        3.030    -0.020    28.470     8.752
    11   6 C        2.919    -0.027    28.666     8.780
    12   6 C        2.921    -0.024    28.607     8.771
    13   6 C        2.920    -0.027    28.666     8.780
    14   6 C        2.976    -0.024    28.604     8.773
    15   6 C        2.917     0.012    27.747     8.638
    16   6 C        3.056    -0.035    28.812     8.803
    17   6 C        2.967     0.084    26.115     8.382
    18   7 N        1.846    -0.265    27.740     7.806
    19   6 C        2.982     0.085    26.102     8.381
    20   6 C        2.981     0.086    26.083     8.377
    21   7 N        1.847    -0.264    27.722     7.803
    22   6 C        2.964     0.085    26.108     8.381
    23   6 C        2.925    -0.053    29.327     8.881
    24   6 C        3.004     0.016    27.635     8.623
    25   6 C        2.979     0.000    28.022     8.683
    26   6 C        2.923    -0.033    28.818     8.803
    27   6 C        2.921    -0.049    29.218     8.864
    28   6 C        2.922     0.068    26.476     8.438
    29   7 N        2.752    -0.073    22.649     7.068
    30   6 C        2.924     0.064    26.565     8.452
    31   6 C        2.922    -0.046    29.152     8.854
    32   6 C        2.919    -0.029    28.734     8.790
    33   6 C        2.919    -0.038    28.943     8.822
    34   6 C        2.919    -0.029    28.729     8.790
    35   6 C        2.922    -0.048    29.198     8.861
    36   6 C        2.924     0.065    26.555     8.451
    37   6 C        2.922    -0.046    29.149     8.854
    38   6 C        2.919    -0.029    28.731     8.790
    39   6 C        2.919    -0.037    28.928     8.820
    40   6 C        2.919    -0.029    28.733     8.790
    41   6 C        2.922    -0.046    29.142     8.853
    42   6 C        2.921    -0.047    29.176     8.858
    43   6 C        2.925    -0.027    28.680     8.782
    44   6 C        3.009    -0.003    28.082     8.693
    45  16 S        2.270     0.010   140.664    19.962
    46   6 C        2.942    -0.014    28.367     8.735
    47   6 C        3.081    -0.046    29.051     8.836
    48   6 C        3.154    -0.004    27.826     8.627
    49   6 C        3.154    -0.005    27.841     8.629
    50   6 C        3.080    -0.046    29.052     8.836
    51   6 C        2.942    -0.014    28.362     8.734
    52  16 S        2.268     0.005   140.848    19.975
    53   6 C        3.008    -0.002    28.061     8.690
    54   1 H        0.926     0.037     2.483     2.464
    55   1 H        0.926     0.046     2.370     2.408
    56   1 H        0.926     0.049     2.337     2.391
    57   1 H        0.926     0.046     2.371     2.408
    58   1 H        0.925     0.050     2.318     2.381
    59   1 H        0.925     0.049     2.327     2.385
    60   1 H        0.926     0.046     2.366     2.406
    61   1 H        0.926     0.050     2.315     2.379
    62   1 H        0.926     0.048     2.347     2.396
    63   1 H        0.926     0.039     2.460     2.453
    64   1 H        0.925     0.054     2.273     2.358
    65   1 H        0.926     0.060     2.198     2.318
    66   1 H        0.926     0.041     2.434     2.440
    67   1 H        0.926     0.043     2.415     2.430
    68   1 H        0.926     0.033     2.547     2.496
    69   1 H        0.926     0.035     2.513     2.479
    70   1 H        0.926     0.034     2.527     2.486
    71   1 H        0.926     0.036     2.503     2.474
    72   1 H        0.926     0.035     2.522     2.483
    73   1 H        0.926     0.032     2.561     2.503
    74   1 H        0.926     0.035     2.519     2.482
    75   1 H        0.926     0.034     2.523     2.484
    76   1 H        0.926     0.036     2.497     2.471
    77   1 H        0.926     0.035     2.520     2.482
    78   1 H        0.926     0.037     2.491     2.468
    79   1 H        0.926     0.048     2.345     2.394
    80   1 H        0.926     0.069     2.102     2.267
    81   1 H        0.926     0.061     2.186     2.312
    82   1 H        0.926     0.061     2.183     2.310
    83   1 H        0.926     0.068     2.106     2.269

molecular dipole:
                 x           y           z       tot (Debye)
 q only:        0.172       0.570      -1.994
   full:        0.379       0.546      -2.018       5.401

 projected vibrational frequencies (cm⁻¹)
eigval :       -0.00    -0.00     0.00     0.00     0.00     0.00
eigval :       11.05    13.34    15.75    18.85    23.38    28.36
eigval :       32.23    42.68    46.48    51.87    55.70    61.35
eigval :       63.78    69.20    76.71    83.00    84.80    93.47
eigval :      113.29   118.22   124.13   136.87   141.16   157.48
eigval :      162.39   178.02   191.35   200.67   217.41   223.29
eigval :      234.33   234.91   239.57   274.36   280.44   287.21
eigval :      303.72   305.37   332.28   335.75   343.10   353.80
eigval :      362.41   369.59   377.02   379.04   379.86   382.52
eigval :      385.20   388.95   403.19   409.94   425.74   438.69
eigval :      445.86   449.21   455.02   475.22   486.71   490.53
eigval :      497.26   501.49   511.25   526.72   562.33   578.78
eigval :      584.34   584.83   585.92   586.07   587.79   592.31
eigval :      601.37   602.73   610.70   632.79   649.25   653.94
eigval :      655.21   660.33   661.70   667.59   684.56   688.46
eigval :      690.82   700.35   705.27   711.46   733.23   739.16
eigval :      747.99   754.93   755.71   757.21   762.96   764.69
eigval :      772.24   813.31   816.01   824.36   830.83   840.21
eigval :      841.56   849.57   869.14   871.46   871.98   874.95
eigval :      877.94   880.63   891.60   893.90   900.53   903.41
eigval :      908.90   909.25   911.64   919.19   922.69   924.80
eigval :      925.94   926.12   928.19   929.35   930.70   932.87
eigval :      936.58   956.02   959.74   972.91   973.66   989.03
eigval :     1004.67  1020.18  1023.08  1067.16  1074.42  1077.84
eigval :     1081.58  1083.27  1085.47  1094.34  1108.07  1116.02
eigval :     1120.73  1121.86  1122.65  1123.75  1137.07  1141.69
eigval :     1175.75  1176.90  1178.14  1180.04  1184.92  1185.42
eigval :     1190.55  1192.79  1193.15  1195.68  1207.15  1210.52
eigval :     1218.19  1233.08  1253.17  1265.15  1267.37  1272.04
eigval :     1273.63  1277.37  1279.87  1282.29  1305.03  1314.82
eigval :     1318.17  1320.52  1322.75  1323.87  1326.73  1330.81
eigval :     1339.41  1367.93  1402.16  1406.12  1413.14  1417.40
eigval :     1421.39  1423.86  1434.25  1440.42  1450.49  1453.01
eigval :     1459.61  1464.21  1468.81  1471.75  1476.18  1488.14
eigval :     1493.57  1507.94  1519.13  1536.02  1551.68  1576.39
eigval :     1576.99  1580.68  1581.41  1583.09  1585.19  1586.30
eigval :     1590.66  1591.97  1599.32  3060.88  3068.48  3068.93
eigval :     3069.79  3072.36  3072.55  3073.71  3073.82  3074.43
eigval :     3077.57  3077.93  3078.83  3081.06  3082.80  3083.43
eigval :     3083.75  3084.38  3085.58  3089.05  3092.22  3092.65
eigval :     3092.97  3093.51  3094.21  3094.60  3095.59  3138.93
eigval :     3142.39  3159.70  3160.46

   temp. (K)  partition function   enthalpy   heat capacity  entropy
                                   cal/mol     cal/K/mol   cal/K/mol   J/K/mol
 298.15  VIB  0.503E+21            25847.803    159.405    162.495
         ROT  0.136E+09              888.752      2.981     40.191
         INT  0.682E+29            26736.556    162.386    202.687
         TR   0.193E+29             1481.254      4.968     45.647
         TOT                       28217.8097   167.3538   248.3332  1039.0261

       T/K    H(0)-H(T)+PV         H(T)/Eh          T*S/Eh         G(T)/Eh
   ------------------------------------------------------------------------
    298.15    0.449679E-01    0.656595E+00    0.117991E+00    0.538604E+00
   ------------------------------------------------------------------------

         :::::::::::::::::::::::::::::::::::::::::::::::::::::
         ::                  THERMODYNAMIC                  ::
         :::::::::::::::::::::::::::::::::::::::::::::::::::::
         :: total free energy        -135.245711844529 Eh   ::
         ::.................................................::
         :: total energy             -135.784316147170 Eh   ::
         :: zero point energy           0.611627478621 Eh   ::
         :: G(RRHO) w/o ZPVE           -0.073023175980 Eh   ::
         :: G(RRHO) contrib.            0.538604302641 Eh   ::
         :::::::::::::::::::::::::::::::::::::::::::::::::::::

           -------------------------------------------------
          | TOTAL ENERGY             -135.784316147170 Eh   |
          | TOTAL ENTHALPY           -135.127720726440 Eh   |
          | TOTAL FREE ENERGY        -135.245711844529 Eh   |
          | GRADIENT NORM               0.000055352793 Eh/α |
          | HOMO-LUMO GAP               0.939189166406 eV   |
           -------------------------------------------------

 * finished run on 2025/09/11 at 09:48:12.770
