   * xtb version 6.7.1 (edcfbbe) compiled by 'albert@albert-system' on 2024-07-22

   ID    Z sym.   atoms
    1    6 C      1-4, 6-13, 15-33, 35-50, 52-59
    2    7 N      5, 14, 34, 51
    3    1 H      60-95

          program call               : xtb data2507/gas/CBPBM/CBPBM.xyz --gfn 2 --ohess vtight --parallel 40 --molden --ceasefiles --namespace data2507/gas/CBPBM/CBPBM_gas_S0_preOpt
          :  Hamiltonian                  GFN2-xTB          :
 * total energy  :  -147.9057356 Eh     change       -0.3289415E-08 Eh
 * total energy  :  -147.9229853 Eh     change       -0.1724971E-01 Eh
 * total energy  :  -147.9272418 Eh     change       -0.4256484E-02 Eh
 * total energy  :  -147.9283968 Eh     change       -0.1155043E-02 Eh
 * total energy  :  -147.9292589 Eh     change       -0.8620771E-03 Eh
 * total energy  :  -147.9295928 Eh     change       -0.3339224E-03 Eh
 * total energy  :  -147.9297892 Eh     change       -0.1963615E-03 Eh
 * total energy  :  -147.9299531 Eh     change       -0.1638796E-03 Eh
 * total energy  :  -147.9301059 Eh     change       -0.1528457E-03 Eh
 * total energy  :  -147.9302638 Eh     change       -0.1579015E-03 Eh
 * total energy  :  -147.9347332 Eh     change       -0.5160287E-06 Eh
 * total energy  :  -147.9347338 Eh     change       -0.5732005E-06 Eh
 * total energy  :  -147.9347343 Eh     change       -0.5401484E-06 Eh
 * total energy  :  -147.9347348 Eh     change       -0.4312125E-06 Eh
 * total energy  :  -147.9347352 Eh     change       -0.4300555E-06 Eh
 * total energy  :  -147.9347357 Eh     change       -0.5562920E-06 Eh
 * total energy  :  -147.9347363 Eh     change       -0.5615135E-06 Eh
 * total energy  :  -147.9347367 Eh     change       -0.4193010E-06 Eh
 * total energy  :  -147.9347367 Eh     change       -0.7904532E-08 Eh
   *** GEOMETRY OPTIMIZATION CONVERGED AFTER 185 ITERATIONS ***

 final structure:
================
95
 xtb: 6.7.1 (edcfbbe)
C           -2.34955761770540       -3.30746909566258        3.69920392266064
C           -2.31032053042046       -2.11968132568005        2.98674800313801
C           -2.49306923275747       -2.12292741892225        1.61726887669032
C           -2.70338594364286       -3.32623531490647        0.95126674116835
N           -2.88961604285330       -3.33444911041674       -0.44021489496173
C           -2.12322049415916       -2.70818315794559       -1.40411175889727
C           -0.88141528684777       -2.00788371696196       -1.11777752299139
C            0.01554645759100       -2.43225977806942       -0.13982756043757
C            1.13437426188749       -1.67601165868588        0.15153317653409
C            1.37255195548523       -0.47768054706759       -0.51317471173304
C            2.46821282129895        0.42019351590587       -0.10279468063490
C            3.78107888543371       -0.02207209733840       -0.08287223758857
C            4.81520030570638        0.84258491212751        0.26271518689413
N            6.13602253586842        0.37931572896800        0.29102259874480
C            7.22132380817522        0.98326526178913       -0.31311750914973
C            7.27091401087697        2.11463719030146       -1.11469321997302
C            8.49952375204784        2.49314142211266       -1.62098389040782
C            9.65488723494524        1.76398804126288       -1.34864377144066
C            9.60765898939043        0.62323544167733       -0.57272636268520
C            8.38412251912582        0.22259850353398       -0.05248633919485
C            7.97112546702991       -0.89136501976076        0.75442293797105
C            8.64990283845456       -1.95621279149905        1.33194978523771
C            7.93599856959352       -2.86367080071603        2.08861515978659
C            6.56538946117556       -2.71092559344285        2.28513437412578
C            5.86831492512157       -1.65987784839637        1.72086668385785
C            6.57594320335816       -0.75807950621329        0.93925958340321
C            4.52684089635298        2.16751113410216        0.57799340041888
C            3.21856980088075        2.61095801720044        0.56037988321467
C            2.17675593430983        1.74989702612413        0.24046706503346
C            0.77292329448836        2.19401286286978        0.27105030014777
C            0.34450354450640        3.29280633517345       -0.46637318968778
C           -0.99984641056414        3.60086937902805       -0.55865071042975
C           -1.93823618360194        2.81900329308069        0.10640522260388
N           -3.31211173248192        3.03060949417697       -0.06040023690044
C           -4.00332968599937        4.21235673927648        0.10561165409180
C           -3.53678352458716        5.46065995092831        0.49038883561927
C           -4.45733338506918        6.48462399105564        0.60535886542365
C           -5.81162790005009        6.27640592092860        0.35333339683979
C           -6.28414732591407        5.03100555666646       -0.00995192771186
C           -5.37888084307213        3.98547131744429       -0.13358765686077
C           -5.51183065763400        2.59530097498878       -0.47154746312534
C           -6.58813171594185        1.79168186900336       -0.82601630616596
C           -6.35271700092367        0.46596362599866       -1.13141497831558
C           -5.06220540002909       -0.05913457130060       -1.10764421397661
C           -3.97659329778945        0.71924712217438       -0.75586142137087
C           -4.21186729988669        2.04433212769158       -0.41659486470104
C           -1.50616715371982        1.77729563278070        0.92402271242162
C           -0.16679141039875        1.46598966907521        0.99913664049035
C            0.52065240169317       -0.10320400805500       -1.55115583601477
C           -0.58773918353540       -0.86133895205382       -1.85641442256350
N           -2.63562980027130       -2.80432510807932       -2.60000151164736
C           -3.79458366985650       -3.51613323797042       -2.46302112749524
C           -4.73960547545734       -3.88977478831301       -3.41251113424817
C           -5.84416732762133       -4.58813466068179       -2.97433120017254
C           -6.02299609111735       -4.90765058307731       -1.62637090054882
C           -5.09745934080119       -4.54874656141552       -0.66700134330368
C           -3.97586614953156       -3.86195440728703       -1.10245584728874
C           -2.74555258439968       -4.51875308542867        1.66477051342901
C           -2.57098093213137       -4.50318143303796        3.03703282074660
H           -2.20977718684550       -3.30069903967964        4.76957011304257
H           -2.14416526036889       -1.18519228336151        3.50187745158699
H           -2.47591001186802       -1.20208312438587        1.05508175343907
H           -0.15949932117941       -3.35329016685197        0.39658367276881
H            1.81101595061546       -1.99778839825387        0.93044885887378
H            4.00708250990968       -1.03828223292761       -0.37074522201808
H            6.37855304081140        2.67592111117811       -1.34755037423630
H            8.56481605363974        3.37215927409837       -2.24522860179241
H           10.59665993829603        2.09450253945904       -1.76077018030550
H           10.49985765804224        0.04832554991817       -0.37542674178638
H            9.71490869979383       -2.06513256359182        1.19297718733098
H            8.44424955841965       -3.70023408624068        2.54458861409795
H            6.03636375684240       -3.42816362069813        2.89547806604737
H            4.80966478038934       -1.53927882936865        1.89515003951706
H            5.32689562757740        2.83619317346257        0.85703174137295
H            2.99456717613209        3.63359031958967        0.82713436964923
H            1.06747959179527        3.87850811826363       -1.01572033918117
H           -1.33089225384404        4.42126742959992       -1.17767600406560
H           -2.49088848531198        5.62563282271066        0.70212616299403
H           -4.12015029418100        7.46758689508995        0.89988792235777
H           -6.49915975715865        7.10326026094754        0.45185971680436
H           -7.33558146151264        4.86781868083207       -0.19272835177320
H           -7.58580374481590        2.20217953723086       -0.86812282022361
H           -7.17510796506996       -0.17634705685091       -1.40901233287312
H           -4.90984214975784       -1.09231431925643       -1.38272333967722
H           -2.97392425168711        0.31669009343693       -0.77019696889860
H           -2.23422164257590        1.21453252727652        1.48933541897713
H            0.15979218832297        0.64677371433181        1.62244626233954
H            0.72814886901405        0.79759911973818       -2.10937622824711
H           -1.25863607062074       -0.57242770430856       -2.65049181633932
H           -4.60327700367061       -3.62826189725214       -4.44932209456574
H           -6.59775779304263       -4.89248905385706       -3.68558508274895
H           -6.90974213871307       -5.44688933135940       -1.32774117192520
H           -5.24587718950418       -4.78518239599135        0.37624804673230
H           -2.90169692819988       -5.44967963205861        1.13988961978563
H           -2.60271473371073       -5.43045030989490        3.58947506490873

          :  Hamiltonian                  GFN2-xTB          :
         :: gradient norm              0.000066097819 Eh/a0 ::
         :: HOMO-LUMO gap              2.516303652687 eV    ::
         :: SCC energy              -150.736387463826 Eh    ::
         :: -> dispersion             -0.145739098233 Eh    ::
         :: repulsion energy           2.801650735146 Eh    ::

    * Orbital Energies and Occupations

         #    Occupation            Energy/Eh            Energy/eV
      -------------------------------------------------------------
         1        2.0000           -0.6870962             -18.6968
       ...           ...                  ...                  ...
       126        2.0000           -0.4147803             -11.2867
       127        2.0000           -0.4120385             -11.2121
       128        2.0000           -0.4085962             -11.1185
       129        2.0000           -0.4049405             -11.0190
       130        2.0000           -0.4032581             -10.9732
       131        2.0000           -0.3975530             -10.8180
       132        2.0000           -0.3811572             -10.3718
       133        2.0000           -0.3785560             -10.3010
       134        2.0000           -0.3783867             -10.2964
       135        2.0000           -0.3766620             -10.2495
       136        2.0000           -0.3760474             -10.2328
       137        2.0000           -0.3636750              -9.8961
       138        2.0000           -0.3598112              -9.7910 (HOMO)
       139                         -0.2673388              -7.2747 (LUMO)
       140                         -0.2556297              -6.9560
       141                         -0.2444763              -6.6525
       142                         -0.2436324              -6.6296
       143                         -0.2419340              -6.5834
       144                         -0.2415412              -6.5727
       145                         -0.2364332              -6.4337
       146                         -0.2344250              -6.3790
       147                         -0.2303183              -6.2673
       148                         -0.2232842              -6.0759
       149                         -0.2216253              -6.0307
       ...                                ...                  ...
       272                          0.7476600              20.3449
      -------------------------------------------------------------
                  HL-Gap            0.0924725 Eh            2.5163 eV

     #   Z          covCN         q      C6AA      α(0)
     1   6 C        2.920    -0.031    28.780     8.797
     2   6 C        2.920    -0.026    28.654     8.778
     3   6 C        2.922    -0.039    28.973     8.827
     4   6 C        2.913     0.067    26.501     8.441
     5   7 N        2.825    -0.052    22.244     7.005
     6   6 C        3.182     0.137    24.623     8.099
     7   6 C        2.976     0.002    27.972     8.675
     8   6 C        2.921    -0.032    28.805     8.801
     9   6 C        2.923    -0.033    28.825     8.804
    10   6 C        2.978     0.014    27.695     8.632
    11   6 C        2.982     0.008    27.845     8.656
    12   6 C        2.925    -0.048    29.188     8.860
    13   6 C        2.912     0.063    26.583     8.455
    14   7 N        2.803    -0.044    22.079     6.979
    15   6 C        3.075     0.047    26.876     8.500
    16   6 C        2.910    -0.051    29.263     8.870
    17   6 C        2.924    -0.033    28.830     8.805
    18   6 C        2.920    -0.041    29.010     8.833
    19   6 C        2.913    -0.033    28.813     8.802
    20   6 C        3.068    -0.017    28.358     8.732
    21   6 C        3.068    -0.017    28.355     8.732
    22   6 C        2.913    -0.033    28.812     8.802
    23   6 C        2.920    -0.041    29.014     8.833
    24   6 C        2.924    -0.034    28.835     8.806
    25   6 C        2.910    -0.051    29.256     8.869
    26   6 C        3.076     0.047    26.876     8.500
    27   6 C        2.920    -0.046    29.138     8.852
    28   6 C        2.921    -0.034    28.843     8.807
    29   6 C        2.982     0.002    27.975     8.676
    30   6 C        2.978     0.009    27.805     8.650
    31   6 C        2.924    -0.033    28.825     8.805
    32   6 C        2.920    -0.043    29.066     8.841
    33   6 C        2.914     0.063    26.578     8.454
    34   7 N        2.804    -0.045    22.102     6.982
    35   6 C        3.074     0.047    26.873     8.500
    36   6 C        2.910    -0.051    29.272     8.872
    37   6 C        2.924    -0.034    28.836     8.806
    38   6 C        2.920    -0.041    29.021     8.834
    39   6 C        2.913    -0.033    28.814     8.802
    40   6 C        3.069    -0.017    28.361     8.732
    41   6 C        3.066    -0.017    28.367     8.733
    42   6 C        2.913    -0.033    28.812     8.802
    43   6 C        2.920    -0.040    28.997     8.830
    44   6 C        2.924    -0.030    28.761     8.795
    45   6 C        2.910    -0.049    29.211     8.862
    46   6 C        3.079     0.046    26.884     8.501
    47   6 C        2.923    -0.043    29.064     8.841
    48   6 C        2.925    -0.032    28.790     8.799
    49   6 C        2.924    -0.030    28.759     8.795
    50   6 C        2.926    -0.027    28.686     8.783
    51   7 N        1.886    -0.292    28.407     7.901
    52   6 C        3.192     0.068    26.006     8.317
    53   6 C        2.910    -0.042    29.033     8.835
    54   6 C        2.923    -0.039    28.965     8.826
    55   6 C        2.927    -0.036    28.904     8.817
    56   6 C        2.907    -0.051    29.255     8.869
    57   6 C        3.088     0.035    27.117     8.536
    58   6 C        2.922    -0.041    29.007     8.832
    59   6 C        2.920    -0.027    28.684     8.783
    60   1 H        0.926     0.038     2.475     2.460
    61   1 H        0.926     0.037     2.491     2.468
    62   1 H        0.926     0.038     2.469     2.457
    63   1 H        0.926     0.030     2.581     2.512
    64   1 H        0.926     0.032     2.554     2.499
    65   1 H        0.926     0.044     2.401     2.423
    66   1 H        0.926     0.027     2.630     2.536
    67   1 H        0.926     0.029     2.599     2.521
    68   1 H        0.926     0.028     2.612     2.527
    69   1 H        0.926     0.031     2.571     2.507
    70   1 H        0.926     0.031     2.569     2.507
    71   1 H        0.926     0.028     2.615     2.529
    72   1 H        0.926     0.028     2.614     2.528
    73   1 H        0.926     0.025     2.664     2.552
    74   1 H        0.926     0.043     2.412     2.429
    75   1 H        0.926     0.038     2.471     2.458
    76   1 H        0.926     0.037     2.484     2.464
    77   1 H        0.926     0.043     2.410     2.428
    78   1 H        0.926     0.026     2.647     2.544
    79   1 H        0.926     0.028     2.608     2.525
    80   1 H        0.926     0.028     2.619     2.531
    81   1 H        0.926     0.031     2.575     2.509
    82   1 H        0.926     0.031     2.567     2.506
    83   1 H        0.926     0.028     2.608     2.525
    84   1 H        0.926     0.027     2.627     2.535
    85   1 H        0.926     0.021     2.722     2.580
    86   1 H        0.926     0.037     2.483     2.464
    87   1 H        0.926     0.033     2.546     2.495
    88   1 H        0.926     0.035     2.517     2.481
    89   1 H        0.926     0.055     2.254     2.348
    90   1 H        0.926     0.044     2.396     2.420
    91   1 H        0.926     0.032     2.561     2.503
    92   1 H        0.926     0.031     2.576     2.510
    93   1 H        0.926     0.026     2.646     2.544
    94   1 H        0.926     0.043     2.414     2.430
    95   1 H        0.926     0.039     2.460     2.453

molecular dipole:
                 x           y           z       tot (Debye)
 q only:        0.306       0.197       0.950
   full:        0.187       0.043       1.325       3.403

 projected vibrational frequencies (cm⁻¹)
eigval :       -0.00    -0.00    -0.00     0.00     0.00     0.00
eigval :       13.13    13.83    15.88    17.24    21.19    24.48
eigval :       30.80    39.47    43.57    49.37    60.85    64.87
eigval :       73.17    76.55    83.18    91.89   102.70   103.23
eigval :      107.93   109.25   110.44   128.90   145.12   147.71
eigval :      175.01   177.94   191.84   209.53   221.33   227.26
eigval :      231.36   242.36   248.63   260.24   271.65   272.22
eigval :      288.93   301.07   320.51   342.60   360.45   369.93
eigval :      373.17   377.80   380.66   384.54   385.53   393.16
eigval :      395.01   400.86   407.28   421.24   422.13   425.00
eigval :      434.70   437.00   451.06   477.13   482.56   501.27
eigval :      510.79   517.99   519.74   529.48   531.50   537.78
eigval :      541.20   541.74   546.90   549.10   570.60   580.93
eigval :      585.20   588.67   592.38   596.84   600.09   610.02
eigval :      612.48   617.52   634.77   645.35   659.86   667.95
eigval :      670.43   673.85   674.17   688.42   700.85   702.97
eigval :      708.48   708.90   710.89   715.36   721.86   750.46
eigval :      755.51   759.53   763.01   769.26   770.64   774.70
eigval :      780.59   782.30   800.81   819.34   823.33   839.89
eigval :      867.53   867.90   867.93   869.40   872.33   873.93
eigval :      874.50   876.87   881.26   887.14   893.97   897.82
eigval :      898.20   899.17   902.17   902.37   902.67   905.56
eigval :      906.12   918.45   919.08   920.32   922.36   922.81
eigval :      922.93   924.72   926.90   927.74   928.55   931.54
eigval :      932.75   935.98   949.06   962.27  1000.60  1003.05
eigval :     1012.51  1012.82  1026.24  1036.14  1060.25  1069.60
eigval :     1070.31  1073.48  1073.85  1081.10  1086.87  1116.83
eigval :     1117.71  1117.92  1133.51  1133.99  1134.93  1136.37
eigval :     1150.54  1152.24  1154.46  1174.65  1175.72  1176.86
eigval :     1179.40  1181.45  1182.00  1183.17  1187.10  1192.13
eigval :     1195.75  1201.34  1207.67  1231.92  1236.93  1236.99
eigval :     1240.97  1244.72  1258.71  1266.38  1266.65  1270.43
eigval :     1278.43  1290.13  1294.85  1299.22  1303.58  1304.44
eigval :     1305.50  1309.50  1314.75  1317.03  1318.95  1324.64
eigval :     1356.13  1357.85  1360.66  1362.18  1362.63  1365.37
eigval :     1376.90  1378.05  1396.22  1405.58  1414.79  1418.62
eigval :     1428.15  1428.63  1430.84  1436.99  1438.76  1471.31
eigval :     1476.31  1477.04  1478.44  1486.06  1488.41  1488.58
eigval :     1489.76  1506.23  1536.74  1550.86  1562.11  1564.59
eigval :     1574.91  1575.17  1583.73  1587.69  1589.17  1589.69
eigval :     1590.14  1595.95  1598.51  1599.22  1599.41  1600.05
eigval :     1614.92  1615.44  1617.30  3072.75  3073.32  3075.34
eigval :     3075.39  3075.66  3076.44  3077.98  3079.76  3080.74
eigval :     3080.89  3081.18  3081.22  3081.42  3081.74  3082.37
eigval :     3083.24  3086.77  3087.51  3087.68  3087.77  3089.22
eigval :     3089.51  3090.15  3091.77  3092.71  3092.84  3094.33
eigval :     3095.21  3095.52  3096.88  3097.67  3097.85  3098.88
eigval :     3105.30  3105.81  3110.07

   temp. (K)  partition function   enthalpy   heat capacity  entropy
                                   cal/mol     cal/K/mol   cal/K/mol   J/K/mol
 298.15  VIB  0.646E+21            26734.956    171.056    165.821
         ROT  0.154E+09              888.752      2.981     40.441
         INT  0.992E+29            27623.709    174.037    206.261
         TR   0.200E+29             1481.254      4.968     45.715
         TOT                       29104.9628   179.0053   251.9759  1054.2673

       T/K    H(0)-H(T)+PV         H(T)/Eh          T*S/Eh         G(T)/Eh
   ------------------------------------------------------------------------
    298.15    0.463817E-01    0.777607E+00    0.119722E+00    0.657885E+00
   ------------------------------------------------------------------------

         :::::::::::::::::::::::::::::::::::::::::::::::::::::
         ::                  THERMODYNAMIC                  ::
         :::::::::::::::::::::::::::::::::::::::::::::::::::::
         :: total free energy        -147.276851883699 Eh   ::
         ::.................................................::
         :: total energy             -147.934736728680 Eh   ::
         :: zero point energy           0.731225026263 Eh   ::
         :: G(RRHO) w/o ZPVE           -0.073340181282 Eh   ::
         :: G(RRHO) contrib.            0.657884844981 Eh   ::
         :::::::::::::::::::::::::::::::::::::::::::::::::::::

           -------------------------------------------------
          | TOTAL ENERGY             -147.934736728680 Eh   |
          | TOTAL ENTHALPY           -147.157129991925 Eh   |
          | TOTAL FREE ENERGY        -147.276851883699 Eh   |
          | GRADIENT NORM               0.000066097361 Eh/α |
          | HOMO-LUMO GAP               2.516304123061 eV   |
           -------------------------------------------------

 * finished run on 2025/08/22 at 07:52:05.034
