   * xtb version 6.7.1 (edcfbbe) compiled by 'albert@albert-system' on 2024-07-22

   ID    Z sym.   atoms
    1    6 C      1-4, 6-13, 15-33, 35-50, 52-59
    2    7 N      5, 14, 34, 51
    3    1 H      60-95

          program call               : xtb data2507/gas/CBPBM/CBPBM_gas_T1_crest.xyz --gfn 2 --spinpol --tblite --uhf 2 --ohess vtight --parallel 40 --molden --ceasefiles --namespace data2507/gas/CBPBM/CBPBM_gas_T1_finalOpt
 * total energy  :  -147.8463251 Eh     change       -0.3012360E-08 Eh
 * total energy  :  -147.8463413 Eh     change       -0.1620439E-04 Eh
 * total energy  :  -147.8463542 Eh     change       -0.1283986E-04 Eh
 * total energy  :  -147.8463601 Eh     change       -0.5917077E-05 Eh
 * total energy  :  -147.8463661 Eh     change       -0.6046066E-05 Eh
 * total energy  :  -147.8463697 Eh     change       -0.3596286E-05 Eh
 * total energy  :  -147.8463713 Eh     change       -0.1563039E-05 Eh
 * total energy  :  -147.8463722 Eh     change       -0.8892938E-06 Eh
 * total energy  :  -147.8463729 Eh     change       -0.6675830E-06 Eh
 * total energy  :  -147.8463735 Eh     change       -0.6270036E-06 Eh
 * total energy  :  -147.8463746 Eh     change       -0.7041775E-06 Eh
 * total energy  :  -147.8463752 Eh     change       -0.5881197E-06 Eh
 * total energy  :  -147.8463756 Eh     change       -0.4193249E-06 Eh
 * total energy  :  -147.8463760 Eh     change       -0.3146419E-06 Eh
 * total energy  :  -147.8463767 Eh     change       -0.7043309E-06 Eh
 * total energy  :  -147.8463769 Eh     change       -0.2737161E-06 Eh
 * total energy  :  -147.8463771 Eh     change       -0.2115651E-06 Eh
 * total energy  :  -147.8463774 Eh     change       -0.2779352E-06 Eh
 * total energy  :  -147.8463775 Eh     change       -0.5319637E-07 Eh
   *** GEOMETRY OPTIMIZATION CONVERGED AFTER 20 ITERATIONS ***

 final structure:
================
95
 xtb: 6.7.1 (edcfbbe)
C           -0.64412370887238       -5.87771931788138        2.74350654199018
C           -0.90654049036124       -4.51963828985232        2.83307433703914
C           -1.55052105862377       -3.86465055914399        1.80160356587095
C           -1.92519144457849       -4.57020863521980        0.65966726400610
N           -2.60685760984758       -3.92066136723303       -0.37903646882684
C           -2.29700404266367       -2.71400803373869       -1.01484002221479
C           -1.07743877742154       -2.01363111750042       -0.95146644511510
C            0.13577125657889       -2.51018902744843       -0.38658580596229
C            1.23470677138870       -1.71741496845938       -0.27140149131237
C            1.20867198739949       -0.34648764894401       -0.65354317189691
C            2.25088845253787        0.56577466941332       -0.31493128019597
C            3.59256248180989        0.15077936540030       -0.25098624406624
C            4.61894966337085        1.05798099842018       -0.12233085381065
N            5.94716268302924        0.62275543932484       -0.08248542284889
C            6.98970943900279        1.13592923265834       -0.82726780155369
C            6.97618177517260        2.12092658024164       -1.80519626461787
C            8.17273135542296        2.43421667212557       -2.42161571383573
C            9.35598058392742        1.77920358958320       -2.08855071112102
C            9.37031604849726        0.77719350409078       -1.13732849747107
C            8.18132326541756        0.44604760826662       -0.50340927928512
C            7.82859718261597       -0.53247735327594        0.48831077019301
C            8.55519943816093       -1.48101984056172        1.19396414781623
C            7.89424033107836       -2.26868358224381        2.11662087637654
C            6.53069726368509       -2.10695591298076        2.35057141709225
C            5.78632407486824       -1.16927107477357        1.66034493798599
C            6.43937470708145       -0.39226753460100        0.71378409899788
C            4.33724851850204        2.44068192218039       -0.03502813824298
C            3.03067189395733        2.86522349199484       -0.02833673772587
C            1.96857960081545        1.96371052143482       -0.10595977175025
C            0.60923560987583        2.39976212882508        0.13339390984631
C            0.11491418827694        3.61248014106638       -0.37070154108761
C           -1.21590839589787        3.94027789281734       -0.25490836475474
C           -2.10105788506203        3.07954650928230        0.40182021851648
N           -3.46945381570056        3.33815260958727        0.43470007963918
C           -4.08213348253265        4.53603497756979        0.74300190100534
C           -3.52065498988373        5.73434555519971        1.16082253443180
C           -4.37473873053739        6.78546162472027        1.43797653654337
C           -5.75531032130909        6.65120188229468        1.31613124096235
C           -6.32185912183770        5.45149410605363        0.92820774744142
C           -5.48516263568537        4.38275578867084        0.64299106390623
C           -5.72068691686273        3.02108739627903        0.24379433775080
C           -6.86834171940969        2.29354348131926       -0.03863378927392
C           -6.73536232620173        0.97764949369694       -0.44091248226011
C           -5.47896144599973        0.39290418934363       -0.57988552070703
C           -4.32275890589757        1.09738604818741       -0.30189212011688
C           -4.45132105885194        2.41039324851343        0.12944254628161
C           -1.59987291908519        1.92326514866706        1.00521675612630
C           -0.27643562176893        1.58968709891474        0.86927134493831
C            0.05679621564445        0.08199704925370       -1.38735198550538
C           -1.02452462213515       -0.71890501972006       -1.54521534863046
N           -3.31604755963280       -2.29233771012315       -1.77483215995617
C           -4.28575038801744       -3.21699929341733       -1.67008540265766
C           -5.55441053501207       -3.26250659052566       -2.25912457804731
C           -6.36835979004552       -4.32794230472381       -1.94763348232327
C           -5.95792319202997       -5.33456520943714       -1.06852717287807
C           -4.70567480896486       -5.31669106584574       -0.47476605071729
C           -3.87254386117697       -4.26190418915259       -0.79289293418452
C           -1.66450246223551       -5.93407300744139        0.57120894712154
C           -1.02568884863595       -6.58122819496493        1.61314539854363
H           -0.14389251929175       -6.38639481265080        3.55363938073924
H           -0.61504085014617       -3.96942719737541        3.71538453332388
H           -1.76415186406544       -2.80775841150337        1.86502103580772
H            0.18996652898990       -3.53746776375662       -0.06151159150323
H            2.12562950012016       -2.11991146577529        0.18826780594687
H            3.83194635880548       -0.89191500463882       -0.39482426394240
H            6.06020280582957        2.61737307394458       -2.08711295833568
H            8.18929711086339        3.19976448897458       -3.18318628187345
H           10.27087839069856        2.05365672752424       -2.59210332413604
H           10.28408898178468        0.25688441785980       -0.89304712481807
H            9.61549139215023       -1.59421203765763        1.02574285074874
H            8.44047579684276       -3.01512805098922        2.67376367297240
H            6.04468145918703       -2.72617156744647        3.09004881322080
H            4.73407810298118       -1.03812159482613        1.86218000207884
H            5.14817340218593        3.14019034969413        0.09320825531661
H            2.81748531094039        3.91462307061408        0.11555355594733
H            0.77337751471401        4.26142361479440       -0.92892590685382
H           -1.59624993589205        4.83723275246407       -0.72046349710504
H           -2.45337267621297        5.84170219571015        1.28099472633449
H           -3.96202091029299        7.72973250008688        1.76092541443392
H           -6.38948505048139        7.49604003807775        1.53961215424659
H           -7.39319352650299        5.34308768797858        0.85240769540807
H           -7.84171288759774        2.75259143652443        0.04785466019547
H           -7.61648609336604        0.39446400648194       -0.66363498499820
H           -5.39693955799487       -0.62789941125683       -0.91984398856511
H           -3.35716538272322        0.63555924963635       -0.43649574820321
H           -2.26408413159398        1.29905912334569        1.58357323667835
H            0.10334903278320        0.70645972663265        1.36009297736050
H            0.08268303539781        1.04918719960876       -1.86674316299386
H           -1.88257789514619       -0.40031623864899       -2.11563394205082
H           -5.86804639568663       -2.48034452624334       -2.93187665479434
H           -7.35334443878871       -4.39167269507103       -2.38663246204071
H           -6.63431183438881       -6.14630065715857       -0.84573381929770
H           -4.40094063508464       -6.09256450565798        0.21183690398193
H           -1.95047651171811       -6.47345184068551       -0.31967067830091
H           -0.82091209853622       -7.63900083950082        1.53908076100287

 projected vibrational frequencies (cm⁻¹)
eigval :       -0.00    -0.00    -0.00    -0.00    -0.00     0.00
eigval :        9.21    12.68    14.12    18.91    20.75    24.79
eigval :       31.48    35.11    46.10    50.32    61.79    67.90
eigval :       75.85    78.18    88.02    92.55    98.56   106.72
eigval :      107.13   118.23   126.71   129.62   147.14   147.80
eigval :      172.62   185.31   192.24   208.07   227.92   228.75
eigval :      238.21   242.17   248.21   265.17   271.67   272.16
eigval :      282.60   289.77   309.90   332.14   353.26   366.14
eigval :      370.69   378.09   378.41   383.99   388.13   392.03
eigval :      395.82   399.23   404.61   410.67   421.27   422.67
eigval :      434.02   436.74   437.80   460.53   472.83   479.96
eigval :      499.51   516.25   516.85   523.77   527.19   529.18
eigval :      538.72   539.48   539.68   541.90   559.42   574.16
eigval :      581.11   584.27   586.90   589.43   594.27   602.02
eigval :      607.28   609.75   614.66   621.90   636.12   657.03
eigval :      667.93   671.31   673.82   674.60   677.91   690.48
eigval :      695.07   702.36   707.66   709.48   711.14   741.04
eigval :      754.49   756.93   757.76   760.86   769.23   771.40
eigval :      779.57   782.66   783.19   800.49   804.72   820.24
eigval :      834.61   851.27   853.79   861.75   862.27   872.12
eigval :      873.34   875.38   877.17   880.86   881.24   885.76
eigval :      896.83   897.47   899.52   900.68   902.34   904.40
eigval :      904.67   907.18   907.59   913.06   915.78   917.16
eigval :      920.00   922.50   922.80   925.03   926.69   927.78
eigval :      928.19   930.65   938.25   939.01   970.80   987.96
eigval :      999.52  1011.03  1011.50  1016.08  1043.51  1055.12
eigval :     1069.61  1069.97  1072.75  1072.92  1078.44  1090.62
eigval :     1111.33  1115.01  1117.92  1128.12  1132.26  1137.83
eigval :     1138.73  1149.15  1149.66  1161.40  1170.87  1174.66
eigval :     1175.90  1179.62  1180.48  1180.65  1185.71  1186.81
eigval :     1191.88  1197.30  1204.98  1209.89  1226.40  1232.78
eigval :     1234.61  1239.15  1243.05  1251.39  1263.51  1265.23
eigval :     1273.11  1279.23  1281.04  1291.22  1295.12  1296.01
eigval :     1299.26  1305.44  1316.91  1317.96  1321.60  1331.42
eigval :     1344.64  1352.47  1354.90  1357.30  1358.86  1359.61
eigval :     1363.21  1369.01  1379.95  1386.43  1394.68  1412.39
eigval :     1415.49  1419.95  1422.44  1423.87  1429.46  1434.92
eigval :     1436.08  1457.11  1467.34  1470.41  1473.54  1481.25
eigval :     1483.87  1484.99  1486.74  1491.28  1492.85  1508.41
eigval :     1515.52  1560.26  1568.61  1571.64  1572.53  1574.77
eigval :     1579.96  1584.44  1586.21  1588.89  1589.64  1591.71
eigval :     1592.38  1606.48  1609.45  3073.83  3074.60  3075.99
eigval :     3077.94  3078.71  3078.73  3078.79  3079.27  3080.62
eigval :     3081.00  3081.30  3082.12  3083.28  3084.56  3084.71
eigval :     3084.86  3089.06  3090.49  3090.81  3091.71  3092.20
eigval :     3092.41  3092.91  3093.82  3094.01  3096.04  3096.67
eigval :     3097.74  3098.02  3098.22  3099.23  3101.13  3101.48
eigval :     3104.42  3107.28  3109.84

   temp. (K)  partition function   enthalpy   heat capacity  entropy
                                   cal/mol     cal/K/mol   cal/K/mol   J/K/mol
 298.15  VIB  0.908E+21            26932.891    173.034    166.780
         ROT  0.168E+09              888.752      2.981     40.624
         INT  0.153E+30            27821.643    176.015    207.404
         TR   0.200E+29             1481.254      4.968     45.715
         TOT                       29302.8973   180.9829   253.1192  1059.0506

       T/K    H(0)-H(T)+PV         H(T)/Eh          T*S/Eh         G(T)/Eh
   ------------------------------------------------------------------------
    298.15    0.466971E-01    0.773647E+00    0.120265E+00    0.653382E+00
   ------------------------------------------------------------------------

         :::::::::::::::::::::::::::::::::::::::::::::::::::::
         ::                  THERMODYNAMIC                  ::
         :::::::::::::::::::::::::::::::::::::::::::::::::::::
         :: total free energy        -147.192995836113 Eh   ::
         ::.................................................::
         :: total energy             -147.846377444357 Eh   ::
         :: zero point energy           0.726949558132 Eh   ::
         :: G(RRHO) w/o ZPVE           -0.073567949888 Eh   ::
         :: G(RRHO) contrib.            0.653381608244 Eh   ::
         :::::::::::::::::::::::::::::::::::::::::::::::::::::

           -------------------------------------------------
          | TOTAL ENERGY             -147.846377444357 Eh   |
          | TOTAL ENTHALPY           -147.072730746902 Eh   |
          | TOTAL FREE ENERGY        -147.192995836113 Eh   |
          | GRADIENT NORM               0.000078498555 Eh/α |
           -------------------------------------------------

 * finished run on 2025/08/22 at 08:02:29.921
