   * xtb version 6.7.1 (edcfbbe) compiled by 'albert@albert-system' on 2024-07-22

   ID    Z sym.   atoms
    1    6 C      1-4, 6-13, 15-33, 35-50, 52-59
    2    7 N      5, 14, 34, 51
    3    1 H      60-95

          program call               : xtb data2507/gas/CBPBM/CBPBM_gas_S0_finalOpt.xtbopt.xyz --gfn 2 --spinpol --tblite --uhf 2 --ohess vtight --parallel 40 --molden --ceasefiles --namespace data2507/gas/CBPBM/CBPBM_gas_T1_preOpt
 * total energy  :  -147.8318682 Eh     change        0.3411753E-07 Eh
 * total energy  :  -147.8362562 Eh     change       -0.4388042E-02 Eh
 * total energy  :  -147.8393223 Eh     change       -0.3066133E-02 Eh
 * total energy  :  -147.8401616 Eh     change       -0.8392658E-03 Eh
 * total energy  :  -147.8413426 Eh     change       -0.1181018E-02 Eh
 * total energy  :  -147.8417576 Eh     change       -0.4149376E-03 Eh
 * total energy  :  -147.8420799 Eh     change       -0.3223678E-03 Eh
 * total energy  :  -147.8423381 Eh     change       -0.2581879E-03 Eh
 * total energy  :  -147.8425541 Eh     change       -0.2159536E-03 Eh
 * total energy  :  -147.8427423 Eh     change       -0.1882816E-03 Eh
 * total energy  :  -147.8463723 Eh     change       -0.3369784E-06 Eh
 * total energy  :  -147.8463726 Eh     change       -0.3551731E-06 Eh
 * total energy  :  -147.8463729 Eh     change       -0.3047391E-06 Eh
 * total energy  :  -147.8463731 Eh     change       -0.1745264E-06 Eh
 * total energy  :  -147.8463733 Eh     change       -0.1420655E-06 Eh
 * total energy  :  -147.8463734 Eh     change       -0.1664963E-06 Eh
 * total energy  :  -147.8463737 Eh     change       -0.2728495E-06 Eh
 * total energy  :  -147.8463737 Eh     change        0.3575553E-07 Eh
 * total energy  :  -147.8463737 Eh     change       -0.3855726E-07 Eh
   *** GEOMETRY OPTIMIZATION CONVERGED AFTER 123 ITERATIONS ***

 final structure:
================
95
 xtb: 6.7.1 (edcfbbe)
C           -1.07812702418045       -5.51159757405439        3.20244846978578
C           -1.26989519281503       -4.13972295286304        3.15265236380912
C           -1.83721944623199       -3.55528778893241        2.03726301832616
C           -2.20546754775063       -4.34743563294671        0.95130210965189
N           -2.81023137437157       -3.76639925526889       -0.17195980291835
C           -2.41542063263227       -2.63473814024575       -0.89298647322901
C           -1.16445250057884       -1.99145748543381       -0.83558646858457
C            0.00082901542974       -2.50338024477193       -0.18954868908978
C            1.13594509796895       -1.76047075590756       -0.09382524166669
C            1.19407919401500       -0.42298162123402       -0.57690357758924
C            2.27127621258175        0.45917247203669       -0.26817806486755
C            3.58741267436017       -0.01528620528923       -0.13341400741878
C            4.65438961544010        0.84768681934933       -0.03259531375026
N            5.95694859338573        0.35201562038809        0.07939138890781
C            7.04663350161069        0.76405074598518       -0.66084249753757
C            7.11334261486604        1.68213971753452       -1.69979805521632
C            8.34288890066775        1.89642421805983       -2.29325901692257
C            9.48072233628720        1.20854707469614       -1.87831023715173
C            9.41470722507745        0.27119216952100       -0.86537510593278
C            8.19125299197818        0.03992002033074       -0.25310435898441
C            7.75899774565083       -0.85360114754760        0.78619500707481
C            8.41461021764470       -1.78854688869990        1.57466911888426
C            7.68662808852149       -2.48154775146172        2.52246772850270
C            6.32659970170569       -2.23853225955355        2.69963417918824
C            5.65228621571759       -1.31246767561678        1.92666381478815
C            6.37243217496748       -0.63157257456535        0.95507613287764
C            4.44027125250498        2.24518014203498       -0.04730005509315
C            3.15731189945534        2.73219119993582       -0.11211292706005
C            2.05357166711050        1.88006419205600       -0.16361187016134
C            0.71101941096815        2.39540597369083        0.00096452338396
C            0.29205567419715        3.59333757480435       -0.59801962884508
C           -1.02430241573231        3.98943751544609       -0.54979195096154
C           -1.97042383952980        3.21634961462026        0.13056674030383
N           -3.32544656066519        3.53777664592344        0.09753535810143
C           -3.89125644626953        4.77969358854759        0.30432665412354
C           -3.28847669598544        5.97714137938213        0.66284579691118
C           -4.10114781934499        7.08151530130648        0.83910314615985
C           -5.48164345817208        7.00104876417070        0.67595104680824
C           -6.09056392727842        5.80440419672599        0.34726574892433
C           -5.29583622518410        4.68268793885449        0.16362940311516
C           -5.58148442235047        3.30917730035563       -0.15386640376628
C           -6.75189167971955        2.61615623190366       -0.42968384476724
C           -6.66731098169840        1.27178683507686       -0.74048030827238
C           -5.43571222338614        0.62374936473767       -0.79542738776550
C           -4.25777690161358        1.29300521955817       -0.52170428914995
C           -4.33900297401422        2.63632087665653       -0.18185145036483
C           -1.54471741476209        2.08186919006845        0.82632809106343
C           -0.23538209237547        1.67930609009462        0.75853132606733
C            0.09093959055591        0.00676510383009       -1.38106109457810
C           -1.02434451682841       -0.74982219857260       -1.52113259993301
N           -3.38093397891475       -2.23253298655096       -1.72928005132374
C           -4.39895080256373       -3.09894696223561       -1.59015644470820
C           -5.64353557249397       -3.13578189748973       -2.22901511338640
C           -6.52177831649065       -4.13145203503312       -1.86576337123190
C           -6.19816966150877       -5.07646086622257       -0.88761907670944
C           -4.97160247875990       -5.06576737093164       -0.24224934235528
C           -4.07411282134716       -4.08265063461740       -0.61079349034649
C           -2.01520273898954       -5.72479353188296        1.00244428009144
C           -1.45307061841402       -6.30017301842122        2.12738093388399
H           -0.63798900256975       -5.96468767446231        4.07782513977933
H           -0.98343777193999       -3.52270304543666        3.99134839149357
H           -1.99600536922229       -2.48784925869749        1.99217392140986
H           -0.01069023522396       -3.50421804852908        0.21324723550132
H            1.98918988438951       -2.17057708013604        0.42662940346899
H            3.77721728045796       -1.07585321385413       -0.19991440580866
H            6.23281851893088        2.20240447867959       -2.04467534336395
H            8.42176529892171        2.60874603637001       -3.10115780926263
H           10.42367110254626        1.40529935389731       -2.36623142160778
H           10.29297884716109       -0.27554840093059       -0.55701399600033
H            9.47242036399228       -1.96393885069479        1.44978499711715
H            8.17690266169943       -3.21608197392279        3.14379147821407
H            5.78734168413763       -2.78390351096408        3.46004474154086
H            4.60249072180945       -1.11725296624256        2.08455771024134
H            5.28131528230602        2.91180844534537        0.06035526193135
H            2.99359214198887        3.79815921188605       -0.04650473028327
H            0.99826354459920        4.17228185758514       -1.17455748990793
H           -1.34590281859971        4.86985560667733       -1.08585949548539
H           -2.22193655747663        6.04461146103619        0.81451262061413
H           -3.65566776349168        8.02602618993314        1.11427176259043
H           -6.08261772475003        7.88645417455565        0.82002934027959
H           -7.16265823219673        5.73898767933705        0.23961234416621
H           -7.70506228069135        3.12278789343451       -0.40860999030513
H           -7.56679526171430        0.71479394092893       -0.95673003608528
H           -5.39039886616405       -0.41995877756896       -1.06555336221666
H           -3.31081521583934        0.78083343216219       -0.59052485641476
H           -2.25610837177293        1.52965195367391        1.42156786938602
H            0.08576389687871        0.81514238751602        1.32005664011979
H            0.18264041976181        0.93410592514344       -1.92662822140417
H           -1.84499272987122       -0.43319234425246       -2.14518712159515
H           -5.89001603769407       -2.40034611603676       -2.97809268007886
H           -7.49013028870289       -4.18696394942003       -2.34136556368965
H           -6.92286167256627       -5.83361162206838       -0.62760441580088
H           -4.73466831509091       -5.79274497845260        0.52037140867355
H           -2.29463555689803       -6.33219697112446        0.15432020164953
H           -1.30295802552887       -7.36909177598956        2.16178181186251

 projected vibrational frequencies (cm⁻¹)
eigval :       -0.00    -0.00    -0.00     0.00     0.00     0.00
eigval :        9.35    12.88    14.17    19.02    20.85    24.93
eigval :       31.55    35.37    46.27    50.76    61.99    67.97
eigval :       75.79    78.37    88.03    92.75    98.49   106.67
eigval :      107.08   118.29   126.65   129.55   147.20   147.88
eigval :      172.87   185.20   192.61   208.17   228.00   228.96
eigval :      238.33   242.08   248.35   265.32   271.68   272.26
eigval :      282.79   289.94   309.77   331.95   353.19   366.09
eigval :      370.44   378.10   378.59   384.02   388.11   392.09
eigval :      395.91   399.23   404.60   410.72   421.35   422.74
eigval :      433.97   436.79   437.81   460.69   472.98   480.20
eigval :      499.61   516.28   516.88   523.80   527.19   529.21
eigval :      538.79   539.55   539.67   541.98   559.56   574.16
eigval :      581.14   584.22   586.91   589.40   594.24   602.07
eigval :      607.36   609.84   614.74   621.92   636.09   657.03
eigval :      667.94   671.13   673.85   674.61   677.91   690.36
eigval :      695.07   702.29   707.68   709.49   711.18   740.99
eigval :      754.45   756.91   757.89   761.09   769.34   771.66
eigval :      779.68   782.62   783.49   800.93   805.31   820.44
eigval :      834.88   851.52   853.89   861.77   862.85   872.40
eigval :      873.58   875.55   877.15   881.20   881.97   885.90
eigval :      896.85   897.48   899.69   900.93   902.59   904.67
eigval :      905.25   907.50   907.88   913.27   915.93   917.18
eigval :      920.11   922.68   922.96   925.08   926.78   927.98
eigval :      928.38   930.95   938.19   939.30   970.86   987.64
eigval :      999.35  1010.97  1011.52  1015.89  1043.48  1055.10
eigval :     1069.69  1069.99  1072.75  1072.97  1078.50  1090.41
eigval :     1111.17  1115.03  1118.02  1128.02  1132.15  1137.64
eigval :     1138.52  1149.28  1149.75  1161.29  1170.74  1174.75
eigval :     1175.97  1179.66  1180.68  1180.74  1185.76  1186.92
eigval :     1191.80  1197.16  1205.05  1209.86  1226.35  1232.82
eigval :     1234.77  1239.05  1242.82  1251.38  1263.44  1265.28
eigval :     1272.91  1279.36  1280.92  1291.20  1295.12  1295.95
eigval :     1299.13  1305.52  1317.02  1318.03  1321.59  1331.20
eigval :     1344.59  1352.46  1354.86  1357.29  1358.83  1359.62
eigval :     1363.25  1368.97  1380.19  1386.63  1394.66  1412.23
eigval :     1415.43  1419.96  1422.69  1423.77  1429.34  1434.87
eigval :     1436.11  1456.99  1467.24  1470.27  1473.43  1481.17
eigval :     1483.81  1484.86  1486.66  1491.00  1492.91  1508.04
eigval :     1514.96  1560.11  1568.42  1571.60  1572.50  1574.66
eigval :     1579.79  1584.33  1586.14  1588.83  1589.53  1591.67
eigval :     1592.36  1606.26  1609.29  3073.69  3074.83  3076.03
eigval :     3078.02  3078.75  3078.78  3078.87  3079.29  3080.67
eigval :     3081.03  3081.20  3082.19  3083.38  3084.63  3084.77
eigval :     3084.94  3089.13  3090.60  3090.85  3091.78  3092.26
eigval :     3092.42  3092.99  3093.68  3094.14  3096.14  3096.74
eigval :     3097.74  3098.03  3098.20  3099.27  3100.46  3101.33
eigval :     3104.70  3107.14  3109.85

   temp. (K)  partition function   enthalpy   heat capacity  entropy
                                   cal/mol     cal/K/mol   cal/K/mol   J/K/mol
 298.15  VIB  0.839E+21            26926.832    173.042    166.703
         ROT  0.168E+09              888.752      2.981     40.618
         INT  0.141E+30            27815.584    176.023    207.320
         TR   0.200E+29             1481.254      4.968     45.715
         TOT                       29296.8381   180.9908   253.0350  1058.6984

       T/K    H(0)-H(T)+PV         H(T)/Eh          T*S/Eh         G(T)/Eh
   ------------------------------------------------------------------------
    298.15    0.466875E-01    0.773660E+00    0.120225E+00    0.653435E+00
   ------------------------------------------------------------------------

         :::::::::::::::::::::::::::::::::::::::::::::::::::::
         ::                  THERMODYNAMIC                  ::
         :::::::::::::::::::::::::::::::::::::::::::::::::::::
         :: total free energy        -147.192938808461 Eh   ::
         ::.................................................::
         :: total energy             -147.846373706499 Eh   ::
         :: zero point energy           0.726972505032 Eh   ::
         :: G(RRHO) w/o ZPVE           -0.073537606994 Eh   ::
         :: G(RRHO) contrib.            0.653434898038 Eh   ::
         :::::::::::::::::::::::::::::::::::::::::::::::::::::

           -------------------------------------------------
          | TOTAL ENERGY             -147.846373706499 Eh   |
          | TOTAL ENTHALPY           -147.072713718232 Eh   |
          | TOTAL FREE ENERGY        -147.192938808461 Eh   |
          | GRADIENT NORM               0.000095048756 Eh/α |
           -------------------------------------------------

 * finished run on 2025/08/22 at 07:57:11.520
