   * xtb version 6.7.1 (edcfbbe) compiled by 'albert@albert-system' on 2024-07-22

   ID    Z sym.   atoms
    1    6 C      1-4, 6-13, 15-33, 35-50, 52-59
    2    7 N      5, 14, 34, 51
    3    1 H      60-95

          program call               : xtb data2507/gas/CBPBM/CBPBM_gas_S0_crest.xyz --gfn 2 --ohess vtight --parallel 40 --molden --ceasefiles --namespace data2507/gas/CBPBM/CBPBM_gas_S0_finalOpt
          :  Hamiltonian                  GFN2-xTB          :
 * total energy  :  -147.9347345 Eh     change       -0.2698897E-08 Eh
 * total energy  :  -147.9347351 Eh     change       -0.5921723E-06 Eh
 * total energy  :  -147.9347355 Eh     change       -0.3815067E-06 Eh
 * total energy  :  -147.9347362 Eh     change       -0.7395888E-06 Eh
 * total energy  :  -147.9347368 Eh     change       -0.5363045E-06 Eh
 * total energy  :  -147.9347373 Eh     change       -0.5596509E-06 Eh
 * total energy  :  -147.9347377 Eh     change       -0.3620314E-06 Eh
 * total energy  :  -147.9347379 Eh     change       -0.1893557E-06 Eh
 * total energy  :  -147.9347381 Eh     change       -0.1661193E-06 Eh
 * total energy  :  -147.9347382 Eh     change       -0.1611532E-06 Eh
 * total energy  :  -147.9347388 Eh     change       -0.1676737E-06 Eh
 * total energy  :  -147.9347389 Eh     change       -0.1178562E-06 Eh
 * total energy  :  -147.9347390 Eh     change       -0.1050211E-06 Eh
 * total energy  :  -147.9347391 Eh     change       -0.1169255E-06 Eh
 * total energy  :  -147.9347393 Eh     change       -0.1668935E-06 Eh
 * total energy  :  -147.9347395 Eh     change       -0.1959455E-06 Eh
 * total energy  :  -147.9347396 Eh     change       -0.1459940E-06 Eh
 * total energy  :  -147.9347397 Eh     change       -0.1000158E-06 Eh
 * total energy  :  -147.9347398 Eh     change       -0.7367035E-07 Eh
   *** GEOMETRY OPTIMIZATION CONVERGED AFTER 21 ITERATIONS ***

 final structure:
================
95
 xtb: 6.7.1 (edcfbbe)
C           -2.10696537523969       -3.32576068524932        3.88730537549749
C           -2.11580260235998       -2.13335709276598        3.18158342508196
C           -2.40145211318375       -2.12657547760787        1.82984760124818
C           -2.66733552603660       -3.32440296414864        1.17392189286488
N           -2.95640922698420       -3.32225280935747       -0.19988982162297
C           -2.25941376097114       -2.69314368428787       -1.21339725661526
C           -0.99598755037655       -2.00196480665744       -1.01177424188502
C           -0.03318249118049       -2.44283984917415       -0.10639570026414
C            1.10700609433358       -1.69474236216011        0.11401306865718
C            1.30264153113886       -0.48846234381110       -0.55032124543656
C            2.42873387163579        0.39888631143885       -0.20487811860482
C            3.73697547952255       -0.05181882367837       -0.27606618443939
C            4.79756952437775        0.80105051020514        0.01408133029684
N            6.11373523042675        0.32803376411175       -0.04710331730276
C            7.16473269788278        0.93392793812677       -0.70739740041338
C            7.17426524649496        2.07764356631448       -1.49278860423108
C            8.37252213373277        2.45542574858632       -2.06771939015651
C            9.53647869994538        1.71377565959644       -1.87839941765919
C            9.52763363195822        0.56097697473103       -1.11908669836061
C            8.33510607257807        0.16080107257902       -0.53095435377100
C            7.96341344152772       -0.96331587281876        0.28191681596817
C            8.66772263098194       -2.04258634065585        0.79891573274446
C            7.99435024789872       -2.95761959580632        1.58309904553579
C            6.63983375270049       -2.79815466740185        1.86652463838868
C            5.91806849165424       -1.73259792912455        1.36388310328678
C            6.58342431690522       -0.82302579361901        0.55462155073184
C            4.53984677553883        2.12342575822255        0.36469443448423
C            3.23645722451173        2.57572970910692        0.43636929615078
C            2.16989351213137        1.72580000861347        0.17336266454724
C            0.77426727929230        2.17856007864080        0.30076705378058
C            0.30592095221697        3.28686873044798       -0.39703015047145
C           -1.03949822937132        3.60385338392915       -0.39829358293573
C           -1.93743291233809        2.82176744300341        0.32024353313888
N           -3.31773769566840        3.04354822273295        0.24591346382728
C           -3.98778137518582        4.22887074689118        0.46493745053115
C           -3.48766322252945        5.47118285850418        0.82624852206117
C           -4.39103153017764        6.50064307187381        1.00860059818613
C           -5.76051957097592        6.30355075231763        0.84542665526866
C           -6.26515752839432        5.06403689605843        0.50595399308505
C           -5.37774965393849        4.01320872067157        0.31568556553441
C           -5.54296016601658        2.62639016623476       -0.02188096532141
C           -6.64624296403276        1.83284915197996       -0.30987924446296
C           -6.44138661580816        0.50766940271991       -0.63875184436558
C           -5.15607869097807       -0.02665690055811       -0.70343153929486
C           -4.04388613061539        0.74164212944197       -0.41894375957193
C           -4.24632291202566        2.06599046180318       -0.05641046536715
C           -1.45963407909362        1.77011104945028        1.09876117416573
C           -0.12041239373315        1.44954632150830        1.08254668446027
C            0.38092866181777       -0.09757216941959       -1.52036946828179
C           -0.75016809455665       -0.84739317041595       -1.75523268188033
N           -2.85890163478760       -2.77794591168473       -2.36888002214496
C           -4.00875968516980       -3.48475721397896       -2.15164761530015
C           -5.02334643777597       -3.84677870726077       -3.03127282898123
C           -6.09658427827266       -4.54245984612194       -2.51740431890229
C           -6.17737704898706       -4.87071260782893       -1.16213828727033
C           -5.18156280610687       -4.52349282292640       -0.27130550260091
C           -4.09136003574101       -3.83935393559794       -0.78378524084658
C           -2.66182773469460       -4.52146644795662        1.88096447139472
C           -2.38398924512898       -4.51593490542977        3.23617184849094
H           -1.88652207810447       -3.32688287459098        4.94402319782730
H           -1.90657849307151       -1.20311170111339        3.68863899712782
H           -2.42201276096113       -1.20207346655363        1.27381387715144
H           -0.17375253363929       -3.37029818710101        0.42905834991623
H            1.83590948082789       -2.02925509106247        0.83847943228506
H            3.93645941641397       -1.06534462506196       -0.59160871454869
H            6.27393758048821        2.64898425103485       -1.66170682907629
H            8.40648008196631        3.34386345178958       -2.68102196940434
H           10.45382877480084        2.04413797711475       -2.34246023189309
H           10.42550609840834       -0.02348520602698       -0.98605795533594
H            9.72120570133563       -2.15677058281616        0.59267148885804
H            8.52273436733646       -3.80557303218045        1.99278383166443
H            6.14345813535191       -3.52177345689382        2.49644461605347
H            4.87335041338339       -1.60721728894236        1.60568421582104
H            5.36096143254393        2.78284768894230        0.60134058564961
H            3.03753972415355        3.59617211623864        0.73006555413441
H            0.99533428953212        3.87320021016511       -0.98732999483806
H           -1.40495035587959        4.43166688201625       -0.98734925257208
H           -2.42889494839856        5.62746638053409        0.96951343753770
H           -4.02785725846702        7.47915452630273        1.28660430123667
H           -6.43395132993865        7.13437787227662        0.99481771206213
H           -7.32756095282652        4.90940614962058        0.39219954427841
H           -7.64142581578840        2.25063959004792       -0.28344927306128
H           -7.28506326569083       -0.12689442774691       -0.86567224409990
H           -5.02983058397516       -1.05898093179722       -0.99451406497448
H           -3.04743946701580        0.33202639462212       -0.50185826780235
H           -2.15275843267023        1.20707019102570        1.70612783122545
H            0.24095313824800        0.62230350090907        1.67535697668055
H            0.55229981969004        0.80947461852020       -2.08070785346040
H           -1.47466113642120       -0.54536020432288       -2.49553281199494
H           -4.96246887108307       -3.57869189386918       -4.07355859052082
H           -6.90238557029523       -4.83765210194435       -3.17310529818527
H           -7.04281872933465       -5.40731274916934       -0.80250544219498
H           -5.25377141840045       -4.76661498599551        0.77844010630882
H           -2.86192181061806       -5.44807051269504        1.36340130319877
H           -2.37867293376999       -5.44673256451577        3.78353159969968

          :  Hamiltonian                  GFN2-xTB          :
         :: gradient norm              0.000027150169 Eh/a0 ::
         :: HOMO-LUMO gap              2.516363281137 eV    ::
         :: SCC energy              -150.736454305255 Eh    ::
         :: -> dispersion             -0.145782597886 Eh    ::
         :: repulsion energy           2.801714504629 Eh    ::

    * Orbital Energies and Occupations

         #    Occupation            Energy/Eh            Energy/eV
      -------------------------------------------------------------
         1        2.0000           -0.6871140             -18.6973
       ...           ...                  ...                  ...
       126        2.0000           -0.4147804             -11.2867
       127        2.0000           -0.4120071             -11.2113
       128        2.0000           -0.4085671             -11.1177
       129        2.0000           -0.4049759             -11.0200
       130        2.0000           -0.4032475             -10.9729
       131        2.0000           -0.3975560             -10.8180
       132        2.0000           -0.3811535             -10.3717
       133        2.0000           -0.3785927             -10.3020
       134        2.0000           -0.3784263             -10.2975
       135        2.0000           -0.3766525             -10.2492
       136        2.0000           -0.3760728             -10.2335
       137        2.0000           -0.3636931              -9.8966
       138        2.0000           -0.3598078              -9.7909 (HOMO)
       139                         -0.2673331              -7.2745 (LUMO)
       140                         -0.2555438              -6.9537
       141                         -0.2445060              -6.6533
       142                         -0.2436763              -6.6308
       143                         -0.2419251              -6.5831
       144                         -0.2415722              -6.5735
       145                         -0.2364549              -6.4343
       146                         -0.2344124              -6.3787
       147                         -0.2303027              -6.2669
       148                         -0.2233597              -6.0779
       149                         -0.2216673              -6.0319
       ...                                ...                  ...
       272                          0.7476539              20.3447
      -------------------------------------------------------------
                  HL-Gap            0.0924746 Eh            2.5164 eV

     #   Z          covCN         q      C6AA      α(0)
     1   6 C        2.920    -0.031    28.781     8.797
     2   6 C        2.920    -0.026    28.655     8.778
     3   6 C        2.922    -0.039    28.973     8.827
     4   6 C        2.913     0.067    26.501     8.441
     5   7 N        2.825    -0.052    22.244     7.005
     6   6 C        3.183     0.137    24.622     8.099
     7   6 C        2.976     0.002    27.972     8.675
     8   6 C        2.921    -0.032    28.805     8.801
     9   6 C        2.923    -0.033    28.825     8.805
    10   6 C        2.978     0.014    27.696     8.633
    11   6 C        2.982     0.008    27.845     8.656
    12   6 C        2.925    -0.048    29.190     8.860
    13   6 C        2.912     0.063    26.584     8.455
    14   7 N        2.803    -0.043    22.078     6.979
    15   6 C        3.075     0.047    26.876     8.500
    16   6 C        2.910    -0.051    29.263     8.870
    17   6 C        2.924    -0.033    28.830     8.805
    18   6 C        2.920    -0.041    29.010     8.833
    19   6 C        2.913    -0.033    28.813     8.802
    20   6 C        3.068    -0.017    28.358     8.732
    21   6 C        3.068    -0.017    28.355     8.731
    22   6 C        2.913    -0.033    28.812     8.802
    23   6 C        2.920    -0.041    29.013     8.833
    24   6 C        2.924    -0.034    28.835     8.806
    25   6 C        2.910    -0.051    29.256     8.869
    26   6 C        3.076     0.047    26.876     8.500
    27   6 C        2.920    -0.046    29.139     8.852
    28   6 C        2.922    -0.034    28.843     8.807
    29   6 C        2.982     0.002    27.976     8.676
    30   6 C        2.978     0.009    27.805     8.650
    31   6 C        2.924    -0.033    28.825     8.805
    32   6 C        2.920    -0.043    29.066     8.841
    33   6 C        2.914     0.063    26.578     8.454
    34   7 N        2.804    -0.045    22.102     6.982
    35   6 C        3.074     0.047    26.874     8.500
    36   6 C        2.910    -0.051    29.272     8.872
    37   6 C        2.924    -0.034    28.836     8.806
    38   6 C        2.920    -0.041    29.021     8.834
    39   6 C        2.913    -0.033    28.814     8.802
    40   6 C        3.069    -0.017    28.361     8.732
    41   6 C        3.066    -0.017    28.367     8.733
    42   6 C        2.913    -0.033    28.812     8.802
    43   6 C        2.920    -0.040    28.996     8.830
    44   6 C        2.924    -0.030    28.761     8.795
    45   6 C        2.910    -0.049    29.211     8.862
    46   6 C        3.078     0.046    26.884     8.501
    47   6 C        2.923    -0.043    29.065     8.841
    48   6 C        2.925    -0.032    28.790     8.799
    49   6 C        2.924    -0.030    28.759     8.794
    50   6 C        2.926    -0.027    28.686     8.783
    51   7 N        1.886    -0.291    28.405     7.901
    52   6 C        3.192     0.068    26.006     8.316
    53   6 C        2.910    -0.042    29.032     8.835
    54   6 C        2.923    -0.039    28.965     8.826
    55   6 C        2.927    -0.036    28.904     8.817
    56   6 C        2.907    -0.051    29.256     8.869
    57   6 C        3.088     0.035    27.117     8.536
    58   6 C        2.922    -0.041    29.007     8.832
    59   6 C        2.920    -0.027    28.684     8.783
    60   1 H        0.926     0.038     2.475     2.460
    61   1 H        0.926     0.037     2.491     2.468
    62   1 H        0.926     0.038     2.470     2.458
    63   1 H        0.926     0.030     2.581     2.512
    64   1 H        0.926     0.032     2.554     2.499
    65   1 H        0.926     0.044     2.401     2.423
    66   1 H        0.926     0.027     2.629     2.536
    67   1 H        0.926     0.029     2.599     2.521
    68   1 H        0.926     0.028     2.611     2.527
    69   1 H        0.926     0.031     2.571     2.507
    70   1 H        0.926     0.031     2.569     2.506
    71   1 H        0.926     0.028     2.614     2.528
    72   1 H        0.926     0.028     2.614     2.528
    73   1 H        0.926     0.025     2.663     2.552
    74   1 H        0.926     0.043     2.412     2.429
    75   1 H        0.926     0.038     2.471     2.458
    76   1 H        0.926     0.037     2.484     2.465
    77   1 H        0.926     0.043     2.410     2.428
    78   1 H        0.926     0.026     2.646     2.544
    79   1 H        0.926     0.028     2.608     2.525
    80   1 H        0.926     0.028     2.619     2.531
    81   1 H        0.926     0.031     2.575     2.509
    82   1 H        0.926     0.031     2.567     2.506
    83   1 H        0.926     0.029     2.607     2.525
    84   1 H        0.926     0.027     2.626     2.534
    85   1 H        0.926     0.021     2.721     2.580
    86   1 H        0.926     0.037     2.482     2.464
    87   1 H        0.926     0.033     2.548     2.496
    88   1 H        0.926     0.035     2.517     2.481
    89   1 H        0.926     0.055     2.256     2.349
    90   1 H        0.926     0.044     2.396     2.420
    91   1 H        0.926     0.032     2.561     2.503
    92   1 H        0.926     0.031     2.576     2.510
    93   1 H        0.926     0.026     2.646     2.544
    94   1 H        0.926     0.043     2.414     2.430
    95   1 H        0.926     0.039     2.460     2.453

molecular dipole:
                 x           y           z       tot (Debye)
 q only:        0.377       0.188       0.928
   full:        0.286       0.032       1.310       3.409

 projected vibrational frequencies (cm⁻¹)
eigval :       -0.00    -0.00    -0.00    -0.00     0.00     0.00
eigval :       13.11    13.81    15.92    17.29    21.17    24.48
eigval :       30.80    39.43    43.69    49.40    60.84    64.90
eigval :       73.34    76.61    83.24    91.88   102.82   103.26
eigval :      108.18   109.26   110.58   128.98   145.24   147.76
eigval :      175.12   178.10   191.88   209.54   221.34   227.20
eigval :      231.33   242.37   248.67   260.32   271.67   272.24
eigval :      289.06   301.23   320.58   342.51   360.43   369.90
eigval :      373.23   377.94   380.81   384.54   385.53   393.17
eigval :      395.02   400.86   407.28   421.27   422.13   424.99
eigval :      434.77   437.06   451.08   477.19   482.56   501.49
eigval :      510.73   518.00   519.71   529.51   531.50   537.77
eigval :      541.20   541.74   546.89   549.16   570.64   580.97
eigval :      585.22   588.68   592.37   596.82   600.09   610.04
eigval :      612.50   617.50   634.74   645.28   659.95   667.96
eigval :      670.42   673.87   674.19   688.44   700.85   702.98
eigval :      708.48   708.91   710.89   715.36   721.85   750.44
eigval :      755.52   759.52   763.02   769.26   770.67   774.67
eigval :      780.59   782.32   800.82   819.39   823.36   839.92
eigval :      867.51   867.88   867.90   869.32   872.31   873.97
eigval :      874.51   876.91   881.32   887.21   894.10   897.82
eigval :      898.19   899.16   902.19   902.34   902.69   905.69
eigval :      906.12   918.48   919.12   920.32   922.35   922.84
eigval :      922.98   924.74   926.92   927.76   928.62   931.61
eigval :      932.71   936.09   949.07   962.28  1000.64  1003.07
eigval :     1012.50  1012.82  1026.28  1036.19  1060.22  1069.64
eigval :     1070.37  1073.50  1073.91  1081.10  1086.94  1116.80
eigval :     1117.72  1117.96  1133.49  1133.98  1134.97  1136.38
eigval :     1150.54  1152.27  1154.53  1174.66  1175.74  1176.83
eigval :     1179.34  1181.45  1182.00  1183.14  1187.15  1192.16
eigval :     1195.77  1201.42  1207.66  1232.01  1236.93  1236.99
eigval :     1241.04  1244.71  1258.69  1266.42  1266.66  1270.41
eigval :     1278.44  1290.09  1294.67  1299.22  1303.53  1304.45
eigval :     1305.49  1309.55  1314.78  1317.08  1319.04  1324.26
eigval :     1356.13  1357.86  1360.66  1362.16  1362.63  1365.37
eigval :     1376.87  1378.06  1396.18  1405.62  1414.81  1418.61
eigval :     1428.14  1428.62  1430.82  1437.01  1438.75  1471.32
eigval :     1476.32  1477.04  1478.45  1486.10  1488.40  1488.58
eigval :     1489.81  1506.28  1537.26  1550.88  1562.08  1564.53
eigval :     1574.92  1575.20  1583.77  1587.73  1589.15  1589.68
eigval :     1590.20  1595.99  1598.52  1599.21  1599.42  1600.06
eigval :     1614.90  1615.44  1617.37  3072.93  3073.48  3075.41
eigval :     3075.44  3075.63  3076.46  3077.98  3079.74  3080.79
eigval :     3080.88  3081.15  3081.24  3081.47  3081.64  3082.41
eigval :     3083.26  3086.92  3087.50  3087.76  3087.89  3089.20
eigval :     3089.57  3090.30  3091.81  3092.62  3092.84  3094.39
eigval :     3095.25  3095.51  3096.92  3097.71  3097.83  3098.94
eigval :     3105.21  3105.76  3110.16

   temp. (K)  partition function   enthalpy   heat capacity  entropy
                                   cal/mol     cal/K/mol   cal/K/mol   J/K/mol
 298.15  VIB  0.637E+21            26732.265    171.056    165.793
         ROT  0.153E+09              888.752      2.981     40.439
         INT  0.977E+29            27621.017    174.037    206.232
         TR   0.200E+29             1481.254      4.968     45.715
         TOT                       29102.2708   179.0054   251.9466  1054.1447

       T/K    H(0)-H(T)+PV         H(T)/Eh          T*S/Eh         G(T)/Eh
   ------------------------------------------------------------------------
    298.15    0.463774E-01    0.777616E+00    0.119708E+00    0.657908E+00
   ------------------------------------------------------------------------

         :::::::::::::::::::::::::::::::::::::::::::::::::::::
         ::                  THERMODYNAMIC                  ::
         :::::::::::::::::::::::::::::::::::::::::::::::::::::
         :: total free energy        -147.276831983862 Eh   ::
         ::.................................................::
         :: total energy             -147.934739800621 Eh   ::
         :: zero point energy           0.731238375506 Eh   ::
         :: G(RRHO) w/o ZPVE           -0.073330558747 Eh   ::
         :: G(RRHO) contrib.            0.657907816759 Eh   ::
         :::::::::::::::::::::::::::::::::::::::::::::::::::::

           -------------------------------------------------
          | TOTAL ENERGY             -147.934739800621 Eh   |
          | TOTAL ENTHALPY           -147.157124004555 Eh   |
          | TOTAL FREE ENERGY        -147.276831983862 Eh   |
          | GRADIENT NORM               0.000027150846 Eh/α |
          | HOMO-LUMO GAP               2.516362994412 eV   |
           -------------------------------------------------

 * finished run on 2025/08/22 at 07:56:46.289
