   * xtb version 6.7.1 (edcfbbe) compiled by 'albert@albert-system' on 2024-07-22

   ID    Z sym.   atoms
    1    8 O      1, 3, 23, 24
    2    6 C      2, 4-22, 25-34
    3    1 H      35-56

          program call               : xtb data2507/gas/TABD-COOH/TABD-COOH_gas_S0_crest.xyz --gfn 2 --ohess vtight --parallel 40 --molden --ceasefiles --namespace data2507/gas/TABD-COOH/TABD-COOH_gas_S0_finalOpt
          :  Hamiltonian                  GFN2-xTB          :
 * total energy  :   -91.6962947 Eh     change       -0.1547804E-08 Eh
 * total energy  :   -91.6962969 Eh     change       -0.2126752E-05 Eh
 * total energy  :   -91.6962995 Eh     change       -0.2662683E-05 Eh
 * total energy  :   -91.6963030 Eh     change       -0.3504362E-05 Eh
 * total energy  :   -91.6963062 Eh     change       -0.3196111E-05 Eh
 * total energy  :   -91.6963086 Eh     change       -0.2417435E-05 Eh
 * total energy  :   -91.6963105 Eh     change       -0.1871797E-05 Eh
 * total energy  :   -91.6963122 Eh     change       -0.1715006E-05 Eh
 * total energy  :   -91.6963141 Eh     change       -0.1907869E-05 Eh
 * total energy  :   -91.6963164 Eh     change       -0.2277177E-05 Eh
 * total energy  :   -91.6963481 Eh     change       -0.7730746E-06 Eh
 * total energy  :   -91.6963489 Eh     change       -0.7562787E-06 Eh
 * total energy  :   -91.6963496 Eh     change       -0.7442141E-06 Eh
 * total energy  :   -91.6963504 Eh     change       -0.7385663E-06 Eh
 * total energy  :   -91.6963511 Eh     change       -0.7386269E-06 Eh
 * total energy  :   -91.6963519 Eh     change       -0.7425324E-06 Eh
 * total energy  :   -91.6963526 Eh     change       -0.7484246E-06 Eh
 * total energy  :   -91.6963534 Eh     change       -0.7526636E-06 Eh
 * total energy  :   -91.6963534 Eh     change       -0.6621505E-08 Eh
   *** GEOMETRY OPTIMIZATION CONVERGED AFTER 44 ITERATIONS ***

 final structure:
================
56
 xtb: 6.7.1 (edcfbbe)
O           -1.14391835853234        3.22714228435971       -3.50444116437040
C           -0.28581654336773        3.16317013104604       -2.65742858426462
O            0.28923660927656        4.26743280145084       -2.15092981225670
C            0.22779158609401        1.91005264391477       -2.07343046635678
C            1.19915973039799        1.90855904651869       -1.07478918999429
C            1.63165726451556        0.71503552980959       -0.53726708188401
C            1.09280596467748       -0.49762605471676       -0.96840924951338
C            1.55831692402989       -1.75760031679670       -0.37125110903681
C            0.72462917061078       -2.74757516777059        0.00769483014712
C           -0.71951420477310       -2.74880427368542        0.00456646965996
C           -1.55484883427947       -1.75857847024807        0.37916679555131
C           -3.00928204639659       -1.91462260269523        0.24092401331524
C           -3.86835969754522       -1.40087904985262        1.21238419818450
C           -5.23669510446891       -1.54802854409981        1.09061016655850
C           -5.77311122876318       -2.20162409186430       -0.00675707260345
C           -4.93054237522972       -2.70867953613579       -0.98200660922538
C           -3.56105370687378       -2.56887923001802       -0.85965652110197
C           -1.09160707226611       -0.49506367670081        0.97057230934132
C           -1.63280593293040        0.71455521275392        0.53384980251028
C           -1.20275538784351        1.91136568690001        1.06597734831232
C           -0.23151902747413        1.91932636067614        2.06471533193872
C            0.27938112573772        3.17613058830436        2.64313859790677
O            1.13777153833139        3.24575540629026        3.48941101988770
O           -0.29863342122489        4.27684401262828        2.13230220364105
C            0.28620460238124        0.71135619349318        2.53147518964965
C           -0.14123131319087       -0.48131378593905        1.99146242747230
C            3.01298456515757       -1.91071237255226       -0.23228553018958
C            3.56570056598508       -2.55984696347799        0.87086407399612
C            4.93537283499986       -2.69736547090674        0.99369343444331
C            5.77722727747977       -2.19303513791640        0.01641557427116
C            5.23989172360707       -1.54437931699640       -1.08342872439715
C            3.87135215164672       -1.39955213081470       -1.20573600449920
C            0.14236717962164       -0.49040036502746       -1.98931513178087
C           -0.28750536920584        0.69893843559873       -2.53469897311076
H           -0.09592041946418        5.05294300468005       -2.56913020854053
H            1.60645056221845        2.84463222813271       -0.72684069301477
H            2.38040820571525        0.71401801626933        0.24113153531580
H            1.16870979537173       -3.68886652303456        0.31290619956261
H           -1.16202517656410       -3.69218221629717       -0.29646185513861
H           -3.45396795655106       -0.89548923356384        2.07295563713047
H           -5.88869548305852       -1.15031274483559        1.85448905289615
H           -6.84292930085860       -2.31179498476024       -0.10346048177262
H           -5.34350748391138       -3.21114098749816       -1.84457336487460
H           -2.91179076235819       -2.94899001490401       -1.63484752102405
H           -2.38147534310473        0.70849290714466       -0.24460391658868
H           -1.61187157241977        2.84503180680890        0.71373344771012
H            0.08483735184703        5.06505252952767        2.54695738023060
H            1.02418061862452        0.73545624426183        3.31914399378857
H            0.25409974601162       -1.41630091265855        2.35937463721188
H            2.91699838613445       -2.93776904658894        1.64759206277812
H            5.34903232084009       -3.19592787923113        1.85818854366668
H            6.84719076293839       -2.30148533102153        0.11345620746068
H            5.89133623585600       -1.14875614217235       -1.84886716401525
H            3.45627216721376       -0.89807912699610       -2.06826420673601
H           -0.25111346337733       -1.42783736835281       -2.35294977099975
H           -1.02559889018948        0.71798435154405       -3.32239605224924

          :  Hamiltonian                  GFN2-xTB          :
         :: gradient norm              0.000071218593 Eh/a0 ::
         :: HOMO-LUMO gap              2.225587713860 eV    ::
         :: SCC energy               -93.234727640453 Eh    ::
         :: -> dispersion             -0.079379134214 Eh    ::
         :: repulsion energy           1.538374274609 Eh    ::

    * Orbital Energies and Occupations

         #    Occupation            Energy/Eh            Energy/eV
      -------------------------------------------------------------
         1        2.0000           -0.7399031             -20.1338
       ...           ...                  ...                  ...
        71        2.0000           -0.4282352             -11.6529
        72        2.0000           -0.4243703             -11.5477
        73        2.0000           -0.4208131             -11.4509
        74        2.0000           -0.4188845             -11.3984
        75        2.0000           -0.4163121             -11.3284
        76        2.0000           -0.4150894             -11.2952
        77        2.0000           -0.4142987             -11.2736
        78        2.0000           -0.4126871             -11.2298
        79        2.0000           -0.4097841             -11.1508
        80        2.0000           -0.4095059             -11.1432
        81        2.0000           -0.4088236             -11.1247
        82        2.0000           -0.4018075             -10.9337
        83        2.0000           -0.3705434             -10.0830 (HOMO)
        84                         -0.2887546              -7.8574 (LUMO)
        85                         -0.2776735              -7.5559
        86                         -0.2603420              -7.0843
        87                         -0.2365498              -6.4368
        88                         -0.2333436              -6.3496
        89                         -0.2329866              -6.3399
        90                         -0.2271667              -6.1815
        91                         -0.2270469              -6.1783
        92                         -0.2092019              -5.6927
        93                         -0.1994095              -5.4262
        94                         -0.1719282              -4.6784
       ...                                ...                  ...
       158                          0.6988025              19.0154
      -------------------------------------------------------------
                  HL-Gap            0.0817888 Eh            2.2256 eV

     #   Z          covCN         q      C6AA      α(0)
     1   8 O        0.857    -0.422    22.128     6.307
     2   6 C        2.698     0.354    20.987     7.498
     3   8 O        1.660    -0.382    20.511     6.114
     4   6 C        2.973    -0.021    28.525     8.761
     5   6 C        2.919    -0.021    28.539     8.761
     6   6 C        2.924    -0.030    28.748     8.793
     7   6 C        2.978     0.025    27.440     8.593
     8   6 C        2.960     0.001    28.005     8.680
     9   6 C        2.902    -0.038    28.942     8.821
    10   6 C        2.902    -0.038    28.942     8.821
    11   6 C        2.960     0.001    28.005     8.680
    12   6 C        2.980     0.011    27.767     8.644
    13   6 C        2.925    -0.031    28.780     8.798
    14   6 C        2.918    -0.028    28.709     8.786
    15   6 C        2.920    -0.029    28.731     8.790
    16   6 C        2.918    -0.028    28.710     8.787
    17   6 C        2.924    -0.034    28.842     8.807
    18   6 C        2.978     0.025    27.440     8.593
    19   6 C        2.924    -0.030    28.749     8.793
    20   6 C        2.919    -0.021    28.539     8.761
    21   6 C        2.973    -0.021    28.525     8.761
    22   6 C        2.698     0.354    20.987     7.498
    23   8 O        0.857    -0.422    22.128     6.307
    24   8 O        1.660    -0.382    20.511     6.114
    25   6 C        2.923    -0.022    28.546     8.762
    26   6 C        2.922    -0.030    28.754     8.794
    27   6 C        2.980     0.011    27.767     8.644
    28   6 C        2.924    -0.034    28.842     8.807
    29   6 C        2.918    -0.028    28.710     8.787
    30   6 C        2.920    -0.029    28.731     8.790
    31   6 C        2.918    -0.028    28.709     8.786
    32   6 C        2.925    -0.031    28.780     8.798
    33   6 C        2.922    -0.030    28.754     8.794
    34   6 C        2.923    -0.022    28.546     8.762
    35   1 H        0.804     0.327     0.644     1.261
    36   1 H        0.926     0.056     2.243     2.342
    37   1 H        0.926     0.040     2.450     2.448
    38   1 H        0.925     0.041     2.431     2.438
    39   1 H        0.925     0.041     2.431     2.438
    40   1 H        0.926     0.030     2.590     2.517
    41   1 H        0.926     0.032     2.551     2.498
    42   1 H        0.926     0.033     2.545     2.494
    43   1 H        0.926     0.033     2.542     2.493
    44   1 H        0.926     0.032     2.565     2.504
    45   1 H        0.926     0.040     2.450     2.448
    46   1 H        0.926     0.056     2.243     2.342
    47   1 H        0.804     0.327     0.644     1.261
    48   1 H        0.926     0.061     2.186     2.312
    49   1 H        0.926     0.041     2.440     2.443
    50   1 H        0.926     0.032     2.565     2.504
    51   1 H        0.926     0.033     2.542     2.493
    52   1 H        0.926     0.033     2.545     2.495
    53   1 H        0.926     0.032     2.551     2.498
    54   1 H        0.926     0.030     2.590     2.517
    55   1 H        0.926     0.041     2.440     2.443
    56   1 H        0.926     0.061     2.186     2.312

molecular dipole:
                 x           y           z       tot (Debye)
 q only:        0.001      -0.968       0.002
   full:        0.000      -0.645       0.002       1.639

 projected vibrational frequencies (cm⁻¹)
eigval :       -0.00    -0.00    -0.00     0.00     0.00     0.00
eigval :       13.88    22.04    26.65    33.84    37.74    39.10
eigval :       45.85    47.83    51.03    74.19    82.30    99.72
eigval :      108.90   116.86   128.43   147.17   155.29   167.75
eigval :      208.87   227.41   229.35   251.69   257.56   276.87
eigval :      288.78   327.23   369.42   370.73   373.56   373.87
eigval :      380.77   408.71   421.08   428.85   430.21   469.63
eigval :      482.23   492.09   504.89   552.71   576.25   580.96
eigval :      581.55   589.23   591.55   595.08   600.67   604.44
eigval :      620.71   625.73   661.73   669.91   670.92   674.63
eigval :      681.17   684.67   695.71   733.00   736.01   756.57
eigval :      759.52   790.89   802.69   827.17   831.12   848.77
eigval :      860.24   873.48   873.66   876.46   876.46   902.87
eigval :      902.89   912.22   923.16   923.51   929.30   929.62
eigval :      930.12   930.54   932.45   932.48   933.73   989.12
eigval :      994.73  1014.75  1021.05  1074.24  1085.64  1088.35
eigval :     1102.19  1110.71  1123.53  1123.99  1134.48  1136.60
eigval :     1143.75  1147.90  1173.33  1181.88  1182.19  1189.17
eigval :     1195.29  1196.70  1202.92  1210.63  1263.68  1264.60
eigval :     1268.95  1272.26  1275.45  1281.30  1283.76  1283.79
eigval :     1319.92  1320.19  1330.62  1330.75  1337.85  1349.10
eigval :     1403.57  1404.24  1430.12  1431.49  1470.35  1471.53
eigval :     1478.59  1478.84  1562.69  1562.98  1578.27  1578.45
eigval :     1579.64  1588.75  1590.38  1595.22  1610.70  1627.35
eigval :     1749.12  1750.30  3026.94  3034.62  3073.52  3073.57
eigval :     3074.34  3074.39  3081.95  3082.09  3085.56  3086.29
eigval :     3086.58  3086.88  3087.45  3087.80  3094.52  3094.81
eigval :     3098.59  3098.78  3108.93  3109.30  3458.88  3459.04

   temp. (K)  partition function   enthalpy   heat capacity  entropy
                                   cal/mol     cal/K/mol   cal/K/mol   J/K/mol
 298.15  VIB  0.332E+14            16791.977    101.984    105.811
         ROT  0.123E+08              888.752      2.981     35.430
         INT  0.410E+21            17680.730    104.965    141.241
         TR   0.913E+28             1481.254      4.968     44.158
         TOT                       19161.9836   109.9327   185.3992   775.7102

       T/K    H(0)-H(T)+PV         H(T)/Eh          T*S/Eh         G(T)/Eh
   ------------------------------------------------------------------------
    298.15    0.305366E-01    0.454895E+00    0.880891E-01    0.366806E+00
   ------------------------------------------------------------------------

         :::::::::::::::::::::::::::::::::::::::::::::::::::::
         ::                  THERMODYNAMIC                  ::
         :::::::::::::::::::::::::::::::::::::::::::::::::::::
         :: total free energy         -91.329547781199 Eh   ::
         ::.................................................::
         :: total energy              -91.696353365843 Eh   ::
         :: zero point energy           0.424358157496 Eh   ::
         :: G(RRHO) w/o ZPVE           -0.057552572852 Eh   ::
         :: G(RRHO) contrib.            0.366805584644 Eh   ::
         :::::::::::::::::::::::::::::::::::::::::::::::::::::

           -------------------------------------------------
          | TOTAL ENERGY              -91.696353365843 Eh   |
          | TOTAL ENTHALPY            -91.241458643771 Eh   |
          | TOTAL FREE ENERGY         -91.329547781199 Eh   |
          | GRADIENT NORM               0.000071218706 Eh/α |
          | HOMO-LUMO GAP               2.225587823391 eV   |
           -------------------------------------------------

 * finished run on 2025/09/09 at 22:04:02.865
