   * xtb version 6.7.1 (edcfbbe) compiled by 'albert@albert-system' on 2024-07-22

   ID    Z sym.   atoms
    1    8 O      1, 3, 23, 24
    2    6 C      2, 4-22, 25-34
    3    1 H      35-56

          program call               : xtb data2507/gas/TABD-COOH/TABD-COOH_gas_S0_finalOpt.xtbopt.xyz --gfn 2 --spinpol --tblite --uhf 2 --ohess vtight --parallel 40 --molden --ceasefiles --namespace data2507/gas/TABD-COOH/TABD-COOH_gas_T1_preOpt
 * total energy  :   -91.6162275 Eh     change       -0.8125795E-08 Eh
 * total energy  :   -91.6296906 Eh     change       -0.1346307E-01 Eh
 * total energy  :   -91.6364519 Eh     change       -0.6761294E-02 Eh
 * total energy  :   -91.6386587 Eh     change       -0.2206851E-02 Eh
 * total energy  :   -91.6404474 Eh     change       -0.1788707E-02 Eh
 * total energy  :   -91.6416121 Eh     change       -0.1164669E-02 Eh
 * total energy  :   -91.6424119 Eh     change       -0.7998255E-03 Eh
 * total energy  :   -91.6430832 Eh     change       -0.6712915E-03 Eh
 * total energy  :   -91.6437761 Eh     change       -0.6928597E-03 Eh
 * total energy  :   -91.6444157 Eh     change       -0.6395885E-03 Eh
 * total energy  :   -91.6459527 Eh     change       -0.6208411E-06 Eh
 * total energy  :   -91.6459533 Eh     change       -0.6008332E-06 Eh
 * total energy  :   -91.6459538 Eh     change       -0.5819348E-06 Eh
 * total energy  :   -91.6459544 Eh     change       -0.5624103E-06 Eh
 * total energy  :   -91.6459549 Eh     change       -0.5446126E-06 Eh
 * total energy  :   -91.6459555 Eh     change       -0.5273403E-06 Eh
 * total energy  :   -91.6459560 Eh     change       -0.5123393E-06 Eh
 * total energy  :   -91.6459565 Eh     change       -0.4984765E-06 Eh
 * total energy  :   -91.6459565 Eh     change       -0.7753272E-08 Eh
   *** GEOMETRY OPTIMIZATION CONVERGED AFTER 122 ITERATIONS ***

 final structure:
================
56
 xtb: 6.7.1 (edcfbbe)
O           -1.73450617418493        3.05019505973858       -3.34375097805339
C           -0.73527708069165        3.04278524631636       -2.66276396034885
O           -0.10360838065944        4.18420811041739       -2.32787875403684
C           -0.09806786240714        1.83573694237460       -2.11883325796547
C            1.03032090565317        1.90228241005171       -1.29576712308874
C            1.57644578481176        0.75586641423642       -0.77555761934347
C            1.01033656037748       -0.50640749467210       -1.04317259629820
C            1.51935120759225       -1.69063039801422       -0.41604647688903
C            0.66488673613779       -2.81757791971075       -0.14573937199114
C           -0.66015686697788       -2.81800880734123        0.15835893302656
C           -1.51652209865840       -1.69130385051038        0.42359435033214
C           -2.91462795037730       -1.81558705898660        0.08931341840086
C           -3.90749199183068       -1.16697924842841        0.84145170182037
C           -5.24175225140347       -1.31594077971437        0.52824110364220
C           -5.62847618489908       -2.10948394010090       -0.54194150792926
C           -4.66261935140645       -2.76503112929601       -1.29143778033506
C           -3.32700213429883       -2.62798110886656       -0.97923298935942
C           -1.00950936339246       -0.50341449542376        1.04538528872503
C           -1.57774161063814        0.75668796870190        0.77209766335519
C           -1.03355135289320        1.90635094972577        1.28714114871212
C            0.09494602927165        1.84541087291869        2.11049417880390
C            0.73011884193376        3.05596352201255        2.64898465913801
O            1.72933390068159        3.06811927591899        3.32992831960927
O            0.09653443190496        4.19480436946296        2.30896694795801
C            0.64585413228972        0.59965542470935        2.42354664028257
C            0.10730853541164       -0.55025569105905        1.90332668626897
C            2.91766272934635       -1.81105205726637       -0.08121864218487
C            3.33140362543820       -2.61793418553350        0.99097046553412
C            4.66724966918799       -2.75132499396976        1.30377904083247
C            5.63199994832311       -2.09752968390569        0.55133461047268
C            5.24394039276652       -1.30946370528926       -0.52240501464199
C            3.90943219203103       -1.16416192266762       -0.83627499915235
C           -0.10639644118999       -0.55898961091851       -1.90089010829494
C           -0.64687527759947        0.58766129794293       -2.42627595945398
H           -0.57796089746690        4.93737652147140       -2.71183067277471
H            1.45447036827419        2.86508922202082       -1.05797051354963
H            2.41510262182786        0.82236935222762       -0.09893964386235
H            1.15442682140608       -3.78384593582494       -0.19225295927391
H           -1.14806439027232       -3.78488625260174        0.20921413785736
H           -3.61841858274842       -0.57584056086500        1.69779731917044
H           -5.99014697262716       -0.81545059283912        1.12517742461145
H           -6.67401844458213       -2.22038035822530       -0.78661897785892
H           -4.95735818860810       -3.38409578157747       -2.12628012097666
H           -2.58277591684936       -3.12717862449481       -1.58255253386816
H           -2.41650631910088        0.81873385167565        0.09518925600541
H           -1.45931962544305        2.86736290255441        1.04501728829163
H            0.56961833997483        4.95048996550383        2.68952286681202
H            1.50299476304151        0.56644577863770        3.07932935008848
H            0.52076810543936       -1.50867965985198        2.17660553875758
H            2.58801901778259       -3.11566601036345        1.59653311469502
H            4.96303043090541       -3.36613052271351        2.14139602423404
H            6.67772804279863       -2.20556157624217        0.79650172647228
H            5.99149079398870       -0.81040317710962       -1.12159263827704
H            3.61936227715982       -0.57737107695264       -1.69526927444068
H           -0.51824167778825       -1.51932832774349       -2.16985144020060
H           -1.50395765613258        0.55005742424497       -3.08189882662708

 projected vibrational frequencies (cm⁻¹)
eigval :       -0.00    -0.00    -0.00     0.00     0.00     0.00
eigval :       16.39    17.32    24.59    33.11    40.97    42.57
eigval :       52.06    57.14    64.09    77.14    78.02   115.39
eigval :      121.33   121.93   126.72   152.61   156.11   181.70
eigval :      216.05   239.25   239.46   256.03   262.18   282.65
eigval :      286.76   338.48   370.76   373.05   377.25   384.87
eigval :      390.57   393.49   417.96   423.79   431.66   462.29
eigval :      477.62   481.99   484.95   538.84   541.45   572.88
eigval :      576.90   585.61   587.80   590.35   594.85   597.88
eigval :      601.40   612.06   654.50   664.14   664.40   667.59
eigval :      674.74   676.82   707.70   725.74   726.48   748.68
eigval :      752.26   770.84   784.15   805.94   826.32   829.21
eigval :      860.21   861.85   868.80   871.66   892.43   898.75
eigval :      902.79   916.17   922.29   922.62   924.66   926.10
eigval :      927.85   928.47   931.49   938.38   938.47   981.58
eigval :      986.22  1005.71  1008.59  1073.49  1082.76  1085.79
eigval :     1092.98  1104.79  1116.84  1125.88  1131.71  1136.20
eigval :     1138.03  1142.08  1146.93  1180.47  1180.48  1190.59
eigval :     1193.76  1198.47  1200.15  1232.65  1257.31  1264.38
eigval :     1268.74  1276.53  1276.87  1282.26  1284.05  1290.72
eigval :     1320.44  1323.30  1323.39  1334.69  1336.06  1351.09
eigval :     1373.38  1411.89  1413.87  1427.49  1427.83  1450.54
eigval :     1450.67  1455.52  1460.81  1524.02  1524.36  1531.25
eigval :     1554.10  1554.94  1566.67  1569.26  1578.94  1582.81
eigval :     1736.54  1737.72  3025.22  3037.90  3073.31  3073.35
eigval :     3076.28  3076.28  3083.69  3083.74  3087.41  3087.92
eigval :     3089.42  3089.73  3090.09  3090.39  3096.24  3096.77
eigval :     3100.05  3100.34  3107.47  3107.79  3463.99  3464.26

   temp. (K)  partition function   enthalpy   heat capacity  entropy
                                   cal/mol     cal/K/mol   cal/K/mol   J/K/mol
 298.15  VIB  0.154E+14            16753.527    103.300    105.101
         ROT  0.117E+08              888.752      2.981     35.324
         INT  0.180E+21            17642.279    106.281    140.425
         TR   0.913E+28             1481.254      4.968     44.158
         TOT                       19123.5330   111.2488   184.5827   772.2940

       T/K    H(0)-H(T)+PV         H(T)/Eh          T*S/Eh         G(T)/Eh
   ------------------------------------------------------------------------
    298.15    0.304753E-01    0.452946E+00    0.877012E-01    0.365245E+00
   ------------------------------------------------------------------------

         :::::::::::::::::::::::::::::::::::::::::::::::::::::
         ::                  THERMODYNAMIC                  ::
         :::::::::::::::::::::::::::::::::::::::::::::::::::::
         :: total free energy         -91.280711974327 Eh   ::
         ::.................................................::
         :: total energy              -91.645956492609 Eh   ::
         :: zero point energy           0.422470420339 Eh   ::
         :: G(RRHO) w/o ZPVE           -0.057225902056 Eh   ::
         :: G(RRHO) contrib.            0.365244518283 Eh   ::
         :::::::::::::::::::::::::::::::::::::::::::::::::::::

           -------------------------------------------------
          | TOTAL ENERGY              -91.645956492609 Eh   |
          | TOTAL ENTHALPY            -91.193010782585 Eh   |
          | TOTAL FREE ENERGY         -91.280711974327 Eh   |
          | GRADIENT NORM               0.000060165139 Eh/α |
           -------------------------------------------------

 * finished run on 2025/09/09 at 22:04:10.312
