   * xtb version 6.7.1 (edcfbbe) compiled by 'albert@albert-system' on 2024-07-22

   ID    Z sym.   atoms
    1    8 O      1, 3, 23, 24
    2    6 C      2, 4-22, 25-34
    3    1 H      35-56

          program call               : xtb data2507/gas/TABD-COOH/TABD-COOH_gas_T1_crest.xyz --gfn 2 --spinpol --tblite --uhf 2 --ohess vtight --parallel 40 --molden --ceasefiles --namespace data2507/gas/TABD-COOH/TABD-COOH_gas_T1_finalOpt
 * total energy  :   -91.6459235 Eh     change       -0.6872213E-08 Eh
 * total energy  :   -91.6459582 Eh     change       -0.3475436E-04 Eh
 * total energy  :   -91.6459678 Eh     change       -0.9522314E-05 Eh
 * total energy  :   -91.6459697 Eh     change       -0.1937159E-05 Eh
 * total energy  :   -91.6459714 Eh     change       -0.1681016E-05 Eh
 * total energy  :   -91.6459723 Eh     change       -0.8984041E-06 Eh
 * total energy  :   -91.6459730 Eh     change       -0.7597896E-06 Eh
 * total energy  :   -91.6459737 Eh     change       -0.6829074E-06 Eh
 * total energy  :   -91.6459737 Eh     change       -0.2955238E-07 Eh
 * total energy  :   -91.6459746 Eh     change       -0.8606895E-06 Eh
 * total energy  :   -91.6459756 Eh     change       -0.1004159E-05 Eh
 * total energy  :   -91.6459757 Eh     change       -0.5463545E-07 Eh
 * total energy  :   -91.6459761 Eh     change       -0.4384246E-06 Eh
 * total energy  :   -91.6459764 Eh     change       -0.2698476E-06 Eh
 * total energy  :   -91.6459765 Eh     change       -0.1728037E-06 Eh
 * total energy  :   -91.6459768 Eh     change       -0.2624868E-06 Eh
 * total energy  :   -91.6459770 Eh     change       -0.2120352E-06 Eh
 * total energy  :   -91.6459771 Eh     change       -0.1101872E-06 Eh
 * total energy  :   -91.6459772 Eh     change       -0.8274921E-07 Eh
   *** GEOMETRY OPTIMIZATION CONVERGED AFTER 19 ITERATIONS ***

 final structure:
================
56
 xtb: 6.7.1 (edcfbbe)
O           -2.30248440056202        3.09793137188750       -2.95978471396955
C           -1.20070955950782        3.07962398789017       -2.46174707059597
O           -0.51755200204052        4.21556944384667       -2.22317169310546
C           -0.48287983650291        1.86389789026298       -2.05478065214866
C            0.77199948128923        1.91591664815197       -1.44022945776671
C            1.39576626988519        0.76085766806247       -1.03993572313690
C            0.78657895812234       -0.49631868619310       -1.22371337534913
C            1.38893107072864       -1.69195939692550       -0.71133688575442
C            0.58237572210164       -2.81882348382141       -0.31819235585044
C           -0.66790214927127       -2.81037532415151        0.21522924191185
C           -1.43999503035260       -1.67655079204949        0.65301352145118
C           -2.87731309600257       -1.76360391998148        0.56551877596883
C           -3.70784553607311       -1.11340839995268        1.49271500614043
C           -5.07961719955105       -1.22403496296186        1.41203305802435
C           -5.66620551232096       -1.97988887554778        0.40746984274596
C           -4.86196436837967       -2.63736346059792       -0.51192885706763
C           -3.48934441893975       -2.53873377878100       -0.43268221403264
C           -0.80242134445819       -0.51633524450652        1.20319017897061
C           -1.37671516028627        0.76269326239129        1.06386001887645
C           -0.71953926498807        1.88586556157805        1.49992777051005
C            0.53523832848667        1.77813647541735        2.10743099738119
C            1.28867298282204        2.95908287046655        2.55096851632908
O            2.39272169511489        2.92989533871007        3.04340051523199
O            0.63652489161984        4.12096159210397        2.35437155705686
C            1.09955211299895        0.51261763620772        2.28997639499976
C            0.44665637304601       -0.61063827676875        1.84858231540851
C            2.82241383089263       -1.82241057711722       -0.61771949747064
C            3.40438602277661       -2.65131803680883        0.35508370836652
C            4.77302889255381       -2.79002758364295        0.44188592227201
C            5.60309518190335       -2.12000862845822       -0.44494298463015
C            5.04618499415485       -1.31176814476530       -1.42532654180292
C            3.67866404593535       -1.16131757834215       -1.51335291343254
C           -0.46261648311818       -0.53367193421188       -1.87483922691959
C           -1.08201174181315        0.62152025183752       -2.28047699272763
H           -1.04883078964368        4.97464084998115       -2.50823530379347
H            1.23497112195874        2.87437697371549       -1.26566134250940
H            2.33926980249274        0.81601221309201       -0.51812812675269
H            1.04262422332270       -3.78838781065293       -0.47152822550395
H           -1.15729665490773       -3.77089815364356        0.33043120560603
H           -3.25968163359252       -0.55180466680968        2.29899946392295
H           -5.70018599363415       -0.72282940655302        2.14046942698277
H           -6.74088201416769       -2.06025568022093        0.34473339531565
H           -5.31276282603512       -3.22736341001123       -1.29662623507520
H           -2.87396102417480       -3.03878827754163       -1.16633824053752
H           -2.32008450818608        0.86138028563108        0.54822215809960
H           -1.15583470927799        2.86223880036460        1.35921257417151
H            1.19015470304110        4.85494399482661        2.66174720720243
H            2.05825012887075        0.44275498317222        2.78178887670864
H            0.87564797802321       -1.58494906531000        2.02401313415882
H            2.76910916303350       -3.16225204780917        1.06388172579659
H            5.20053016374639       -3.42143263369692        1.20715898265175
H            6.67463023333922       -2.23125246516849       -0.37602721686183
H            5.68667252239398       -0.80052785342623       -2.12912846173241
H            3.25330163310887       -0.55857231789103       -2.30206878833739
H           -0.91859358355613       -1.48910831858166       -2.08310847571466
H           -2.04048521132067        0.59510340220749       -2.77694937918351

 projected vibrational frequencies (cm⁻¹)
eigval :       -0.00    -0.00    -0.00     0.00     0.00     0.00
eigval :       16.24    17.99    24.47    33.22    40.93    42.60
eigval :       52.06    57.07    65.32    77.39    77.55   116.55
eigval :      120.63   121.45   127.11   152.48   156.20   181.91
eigval :      216.64   239.36   240.09   255.96   262.25   282.68
eigval :      286.90   338.78   370.72   373.24   377.19   385.14
eigval :      390.73   393.83   417.99   423.78   431.79   462.36
eigval :      477.14   481.95   484.81   538.61   541.82   572.95
eigval :      576.97   585.63   587.96   590.78   594.95   597.97
eigval :      601.45   612.06   654.60   664.25   664.35   667.61
eigval :      674.43   676.76   707.68   725.72   726.54   748.66
eigval :      752.25   770.32   784.06   805.83   826.49   829.46
eigval :      860.16   862.27   868.81   871.81   891.71   898.67
eigval :      902.18   916.31   922.46   922.62   924.83   926.29
eigval :      927.89   928.43   931.53   938.57   939.05   981.41
eigval :      986.13  1005.55  1008.53  1073.75  1082.58  1085.78
eigval :     1093.44  1105.07  1116.57  1125.77  1131.61  1136.25
eigval :     1137.94  1141.96  1146.83  1180.51  1180.53  1190.41
eigval :     1193.75  1198.56  1200.16  1230.75  1257.41  1264.43
eigval :     1268.79  1276.62  1276.68  1282.32  1283.73  1291.33
eigval :     1320.09  1323.39  1323.48  1334.67  1336.19  1349.67
eigval :     1372.39  1411.85  1413.77  1427.60  1427.94  1450.69
eigval :     1450.90  1455.83  1461.20  1523.99  1524.40  1530.77
eigval :     1554.03  1554.87  1566.86  1569.20  1578.99  1582.78
eigval :     1736.29  1737.49  3025.73  3038.16  3073.57  3073.66
eigval :     3076.38  3076.43  3083.97  3084.03  3087.69  3088.18
eigval :     3089.75  3090.01  3090.59  3090.83  3096.50  3097.02
eigval :     3100.46  3100.83  3107.53  3107.99  3463.57  3463.88

   temp. (K)  partition function   enthalpy   heat capacity  entropy
                                   cal/mol     cal/K/mol   cal/K/mol   J/K/mol
 298.15  VIB  0.147E+14            16748.915    103.310    105.042
         ROT  0.116E+08              888.752      2.981     35.313
         INT  0.171E+21            17637.667    106.291    140.356
         TR   0.913E+28             1481.254      4.968     44.158
         TOT                       19118.9210   111.2592   184.5136   772.0048

       T/K    H(0)-H(T)+PV         H(T)/Eh          T*S/Eh         G(T)/Eh
   ------------------------------------------------------------------------
    298.15    0.304679E-01    0.452953E+00    0.876683E-01    0.365285E+00
   ------------------------------------------------------------------------

         :::::::::::::::::::::::::::::::::::::::::::::::::::::
         ::                  THERMODYNAMIC                  ::
         :::::::::::::::::::::::::::::::::::::::::::::::::::::
         :: total free energy         -91.280692634956 Eh   ::
         ::.................................................::
         :: total energy              -91.645977216470 Eh   ::
         :: zero point energy           0.422484991396 Eh   ::
         :: G(RRHO) w/o ZPVE           -0.057200409881 Eh   ::
         :: G(RRHO) contrib.            0.365284581514 Eh   ::
         :::::::::::::::::::::::::::::::::::::::::::::::::::::

           -------------------------------------------------
          | TOTAL ENERGY              -91.645977216470 Eh   |
          | TOTAL ENTHALPY            -91.193024285093 Eh   |
          | TOTAL FREE ENERGY         -91.280692634956 Eh   |
          | GRADIENT NORM               0.000050052554 Eh/α |
           -------------------------------------------------

 * finished run on 2025/09/09 at 22:06:15.165
