   * xtb version 6.7.1 (edcfbbe) compiled by 'albert@albert-system' on 2024-07-22

   ID    Z sym.   atoms
    1    8 O      1, 3, 23, 24
    2    6 C      2, 4-22, 25-34
    3    1 H      35-56

          program call               : xtb data2507/gas/TABD-COOH/TABD-COOH.xyz --gfn 2 --ohess vtight --parallel 40 --molden --ceasefiles --namespace data2507/gas/TABD-COOH/TABD-COOH_gas_S0_preOpt
          :  Hamiltonian                  GFN2-xTB          :
 * total energy  :   -91.6768866 Eh     change       -0.1417831E-08 Eh
 * total energy  :   -91.6849578 Eh     change       -0.8071197E-02 Eh
 * total energy  :   -91.6871918 Eh     change       -0.2233987E-02 Eh
 * total energy  :   -91.6879741 Eh     change       -0.7822402E-03 Eh
 * total energy  :   -91.6885804 Eh     change       -0.6063832E-03 Eh
 * total energy  :   -91.6890512 Eh     change       -0.4707898E-03 Eh
 * total energy  :   -91.6896364 Eh     change       -0.5852001E-03 Eh
 * total energy  :   -91.6904188 Eh     change       -0.7823293E-03 Eh
 * total energy  :   -91.6912625 Eh     change       -0.8437822E-03 Eh
 * total energy  :   -91.6920652 Eh     change       -0.8026731E-03 Eh
 * total energy  :   -91.6948733 Eh     change       -0.4504468E-06 Eh
 * total energy  :   -91.6948738 Eh     change       -0.5177790E-06 Eh
 * total energy  :   -91.6948744 Eh     change       -0.5698999E-06 Eh
 * total energy  :   -91.6948750 Eh     change       -0.5685975E-06 Eh
 * total energy  :   -91.6948755 Eh     change       -0.5412946E-06 Eh
 * total energy  :   -91.6948760 Eh     change       -0.5117603E-06 Eh
 * total energy  :   -91.6948765 Eh     change       -0.4934158E-06 Eh
 * total energy  :   -91.6948770 Eh     change       -0.4920107E-06 Eh
 * total energy  :   -91.6948770 Eh     change       -0.3175558E-08 Eh
   *** GEOMETRY OPTIMIZATION CONVERGED AFTER 68 ITERATIONS ***

 final structure:
================
56
 xtb: 6.7.1 (edcfbbe)
O            6.17472748486508        2.64546907689493        1.69130619434073
C            6.08740635562415        1.80395271436053        0.83049951502678
O            7.11792246921331        1.51664394095533        0.01581944480134
C            4.87996006767122        1.00028995561872        0.55859155570520
C            3.74714677551188        1.21177636548189        1.34328807320475
C            2.59807707880581        0.48453515554478        1.11594709809384
C            2.55386668641244       -0.47169944352989        0.09945033172593
C            1.33777643659761       -1.25088521763170       -0.16802165809959
C            0.11413481309976       -0.67659236330860       -0.26468908247447
C           -0.14097354053802        0.72860832906235       -0.25283134048973
C           -1.36831197435396        1.29986412301460       -0.19087126531994
C           -1.53305678471124        2.75229305386239       -0.31089424060224
C           -0.69798320091158        3.51427080161554       -1.12869856499859
C           -0.86150424017129        4.88308143890061       -1.22183618717944
C           -1.85841130952969        5.51868381270791       -0.50004766299862
C           -2.69564417498856        4.77348418895718        0.31399054298633
C           -2.53836135671156        3.40417471255291        0.40579544711013
C           -2.59254301770338        0.51341994267288        0.01053399515549
C           -2.67454591416872       -0.46394588204110        1.00397929102083
C           -3.82810504147882       -1.20146167828388        1.17522688211440
C           -4.92831156178244       -0.97525052125799        0.35093261770413
C           -6.18018960791455       -1.74342595084637        0.49401973387099
O           -7.16431410605047       -1.58883669441795       -0.18733330168657
O           -6.13750713174957       -2.66145758521456        1.47579895858030
C           -4.85805412318200        0.00767982383864       -0.63671059124235
C           -3.70681223258122        0.74609019075816       -0.79968499162520
C            1.50555122050607       -2.70057816481577       -0.31522649712759
C            0.70462058344050       -3.44146861032679       -1.18490125572840
C            0.87013935609798       -4.80816379562469       -1.30298132042065
C            1.83501251656486       -5.46269733719928       -0.55503942458789
C            2.63818899217604       -4.73847882524306        0.31065517472711
C            2.47891463574188       -3.37130979359552        0.42769134708696
C            3.69893329891190       -0.69002203358794       -0.67046673207634
C            4.84788291052327        0.03918395123806       -0.45091479143673
H            7.87615633923324        2.07606985828528        0.24435250687878
H            3.79278532620139        1.95155586252453        2.12818680660818
H            1.73029794015347        0.63528246871290        1.74097535945246
H           -0.74349708182241       -1.32159892223413       -0.40236656685371
H            0.72077250486644        1.37672517493440       -0.34064603722778
H            0.06790786312783        3.02624665341783       -1.71340812824398
H           -0.21046324626719        5.45753814667441       -1.86457484575136
H           -1.98397767445388        6.58858257488644       -0.57396493258847
H           -3.47480410531204        5.26242900141349        0.88021268299164
H           -3.18878763322785        2.83014114858972        1.05019182823961
H           -1.83079334999038       -0.62498641278997        1.65889043964646
H           -3.88709749793781       -1.95333321872397        1.94658304302865
H           -6.98597702985248       -3.12884241854702        1.51777172922314
H           -5.72124302354405        0.17293802792641       -1.26345350660774
H           -3.65192999500832        1.50448037122927       -1.56702898351625
H           -0.03541289795479       -2.93820496408732       -1.78964855876121
H            0.24606730501434       -5.36599329319700       -1.98590674644437
H            1.96231213824655       -6.53088005229627       -0.64865329831552
H            3.39213282237983       -5.24230161789749        0.89767791251181
H            3.10215969832352       -2.81372222283360        1.11217738393450
H            3.67157274190887       -1.43231668905311       -1.45507125203322
H            5.72618649269381       -0.12703815805005       -1.05467413134325

          :  Hamiltonian                  GFN2-xTB          :
         :: gradient norm              0.000045796137 Eh/a0 ::
         :: HOMO-LUMO gap              2.023498590163 eV    ::
         :: SCC energy               -93.230717202757 Eh    ::
         :: -> dispersion             -0.068395916568 Eh    ::
         :: repulsion energy           1.535840205815 Eh    ::

    * Orbital Energies and Occupations

         #    Occupation            Energy/Eh            Energy/eV
      -------------------------------------------------------------
         1        2.0000           -0.7418158             -20.1858
       ...           ...                  ...                  ...
        71        2.0000           -0.4285729             -11.6621
        72        2.0000           -0.4252630             -11.5720
        73        2.0000           -0.4246670             -11.5558
        74        2.0000           -0.4207163             -11.4483
        75        2.0000           -0.4199085             -11.4263
        76        2.0000           -0.4167360             -11.3400
        77        2.0000           -0.4146892             -11.2843
        78        2.0000           -0.4139315             -11.2636
        79        2.0000           -0.4132324             -11.2446
        80        2.0000           -0.4108647             -11.1802
        81        2.0000           -0.4096681             -11.1476
        82        2.0000           -0.4073720             -11.0852
        83        2.0000           -0.3688375             -10.0366 (HOMO)
        84                         -0.2944753              -8.0131 (LUMO)
        85                         -0.2759035              -7.5077
        86                         -0.2642198              -7.1898
        87                         -0.2372891              -6.4570
        88                         -0.2369063              -6.4465
        89                         -0.2319745              -6.3123
        90                         -0.2283935              -6.2149
        91                         -0.2271938              -6.1823
        92                         -0.2098081              -5.7092
        93                         -0.1976035              -5.3771
        94                         -0.1765836              -4.8051
       ...                                ...                  ...
       158                          0.6938089              18.8795
      -------------------------------------------------------------
                  HL-Gap            0.0743622 Eh            2.0235 eV

     #   Z          covCN         q      C6AA      α(0)
     1   8 O        0.857    -0.421    22.098     6.303
     2   6 C        2.698     0.354    20.995     7.499
     3   8 O        1.660    -0.383    20.527     6.116
     4   6 C        2.973    -0.020    28.504     8.758
     5   6 C        2.922    -0.021    28.533     8.760
     6   6 C        2.921    -0.030    28.760     8.794
     7   6 C        2.977     0.025    27.445     8.593
     8   6 C        2.962    -0.001    28.057     8.688
     9   6 C        2.905    -0.039    28.966     8.825
    10   6 C        2.905    -0.039    28.975     8.826
    11   6 C        2.963    -0.001    28.040     8.686
    12   6 C        2.978     0.011    27.768     8.644
    13   6 C        2.924    -0.034    28.844     8.807
    14   6 C        2.918    -0.028    28.706     8.786
    15   6 C        2.920    -0.029    28.722     8.789
    16   6 C        2.918    -0.028    28.712     8.787
    17   6 C        2.925    -0.032    28.787     8.799
    18   6 C        2.977     0.025    27.443     8.593
    19   6 C        2.922    -0.031    28.784     8.798
    20   6 C        2.918    -0.023    28.568     8.765
    21   6 C        2.973    -0.020    28.503     8.757
    22   6 C        2.698     0.354    20.995     7.499
    23   8 O        0.857    -0.420    22.094     6.302
    24   8 O        1.659    -0.383    20.531     6.117
    25   6 C        2.922    -0.021    28.523     8.758
    26   6 C        2.923    -0.029    28.727     8.789
    27   6 C        2.978     0.011    27.767     8.644
    28   6 C        2.924    -0.034    28.853     8.809
    29   6 C        2.918    -0.029    28.714     8.787
    30   6 C        2.920    -0.029    28.734     8.790
    31   6 C        2.918    -0.029    28.720     8.788
    32   6 C        2.925    -0.032    28.796     8.800
    33   6 C        2.924    -0.030    28.754     8.794
    34   6 C        2.918    -0.022    28.559     8.763
    35   1 H        0.804     0.327     0.645     1.262
    36   1 H        0.926     0.061     2.187     2.313
    37   1 H        0.926     0.044     2.399     2.422
    38   1 H        0.925     0.041     2.436     2.441
    39   1 H        0.925     0.041     2.431     2.438
    40   1 H        0.926     0.032     2.554     2.499
    41   1 H        0.926     0.033     2.547     2.496
    42   1 H        0.926     0.033     2.544     2.494
    43   1 H        0.926     0.033     2.549     2.497
    44   1 H        0.926     0.030     2.585     2.514
    45   1 H        0.926     0.043     2.415     2.430
    46   1 H        0.926     0.057     2.236     2.339
    47   1 H        0.804     0.327     0.645     1.262
    48   1 H        0.926     0.061     2.185     2.311
    49   1 H        0.926     0.042     2.426     2.436
    50   1 H        0.926     0.033     2.551     2.498
    51   1 H        0.926     0.032     2.552     2.498
    52   1 H        0.926     0.032     2.552     2.498
    53   1 H        0.926     0.032     2.557     2.500
    54   1 H        0.926     0.030     2.586     2.515
    55   1 H        0.926     0.040     2.447     2.446
    56   1 H        0.926     0.057     2.235     2.338

molecular dipole:
                 x           y           z       tot (Debye)
 q only:        0.512      -0.551      -0.264
   full:        0.578      -0.626      -0.227       2.241

 projected vibrational frequencies (cm⁻¹)
eigval :       -0.00    -0.00     0.00     0.00     0.00     0.00
eigval :       10.54    17.77    26.35    29.25    33.38    35.79
eigval :       43.88    45.51    49.42    69.70    72.10    76.66
eigval :       86.22   118.00   129.56   148.04   156.69   202.26
eigval :      206.75   220.93   234.81   248.43   257.57   270.39
eigval :      291.28   330.99   370.08   370.98   371.23   373.67
eigval :      389.20   390.64   415.21   434.57   435.08   466.03
eigval :      472.71   486.30   499.93   551.22   578.42   581.29
eigval :      582.90   590.71   594.05   595.01   601.42   608.24
eigval :      621.23   624.49   633.17   669.07   669.50   678.53
eigval :      680.50   697.85   705.06   735.49   736.10   760.24
eigval :      762.18   792.30   812.50   828.20   834.57   861.30
eigval :      874.82   875.73   875.90   883.13   900.35   902.93
eigval :      915.26   917.35   921.16   925.90   929.17   929.87
eigval :      930.40   932.31   932.34   937.85   945.06   989.54
eigval :      995.32  1015.40  1016.86  1086.10  1086.34  1105.06
eigval :     1106.12  1123.52  1124.57  1133.60  1135.15  1144.21
eigval :     1145.63  1152.16  1176.59  1182.04  1182.37  1193.93
eigval :     1194.52  1200.34  1205.88  1225.62  1235.44  1263.54
eigval :     1264.59  1275.60  1276.73  1284.46  1285.40  1289.06
eigval :     1318.86  1319.91  1325.42  1328.34  1336.23  1358.26
eigval :     1400.69  1401.55  1429.70  1431.20  1467.82  1470.93
eigval :     1476.48  1476.85  1553.04  1558.62  1559.75  1576.16
eigval :     1577.09  1585.89  1587.87  1591.17  1600.43  1604.87
eigval :     1750.76  1751.83  3059.19  3070.56  3073.42  3073.86
eigval :     3074.89  3075.44  3081.99  3082.60  3083.13  3083.90
eigval :     3084.91  3085.59  3087.26  3087.51  3094.53  3095.10
eigval :     3099.56  3100.27  3106.57  3107.44  3460.16  3460.30

   temp. (K)  partition function   enthalpy   heat capacity  entropy
                                   cal/mol     cal/K/mol   cal/K/mol   J/K/mol
 298.15  VIB  0.130E+15            16861.618    101.215    107.068
         ROT  0.389E+08              888.752      2.981     37.711
         INT  0.506E+22            17750.371    104.196    144.779
         TR   0.913E+28             1481.254      4.968     44.158
         TOT                       19231.6246   109.1643   188.9365   790.5103

       T/K    H(0)-H(T)+PV         H(T)/Eh          T*S/Eh         G(T)/Eh
   ------------------------------------------------------------------------
    298.15    0.306475E-01    0.455222E+00    0.897698E-01    0.365452E+00
   ------------------------------------------------------------------------

         :::::::::::::::::::::::::::::::::::::::::::::::::::::
         ::                  THERMODYNAMIC                  ::
         :::::::::::::::::::::::::::::::::::::::::::::::::::::
         :: total free energy         -91.329425077042 Eh   ::
         ::.................................................::
         :: total energy              -91.694876996941 Eh   ::
         :: zero point energy           0.424574203059 Eh   ::
         :: G(RRHO) w/o ZPVE           -0.059122283161 Eh   ::
         :: G(RRHO) contrib.            0.365451919899 Eh   ::
         :::::::::::::::::::::::::::::::::::::::::::::::::::::

           -------------------------------------------------
          | TOTAL ENERGY              -91.694876996941 Eh   |
          | TOTAL ENTHALPY            -91.239655249309 Eh   |
          | TOTAL FREE ENERGY         -91.329425077042 Eh   |
          | GRADIENT NORM               0.000045799206 Eh/α |
          | HOMO-LUMO GAP               2.023498604633 eV   |
           -------------------------------------------------

 * finished run on 2025/09/09 at 22:01:31.529
