   * xtb version 6.7.1 (edcfbbe) compiled by 'albert@albert-system' on 2024-07-22

   ID    Z sym.   atoms
    1    6 C      1-9, 11-23, 25-44, 46-50, 52-54
    2    7 N      10, 24, 45, 51
    3    1 H      55-94

          program call               : xtb data2507/gas/NyDPAc/NyDPAc.xyz --gfn 2 --ohess vtight --parallel 40 --molden --ceasefiles --namespace data2507/gas/NyDPAc/NyDPAc_gas_S0_preOpt
          :  Hamiltonian                  GFN2-xTB          :
 * total energy  :  -139.1932294 Eh     change       -0.4324590E-08 Eh
 * total energy  :  -139.2128983 Eh     change       -0.1966884E-01 Eh
 * total energy  :  -139.2191901 Eh     change       -0.6291762E-02 Eh
 * total energy  :  -139.2207212 Eh     change       -0.1531179E-02 Eh
 * total energy  :  -139.2218131 Eh     change       -0.1091898E-02 Eh
 * total energy  :  -139.2223561 Eh     change       -0.5429326E-03 Eh
 * total energy  :  -139.2226223 Eh     change       -0.2662322E-03 Eh
 * total energy  :  -139.2227469 Eh     change       -0.1245589E-03 Eh
 * total energy  :  -139.2228137 Eh     change       -0.6682184E-04 Eh
 * total energy  :  -139.2228714 Eh     change       -0.5770442E-04 Eh
 * total energy  :  -139.2230865 Eh     change       -0.1725825E-06 Eh
 * total energy  :  -139.2230867 Eh     change       -0.1936380E-06 Eh
 * total energy  :  -139.2230869 Eh     change       -0.1580599E-06 Eh
 * total energy  :  -139.2230870 Eh     change       -0.1258227E-06 Eh
 * total energy  :  -139.2230871 Eh     change       -0.1591368E-06 Eh
 * total energy  :  -139.2230874 Eh     change       -0.2114790E-06 Eh
 * total energy  :  -139.2230876 Eh     change       -0.2245745E-06 Eh
 * total energy  :  -139.2230877 Eh     change       -0.1415397E-06 Eh
 * total energy  :  -139.2230878 Eh     change       -0.4334260E-07 Eh
   *** GEOMETRY OPTIMIZATION CONVERGED AFTER 62 ITERATIONS ***

 final structure:
================
94
 xtb: 6.7.1 (edcfbbe)
C            8.13361963865672       -1.51226065190572       -0.22402050077396
C            8.87162375168768       -0.40419540769457        0.54881301442735
C            8.09625352408447       -0.03464002944884        1.82637982892885
C           10.22091897149095       -0.96671607950465        0.97987457844491
C           10.28804152221637       -2.09158814272314        1.79106669653188
C           11.49624314767904       -2.62682846487188        2.20184466390749
C           12.68297549586906       -2.03701617497634        1.80214184228331
C           12.64672351811085       -0.91927421571093        0.99606635419623
C           11.42596056675807       -0.38440604691475        0.58521135970121
N           11.41338177204570        0.72838829419964       -0.21687825304010
C           10.26879845174227        1.33196764959161       -0.67818168515478
C           10.42079281960286        2.45573005237185       -1.48983837723408
C            9.31694279909676        3.11057206603234       -1.98759223712994
C            8.06074305020083        2.63718370650913       -1.66937578549146
C            7.89456817547249        1.51468808205511       -0.85777614619694
C            6.46591116128423        1.17622721845135       -0.63856126136112
C            5.74972605175792        1.77513281516119        0.39333882331949
C            4.39728936110594        1.53872175866910        0.54724005007257
C            3.71788133451051        0.71220679474620       -0.34525750594531
C            2.28204615808908        0.43861443513047       -0.21599366241401
C            1.63747714428249        0.46776836453573        1.04741665510774
C            0.30033726823686        0.20795761284250        1.12983496344710
C           -0.41478791217844       -0.08203551032401       -0.05368751312706
N           -1.73192413516354       -0.32933365003134        0.00051485870098
C           -2.38054970120149       -0.59664420492748       -1.11148838980163
C           -3.81932474017624       -0.85432280554927       -0.98101709435956
C           -4.31450186617166       -1.35215873286449        0.22406065602141
C           -5.66119295526896       -1.60650950468976        0.38249070254873
C           -6.55914935115248       -1.34284293985080       -0.64857426706704
C           -7.98963304289781       -1.71762208674002       -0.51898409726902
C           -8.23795401031911       -3.02985133890108       -0.92250142811131
C           -9.50877451189177       -3.56482230013721       -0.87592028725176
C          -10.54457906789343       -2.78041581920324       -0.42120141655164
C          -10.31026853721283       -1.46700977996666       -0.01509854447727
C           -9.02516516935663       -0.90171420715255       -0.05399624168562
C           -8.80574059498645        0.54247317580462        0.39871865339511
C           -7.82749337901493        0.56106693582517        1.58732564040175
C           -8.23885749661494        1.36315337119545       -0.77386082816938
C          -10.09168639130487        1.22202130109081        0.85428212017655
C          -10.07430096614064        2.53908723733713        1.29362804147090
C          -11.22304501306859        3.18537962249394        1.71508917549604
C          -12.43407173571777        2.51507553092926        1.70584743497525
C          -12.48122774032911        1.20635293086223        1.27517050084649
C          -11.32010409607203        0.56037942196975        0.85140747392735
N          -11.39018586790200       -0.74236723643142        0.42701983305261
C           -6.06286808545232       -0.86773911173817       -1.85869409053074
C           -4.71382828328634       -0.61915069964700       -2.02298316410870
C           -1.72976568924990       -0.65695162290655       -2.37054216716215
C           -0.38910666218495       -0.41502002012245       -2.45039170935623
C            0.32206001370590       -0.10400287029879       -1.26984998817764
N            1.63808483433308        0.14895492887148       -1.32499383810282
C            4.42521928703667        0.15663050265483       -1.41116032749740
C            5.77723644948008        0.38872983464017       -1.55776139382503
C            9.00016751614962        0.83241782652947       -0.34160022334410
H            7.09842975383467       -1.24076778686749       -0.40139086343672
H            8.62211768205281       -1.68386450114486       -1.18165823233360
H            8.14726315588723       -2.44366315636123        0.33496783050625
H            8.55194838132529        0.83445376701527        2.29783876959726
H            8.11658647047038       -0.85546620718252        2.53774848720933
H            7.05939137614975        0.19046434229459        1.60081419623298
H            9.37879961279534       -2.57352337171271        2.11886539994544
H           11.50916488669326       -3.50259567950194        2.83281775435620
H           13.63134019831470       -2.44610889671787        2.11700882320844
H           13.56277152237875       -0.44416297343751        0.67294327554039
H           12.29796796002661        1.12845718460659       -0.48965495679616
H           11.41834691664067        2.80247258346513       -1.72128515823120
H            9.43318144706309        3.98001103546096       -2.61676799705174
H            7.18031537976502        3.13485450000415       -2.04866859896043
H            6.26117213389879        2.43858805835646        1.07638939513304
H            3.86492903256586        2.02964362850740        1.34852661289256
H            2.21350443669428        0.67050817582010        1.93721661529866
H           -0.23053347972604        0.21236867566069        2.07005896520904
H           -3.61876501453875       -1.54371021307120        1.02595421199006
H           -6.02852251073243       -2.01847957820925        1.31164478206865
H           -7.40986875023760       -3.62708177311319       -1.27530601230275
H           -9.68873208730399       -4.58163192674362       -1.19066538252785
H          -11.55161646464000       -3.17087634424323       -0.37291266065120
H           -6.82892426348662        0.27475038970785        1.27509399703851
H           -8.16804651775727       -0.12824097989559        2.35810469609638
H           -7.77261740046051        1.55499089703183        2.02233505377720
H           -7.23026597597788        1.04745895819643       -1.01814294364295
H           -8.87037975857803        1.23977105702978       -1.65209311251729
H           -8.20958705943784        2.41978317709275       -0.52350319553848
H           -9.14407296577000        3.08745229262045        1.31291732334231
H          -11.17078717586410        4.21026027446128        2.04998325956738
H          -13.33654960642713        3.00965851286809        2.03269235862776
H          -13.41742229555909        0.66538588036545        1.26070517633589
H          -12.29022128595207       -1.19717867875735        0.43344154339708
H           -6.74566524935568       -0.69303041631616       -2.67819841050933
H           -4.36344298693547       -0.22030345595587       -2.96346530052335
H           -2.29354924422649       -0.91847004840621       -3.25271693222161
H            0.14897386848345       -0.45671114790893       -3.38558672627706
H            3.88998955409283       -0.45667615326174       -2.11905741868490
H            6.31244254134863       -0.03822691697761       -2.39399412182373

          :  Hamiltonian                  GFN2-xTB          :
         :: gradient norm              0.000063723131 Eh/a0 ::
         :: HOMO-LUMO gap              1.606983519634 eV    ::
         :: SCC energy              -141.752719409793 Eh    ::
         :: -> dispersion             -0.129372340336 Eh    ::
         :: repulsion energy           2.529631649296 Eh    ::

    * Orbital Energies and Occupations

         #    Occupation            Energy/Eh            Energy/eV
      -------------------------------------------------------------
         1        2.0000           -0.6638629             -18.0646
       ...           ...                  ...                  ...
       118        2.0000           -0.4047870             -11.0148
       119        2.0000           -0.4003688             -10.8946
       120        2.0000           -0.4001357             -10.8882
       121        2.0000           -0.3941628             -10.7257
       122        2.0000           -0.3936730             -10.7124
       123        2.0000           -0.3915699             -10.6552
       124        2.0000           -0.3886501             -10.5757
       125        2.0000           -0.3883126             -10.5665
       126        2.0000           -0.3860779             -10.5057
       127        2.0000           -0.3791080             -10.3161
       128        2.0000           -0.3491981              -9.5022
       129        2.0000           -0.3453526              -9.3975
       130        2.0000           -0.3450714              -9.3899 (HOMO)
       131                         -0.2860158              -7.7829 (LUMO)
       132                         -0.2538611              -6.9079
       133                         -0.2393476              -6.5130
       134                         -0.2235807              -6.0839
       135                         -0.2235524              -6.0832
       136                         -0.2219501              -6.0396
       137                         -0.2217230              -6.0334
       138                         -0.2181862              -5.9371
       139                         -0.2181546              -5.9363
       140                         -0.2156961              -5.8694
       141                         -0.2152644              -5.8576
       ...                                ...                  ...
       256                          0.6923859              18.8408
      -------------------------------------------------------------
                  HL-Gap            0.0590556 Eh            1.6070 eV

     #   Z          covCN         q      C6AA      α(0)
     1   6 C        3.761    -0.106    22.575     6.773
     2   6 C        3.904     0.023    20.126     6.377
     3   6 C        3.761    -0.106    22.572     6.773
     4   6 C        2.980    -0.013    28.328     8.731
     5   6 C        2.928    -0.036    28.900     8.816
     6   6 C        2.918    -0.046    29.139     8.852
     7   6 C        2.919    -0.033    28.810     8.802
     8   6 C        2.925    -0.062    29.554     8.915
     9   6 C        2.920     0.064    26.556     8.451
    10   7 N        2.709    -0.141    24.044     7.283
    11   6 C        2.919     0.064    26.561     8.451
    12   6 C        2.929    -0.065    29.616     8.925
    13   6 C        2.915    -0.032    28.809     8.802
    14   6 C        2.938    -0.049    29.215     8.865
    15   6 C        2.980     0.004    27.929     8.669
    16   6 C        2.986     0.021    27.541     8.608
    17   6 C        2.923    -0.034    28.858     8.809
    18   6 C        2.921    -0.034    28.857     8.809
    19   6 C        2.981     0.003    27.961     8.674
    20   6 C        2.954     0.099    25.813     8.333
    21   6 C        2.914    -0.045    29.111     8.848
    22   6 C        2.922    -0.024    28.614     8.772
    23   6 C        2.965     0.079    26.242     8.403
    24   7 N        1.849    -0.249    27.334     7.749
    25   6 C        2.954     0.099    25.813     8.333
    26   6 C        2.981     0.003    27.960     8.674
    27   6 C        2.925    -0.028    28.697     8.785
    28   6 C        2.922    -0.033    28.825     8.804
    29   6 C        2.986     0.021    27.538     8.608
    30   6 C        2.980     0.004    27.929     8.669
    31   6 C        2.938    -0.049    29.220     8.865
    32   6 C        2.915    -0.033    28.813     8.802
    33   6 C        2.929    -0.065    29.619     8.925
    34   6 C        2.919     0.064    26.560     8.451
    35   6 C        2.970    -0.017    28.427     8.746
    36   6 C        3.904     0.023    20.126     6.377
    37   6 C        3.761    -0.107    22.582     6.774
    38   6 C        3.761    -0.106    22.572     6.773
    39   6 C        2.980    -0.013    28.325     8.730
    40   6 C        2.928    -0.036    28.900     8.816
    41   6 C        2.918    -0.046    29.138     8.852
    42   6 C        2.919    -0.033    28.811     8.802
    43   6 C        2.925    -0.062    29.554     8.915
    44   6 C        2.920     0.064    26.558     8.451
    45   7 N        2.709    -0.141    24.044     7.283
    46   6 C        2.923    -0.035    28.860     8.810
    47   6 C        2.921    -0.034    28.855     8.809
    48   6 C        2.914    -0.045    29.110     8.847
    49   6 C        2.922    -0.024    28.614     8.772
    50   6 C        2.965     0.079    26.241     8.402
    51   7 N        1.849    -0.249    27.334     7.749
    52   6 C        2.925    -0.028    28.699     8.785
    53   6 C        2.923    -0.033    28.824     8.804
    54   6 C        2.970    -0.017    28.433     8.746
    55   1 H        0.925     0.042     2.418     2.432
    56   1 H        0.925     0.030     2.588     2.516
    57   1 H        0.925     0.039     2.469     2.457
    58   1 H        0.925     0.029     2.594     2.519
    59   1 H        0.925     0.038     2.470     2.458
    60   1 H        0.925     0.042     2.424     2.434
    61   1 H        0.926     0.029     2.603     2.523
    62   1 H        0.926     0.025     2.653     2.547
    63   1 H        0.926     0.027     2.625     2.534
    64   1 H        0.925     0.020     2.727     2.583
    65   1 H        0.860     0.158     1.346     1.817
    66   1 H        0.926     0.021     2.714     2.576
    67   1 H        0.926     0.030     2.592     2.518
    68   1 H        0.926     0.026     2.647     2.544
    69   1 H        0.926     0.034     2.535     2.490
    70   1 H        0.926     0.032     2.563     2.503
    71   1 H        0.926     0.037     2.487     2.466
    72   1 H        0.926     0.049     2.329     2.386
    73   1 H        0.926     0.052     2.294     2.369
    74   1 H        0.926     0.036     2.505     2.475
    75   1 H        0.926     0.025     2.664     2.552
    76   1 H        0.926     0.029     2.597     2.520
    77   1 H        0.926     0.021     2.716     2.577
    78   1 H        0.925     0.044     2.399     2.422
    79   1 H        0.925     0.030     2.591     2.517
    80   1 H        0.925     0.039     2.462     2.454
    81   1 H        0.925     0.042     2.418     2.432
    82   1 H        0.925     0.029     2.598     2.521
    83   1 H        0.925     0.039     2.465     2.455
    84   1 H        0.926     0.029     2.596     2.520
    85   1 H        0.926     0.025     2.653     2.547
    86   1 H        0.926     0.027     2.627     2.534
    87   1 H        0.925     0.020     2.729     2.584
    88   1 H        0.860     0.158     1.347     1.818
    89   1 H        0.926     0.034     2.536     2.490
    90   1 H        0.926     0.032     2.562     2.503
    91   1 H        0.926     0.037     2.488     2.466
    92   1 H        0.926     0.049     2.330     2.387
    93   1 H        0.926     0.053     2.288     2.365
    94   1 H        0.926     0.036     2.507     2.476

molecular dipole:
                 x           y           z       tot (Debye)
 q only:        0.019      -0.085      -0.029
   full:        0.008      -0.072      -0.111       0.338

 projected vibrational frequencies (cm⁻¹)
eigval :       -0.00    -0.00    -0.00    -0.00     0.00     0.00
eigval :        6.32     6.67    12.35    18.88    24.62    30.02
eigval :       34.03    38.46    45.27    49.90    64.19    67.67
eigval :       68.30    80.27    98.70    98.74   101.51   110.30
eigval :      113.64   135.25   139.22   149.89   161.64   167.28
eigval :      180.23   184.67   203.63   216.58   219.56   224.47
eigval :      227.04   229.07   231.84   258.07   266.29   274.54
eigval :      291.04   302.23   315.19   323.30   324.70   331.51
eigval :      349.94   350.92   351.80   359.44   369.92   379.24
eigval :      380.25   383.57   387.42   390.09   398.22   417.54
eigval :      426.98   438.32   451.84   464.48   464.62   466.33
eigval :      482.21   482.66   484.81   515.06   515.15   522.66
eigval :      523.42   532.51   536.20   539.97   549.84   549.89
eigval :      552.59   560.33   573.32   579.45   580.42   587.00
eigval :      595.88   615.68   619.40   620.86   628.14   636.32
eigval :      644.04   668.85   679.93   688.92   688.97   701.15
eigval :      706.77   708.70   708.80   711.46   746.13   754.79
eigval :      761.01   778.30   778.41   795.41   795.61   803.70
eigval :      813.71   814.62   821.71   833.16   839.51   846.76
eigval :      858.25   860.42   863.83   863.92   871.23   871.65
eigval :      877.18   877.77   890.11   914.38   914.47   916.57
eigval :      916.77   919.48   921.36   922.45   922.74   924.65
eigval :      924.75   928.12   935.09   935.34   935.52   938.04
eigval :      944.21   948.29   961.16   961.59  1013.10  1013.41
eigval :     1014.43  1014.45  1075.37  1075.48  1085.76  1087.02
eigval :     1089.61  1089.69  1109.05  1109.07  1123.23  1123.41
eigval :     1127.57  1130.99  1142.46  1146.39  1146.51  1154.80
eigval :     1162.99  1163.01  1166.09  1166.21  1184.60  1184.60
eigval :     1194.44  1195.50  1198.10  1200.23  1202.26  1212.88
eigval :     1213.14  1224.11  1224.26  1254.43  1255.75  1259.64
eigval :     1260.23  1265.54  1268.93  1274.50  1275.78  1282.06
eigval :     1282.29  1294.68  1295.50  1306.03  1312.99  1320.10
eigval :     1320.61  1322.74  1332.44  1338.66  1338.77  1361.26
eigval :     1389.99  1391.06  1392.05  1395.46  1396.80  1402.13
eigval :     1402.47  1420.16  1420.57  1441.72  1443.50  1449.54
eigval :     1462.45  1466.66  1475.55  1481.31  1481.36  1490.43
eigval :     1490.44  1494.68  1494.81  1498.48  1499.39  1501.24
eigval :     1501.38  1505.96  1506.26  1509.41  1509.48  1518.96
eigval :     1557.01  1560.49  1574.59  1577.39  1579.04  1581.23
eigval :     1581.79  1581.85  1594.02  1594.05  1598.91  1599.75
eigval :     1601.52  1601.58  3023.20  3023.73  3025.12  3025.65
eigval :     3046.91  3047.84  3049.40  3050.26  3062.55  3062.78
eigval :     3064.25  3064.33  3069.18  3069.97  3073.05  3073.25
eigval :     3074.46  3075.11  3075.86  3076.19  3077.53  3077.66
eigval :     3078.45  3079.31  3081.00  3081.45  3083.22  3083.27
eigval :     3086.28  3086.66  3092.14  3092.75  3094.28  3095.06
eigval :     3095.21  3095.25  3104.82  3105.12  3441.48  3441.49

   temp. (K)  partition function   enthalpy   heat capacity  entropy
                                   cal/mol     cal/K/mol   cal/K/mol   J/K/mol
 298.15  VIB  0.122E+22            26720.416    168.898    166.300
         ROT  0.196E+09              888.752      2.981     40.923
         INT  0.239E+30            27609.169    171.879    207.223
         TR   0.178E+29             1481.254      4.968     45.484
         TOT                       29090.4226   176.8470   252.7075  1057.3281

       T/K    H(0)-H(T)+PV         H(T)/Eh          T*S/Eh         G(T)/Eh
   ------------------------------------------------------------------------
    298.15    0.463585E-01    0.791914E+00    0.120069E+00    0.671845E+00
   ------------------------------------------------------------------------

         :::::::::::::::::::::::::::::::::::::::::::::::::::::
         ::                  THERMODYNAMIC                  ::
         :::::::::::::::::::::::::::::::::::::::::::::::::::::
         :: total free energy        -138.551242938069 Eh   ::
         ::.................................................::
         :: total energy             -139.223087760494 Eh   ::
         :: zero point energy           0.745555763483 Eh   ::
         :: G(RRHO) w/o ZPVE           -0.073710941059 Eh   ::
         :: G(RRHO) contrib.            0.671844822425 Eh   ::
         :::::::::::::::::::::::::::::::::::::::::::::::::::::

           -------------------------------------------------
          | TOTAL ENERGY             -139.223087760494 Eh   |
          | TOTAL ENTHALPY           -138.431173457771 Eh   |
          | TOTAL FREE ENERGY        -138.551242938069 Eh   |
          | GRADIENT NORM               0.000063725974 Eh/α |
          | HOMO-LUMO GAP               1.606984085519 eV   |
           -------------------------------------------------

 * finished run on 2025/07/18 at 23:41:52.350
