   * xtb version 6.7.1 (edcfbbe) compiled by 'albert@albert-system' on 2024-07-22

   ID    Z sym.   atoms
    1    6 C      1-9, 11-23, 25-44, 46-50, 52-54
    2    7 N      10, 24, 45, 51
    3    1 H      55-94

          program call               : xtb data2507/gas/NyDPAc/NyDPAc_gas_T1_crest.xyz --gfn 2 --spinpol --tblite --uhf 2 --ohess vtight --parallel 40 --molden --ceasefiles --namespace data2507/gas/NyDPAc/NyDPAc_gas_T1_finalOpt
 * total energy  :  -139.1663605 Eh     change       -0.1027828E-07 Eh
 * total energy  :  -139.1664066 Eh     change       -0.4613913E-04 Eh
 * total energy  :  -139.1664312 Eh     change       -0.2453323E-04 Eh
 * total energy  :  -139.1664342 Eh     change       -0.3060681E-05 Eh
 * total energy  :  -139.1664343 Eh     change       -0.4269125E-07 Eh
 * total energy  :  -139.1664362 Eh     change       -0.1968602E-05 Eh
 * total energy  :  -139.1664384 Eh     change       -0.2170473E-05 Eh
 * total energy  :  -139.1664415 Eh     change       -0.3129235E-05 Eh
 * total energy  :  -139.1664449 Eh     change       -0.3375176E-05 Eh
 * total energy  :  -139.1664474 Eh     change       -0.2513082E-05 Eh
 * total energy  :  -139.1664828 Eh     change       -0.5433989E-06 Eh
 * total energy  :  -139.1664833 Eh     change       -0.5241805E-06 Eh
 * total energy  :  -139.1664838 Eh     change       -0.4913527E-06 Eh
 * total energy  :  -139.1664845 Eh     change       -0.6688466E-06 Eh
 * total energy  :  -139.1664851 Eh     change       -0.6418229E-06 Eh
 * total energy  :  -139.1664857 Eh     change       -0.5641763E-06 Eh
 * total energy  :  -139.1664861 Eh     change       -0.3941004E-06 Eh
 * total energy  :  -139.1664864 Eh     change       -0.2879271E-06 Eh
 * total energy  :  -139.1664864 Eh     change       -0.3351801E-08 Eh
   *** GEOMETRY OPTIMIZATION CONVERGED AFTER 44 ITERATIONS ***

 final structure:
================
94
 xtb: 6.7.1 (edcfbbe)
C            8.06389547868135       -1.22368744063127       -1.04263083261342
C            8.93842700375158       -0.64654193795812        0.08516587906294
C            8.32773182044040       -0.97846609285012        1.45872254436055
C           10.29571844383351       -1.33404584408661        0.00921859927495
C           10.39564339606661       -2.71305533116169        0.13579937571824
C           11.61327242162884       -3.36757204458706        0.07054676074154
C           12.77697913766674       -2.64343196945020       -0.12643611465343
C           12.70862646776342       -1.27298114248495       -0.25546768546460
C           11.47814017020561       -0.61847983276067       -0.18854493661929
N           11.43291326947472        0.74518896806770       -0.31900707526743
C           10.27740033143896        1.48698653795090       -0.26526396026296
C           10.39899790634505        2.86886436372270       -0.41039054683055
C            9.28292182764691        3.67331991186838       -0.36711712106078
C            8.04695697752879        3.08893905067697       -0.17931906714693
C            7.91014410839901        1.70815533323623       -0.03327818103133
C            6.49892751343235        1.28796704126365        0.15427953013415
C            5.92203310499437        1.28827765420159        1.42181550908167
C            4.58385000478750        1.00246807631878        1.59565700628059
C            3.76179659994146        0.72276501229533        0.49929380756055
C            2.34900098535250        0.41980727361697        0.62117415697294
C            1.65279221845500        0.31797821204873        1.82775552364282
C            0.30323191280829        0.03616066435363        1.83855460699095
C           -0.39712392421196       -0.15406786279712        0.63061829181665
N           -1.67360877278540       -0.41536734380069        0.56217868510846
C           -2.36015012809757       -0.60302519160454       -0.57935021172940
C           -3.77993421309746       -0.87225546984998       -0.45953722151969
C           -4.36662999687151       -0.87343776658641        0.81323119650532
C           -5.71305739327713       -1.11033751158181        0.97828722851610
C           -6.53658849787332       -1.33751451595009       -0.12254042600666
C           -7.96548308697056       -1.69420241395806        0.06247711159300
C           -8.16266539728949       -3.06406820740715        0.23848454977565
C           -9.42417363227733       -3.59051333324870        0.42800434734129
C          -10.50492986101286       -2.73824184773391        0.44267937459000
C          -10.32287433201241       -1.36646718676263        0.26776913655435
C           -9.04844430960682       -0.80930274807160        0.07265249150608
C           -8.89081917101976        0.69946886761421       -0.11740830775964
C           -7.99861463787950        1.26359018695030        1.00307468355153
C           -8.25924364519834        0.97479661266849       -1.49405109468811
C          -10.21758812047145        1.44629712855870       -0.06549004905035
C          -10.25681667008000        2.82549186287815       -0.22034802478519
C          -11.44538154064135        3.53313362509727       -0.17782889485314
C          -12.64072032153539        2.86398493541478        0.02414969902180
C          -12.63271015402230        1.49471846420597        0.18073980811849
C          -11.43126643049833        0.78650707997295        0.13667763213956
N          -11.44596424567752       -0.57500502136117        0.29398739014743
C           -5.95184653629577       -1.38480603104661       -1.38555753070480
C           -4.60361382669093       -1.14806669360599       -1.55565831111364
C           -1.66106091949544       -0.51516821249818       -1.78536282391088
C           -0.30990284854827       -0.24113356627935       -1.79581081995009
C            0.38893887614797       -0.04413919945125       -0.58809767608805
N            1.66381238403680        0.22490938428875       -0.51996991334764
C            4.34048275684807        0.76389492350298       -0.77647566827025
C            5.67682564241589        1.05004605332992       -0.94532937541986
C            9.02984607235012        0.87130605947152       -0.07230339146314
H            7.03105023097444       -0.91222773836914       -0.93044902457729
H            8.43247796939478       -0.88297252585522       -2.00870536529129
H            8.09262224669369       -2.30958747428717       -1.03240088349362
H            8.88626074537167       -0.47280438416837        2.24466003064905
H            8.36746564379762       -2.04741584083716        1.64797563061445
H            7.29042641114664       -0.66536468729554        1.50703936155404
H            9.50559352404161       -3.30477286356167        0.28982074703330
H           11.65195097767380       -4.44137909363818        0.17334430576727
H           13.73174503982600       -3.14480368826390       -0.17900303272788
H           13.60553094523623       -0.68911608028508       -0.40983912168112
H           12.30121113666614        1.23907404446470       -0.45948824680275
H           11.38167550675666        3.29533313658237       -0.55677903998738
H            9.37391198856116        4.74316635242912       -0.47864940200891
H            7.15757988892693        3.70081192383061       -0.14304477864697
H            6.53580104819918        1.52256023627239        2.28056110699684
H            4.17831283104978        1.01034132310384        2.59580063103696
H            2.17362836205430        0.45947742814705        2.76066225983533
H           -0.24257653394312       -0.04296849958230        2.76493714066824
H           -3.73488552783808       -0.68774496007738        1.66885091615636
H           -6.14120218665396       -1.12406256442624        1.97087855914321
H           -7.30015284340157       -3.71410809234586        0.22413546283722
H           -9.56206271361909       -4.65262995016323        0.56284649590062
H          -11.50623122789774       -3.11880134000401        0.58943318029640
H           -8.38803855672144        0.96212432136462        1.97399518924196
H           -7.97904563287790        2.34914686748973        0.96764809651270
H           -6.97987317611252        0.90442168624010        0.90578992264109
H           -8.25219594297507        2.04011579163877       -1.70649186390051
H           -7.23608842021703        0.61668083148800       -1.52933585108487
H           -8.83494832680625        0.47650709317701       -2.27226103717835
H           -9.34096230605229        3.37503346406548       -0.37924920176108
H          -11.43676715907606        4.60531818726368       -0.30223155279928
H          -13.57320869522365        3.40707706413740        0.05921771652676
H          -13.55516191421771        0.95334698489185        0.33935072567195
H          -12.33565462014078       -1.02795799537411        0.43851246110212
H           -6.56795328908956       -1.61494704861196       -2.24374855119182
H           -4.19207023338376       -1.19012900915875       -2.55249697292476
H           -2.18191645206638       -0.65662960040233       -2.71826787815909
H            0.23726362389915       -0.16831277668926       -2.72190977144464
H            3.70971197750558        0.57267111790103       -1.63159849770752
H            6.09728416772035        1.09715215334530       -1.94017781439440

 projected vibrational frequencies (cm⁻¹)
eigval :       -0.00    -0.00    -0.00     0.00     0.00     0.00
eigval :        2.28     5.52    12.15    18.03    19.31    26.43
eigval :       36.03    37.78    44.91    49.45    55.80    62.62
eigval :       69.12    79.75    99.20    99.26   104.19   109.10
eigval :      117.97   134.43   138.60   152.08   153.28   162.81
eigval :      181.13   187.75   202.24   215.14   222.23   223.03
eigval :      228.06   228.66   230.89   257.37   266.04   275.19
eigval :      288.65   302.54   314.36   322.19   323.83   328.51
eigval :      339.21   349.80   350.27   363.78   366.36   378.00
eigval :      378.14   383.92   385.05   397.44   397.95   415.16
eigval :      419.78   436.34   449.73   454.27   465.56   465.64
eigval :      485.59   487.47   490.86   507.92   511.08   513.99
eigval :      514.00   520.15   531.32   538.47   549.63   549.71
eigval :      551.15   553.69   568.34   574.66   577.59   580.00
eigval :      582.27   598.50   614.32   620.37   620.60   626.80
eigval :      635.42   641.17   672.22   675.62   689.88   689.90
eigval :      694.36   694.64   701.67   710.07   710.11   743.23
eigval :      751.65   753.98   773.53   777.52   777.56   794.90
eigval :      794.92   811.14   811.39   816.13   816.29   818.28
eigval :      833.23   844.00   856.83   858.12   863.55   864.01
eigval :      864.04   864.11   873.07   873.08   878.09   885.76
eigval :      914.49   914.50   917.24   917.26   918.63   918.76
eigval :      922.58   922.59   931.08   931.12   932.94   933.23
eigval :      942.44   942.76   961.67   961.70  1009.54  1010.09
eigval :     1014.16  1014.18  1075.00  1075.05  1082.20  1085.48
eigval :     1089.33  1089.64  1108.00  1108.06  1113.44  1120.54
eigval :     1123.51  1124.77  1138.84  1145.24  1145.69  1147.22
eigval :     1161.92  1161.97  1165.44  1165.65  1184.00  1184.01
eigval :     1193.47  1193.83  1198.26  1199.21  1208.43  1211.86
eigval :     1212.98  1217.99  1223.69  1223.81  1254.54  1254.85
eigval :     1259.44  1260.33  1264.78  1268.39  1271.37  1277.27
eigval :     1280.59  1281.33  1289.05  1294.78  1306.68  1312.75
eigval :     1317.17  1319.34  1321.84  1338.57  1338.73  1356.27
eigval :     1376.85  1386.46  1388.67  1391.75  1400.88  1401.02
eigval :     1404.92  1406.14  1411.37  1418.89  1419.01  1440.95
eigval :     1442.91  1450.31  1462.00  1471.03  1477.99  1478.09
eigval :     1489.06  1489.07  1492.89  1493.56  1493.71  1494.24
eigval :     1499.38  1499.80  1502.28  1502.42  1506.60  1506.65
eigval :     1510.03  1537.83  1542.54  1547.55  1573.49  1573.57
eigval :     1579.21  1579.26  1589.08  1590.11  1591.13  1592.33
eigval :     1598.39  1598.70  3023.24  3023.31  3024.97  3025.06
eigval :     3047.67  3047.68  3049.99  3050.05  3063.52  3063.53
eigval :     3064.21  3064.39  3069.51  3069.51  3071.54  3071.60
eigval :     3072.39  3072.57  3076.72  3077.01  3078.13  3078.22
eigval :     3079.95  3079.98  3085.04  3085.05  3088.34  3088.41
eigval :     3091.48  3091.55  3092.66  3092.99  3094.10  3094.63
eigval :     3096.01  3096.49  3104.93  3105.11  3435.12  3435.88

   temp. (K)  partition function   enthalpy   heat capacity  entropy
                                   cal/mol     cal/K/mol   cal/K/mol   J/K/mol
 298.15  VIB  0.820E+22            26952.020    170.214    168.891
         ROT  0.192E+09              888.752      2.981     40.885
         INT  0.158E+31            27840.773    173.195    209.776
         TR   0.178E+29             1481.254      4.968     45.484
         TOT                       29322.0267   178.1635   255.2601  1068.0082

       T/K    H(0)-H(T)+PV         H(T)/Eh          T*S/Eh         G(T)/Eh
   ------------------------------------------------------------------------
    298.15    0.467276E-01    0.789111E+00    0.121282E+00    0.667828E+00
   ------------------------------------------------------------------------

         :::::::::::::::::::::::::::::::::::::::::::::::::::::
         ::                  THERMODYNAMIC                  ::
         :::::::::::::::::::::::::::::::::::::::::::::::::::::
         :: total free energy        -138.498658008603 Eh   ::
         ::.................................................::
         :: total energy             -139.166486366553 Eh   ::
         :: zero point energy           0.742383036943 Eh   ::
         :: G(RRHO) w/o ZPVE           -0.074554678992 Eh   ::
         :: G(RRHO) contrib.            0.667828357951 Eh   ::
         :::::::::::::::::::::::::::::::::::::::::::::::::::::

           -------------------------------------------------
          | TOTAL ENERGY             -139.166486366553 Eh   |
          | TOTAL ENTHALPY           -138.377375705663 Eh   |
          | TOTAL FREE ENERGY        -138.498658008603 Eh   |
          | GRADIENT NORM               0.000049920401 Eh/α |
           -------------------------------------------------

 * finished run on 2025/07/18 at 23:56:06.123
