   * xtb version 6.7.1 (edcfbbe) compiled by 'albert@albert-system' on 2024-07-22

   ID    Z sym.   atoms
    1    6 C      1-9, 11-23, 25-44, 46-50, 52-54
    2    7 N      10, 24, 45, 51
    3    1 H      55-94

          program call               : xtb data2507/gas/NyDPAc/NyDPAc_gas_S0_finalOpt.xtbopt.xyz --gfn 2 --spinpol --tblite --uhf 2 --ohess vtight --parallel 40 --molden --ceasefiles --namespace data2507/gas/NyDPAc/NyDPAc_gas_T1_preOpt
 * total energy  :  -139.1577126 Eh     change        0.7209053E-08 Eh
 * total energy  :  -139.1629533 Eh     change       -0.5240733E-02 Eh
 * total energy  :  -139.1649430 Eh     change       -0.1989707E-02 Eh
 * total energy  :  -139.1651939 Eh     change       -0.2508708E-03 Eh
 * total energy  :  -139.1653393 Eh     change       -0.1453675E-03 Eh
 * total energy  :  -139.1653787 Eh     change       -0.3949031E-04 Eh
 * total energy  :  -139.1654259 Eh     change       -0.4717136E-04 Eh
 * total energy  :  -139.1654595 Eh     change       -0.3353946E-04 Eh
 * total energy  :  -139.1654924 Eh     change       -0.3291596E-04 Eh
 * total energy  :  -139.1655202 Eh     change       -0.2783280E-04 Eh
 * total energy  :  -139.1658573 Eh     change       -0.4066655E-06 Eh
 * total energy  :  -139.1658578 Eh     change       -0.4569943E-06 Eh
 * total energy  :  -139.1658582 Eh     change       -0.3808193E-06 Eh
 * total energy  :  -139.1658584 Eh     change       -0.2462887E-06 Eh
 * total energy  :  -139.1658586 Eh     change       -0.2221056E-06 Eh
 * total energy  :  -139.1658589 Eh     change       -0.3005602E-06 Eh
 * total energy  :  -139.1658593 Eh     change       -0.3396231E-06 Eh
 * total energy  :  -139.1658594 Eh     change       -0.1268235E-06 Eh
 * total energy  :  -139.1658595 Eh     change       -0.8407247E-07 Eh
   *** GEOMETRY OPTIMIZATION CONVERGED AFTER 62 ITERATIONS ***

 final structure:
================
94
 xtb: 6.7.1 (edcfbbe)
C            8.10409925692078       -1.52307419605199       -0.35416233262495
C            8.86915510729120       -0.53686174472053        0.54662481766437
C            8.10757696795553       -0.31670393699479        1.86656902806767
C           10.20745870089473       -1.17598285910840        0.89477427280384
C           10.25516498922986       -2.39679431696065        1.55436348068493
C           11.45419003347359       -2.99921884382192        1.89293937797594
C           12.65171138277987       -2.38207067133759        1.57284931570168
C           12.63539586107913       -1.17122590317161        0.91475882939109
C           11.42339982388117       -0.56908029881414        0.57497530935098
N           11.42974736089375        0.63386980996588       -0.08196833534943
C           10.29590278745894        1.30699665917095       -0.46906689812050
C           10.47029803155774        2.51229692090849       -1.14902399717527
C            9.37866366357273        3.23903777410134       -1.56713859790608
C            8.11394437988061        2.75744209460753       -1.29685587041958
C            7.92438020996951        1.55600426160277       -0.61358338659455
C            6.49093349210209        1.22676755458242       -0.41298186558922
C            5.81426673686716        1.67217536204318        0.71973535099606
C            4.46234128145692        1.44627129675958        0.87372849797598
C            3.73010719972117        0.78580088976114       -0.11689100638311
C            2.30931575201699        0.51849999877046        0.01299481778851
C            1.62389778862937        0.50832660346175        1.22805683380436
C            0.27456985200774        0.22199519427176        1.26749779047494
C           -0.43068228950169       -0.04881886902867        0.07939604525918
N           -1.70809303820381       -0.31627122383666        0.03814453948673
C           -2.40647484304880       -0.54915431861299       -1.08644540926850
C           -3.82386634535817       -0.82373860727205       -0.93701222620883
C           -4.31828769840926       -1.18273913856510        0.32272962523229
C           -5.65732767879556       -1.44376377215231        0.51329790528969
C           -6.56237664190605       -1.32391720494443       -0.53895832183889
C           -7.98863322670339       -1.69357570135249       -0.35896727348698
C           -8.24271096919260       -3.03293469951183       -0.65537328566662
C           -9.50947279767772       -3.56775827939090       -0.53793266715985
C          -10.53792967870279       -2.75488262457607       -0.11835735597346
C          -10.29951739517122       -1.41277654419777        0.17750332491199
C           -9.01910376299972       -0.84696180579386        0.06255254856556
C           -8.80183042810902        0.63220319400198        0.38284217214449
C           -7.79729185972395        0.76564196794553        1.54216215428852
C           -8.26810047113783        1.34646448180432       -0.87186397355645
C          -10.08155269118025        1.34220464368199        0.80592389066038
C          -10.06584652648557        2.69394034807951        1.12269563715471
C          -11.20884514592180        3.36591130909620        1.51917133908904
C          -12.41279097359549        2.68770257322284        1.60858064414331
C          -12.45942933407750        1.34592568389372        1.29725062050601
C          -11.30388622293359        0.67389676337975        0.89713291584497
N          -11.37280074285419       -0.66001435137206        0.58950745862145
C           -6.07088026055222       -1.00057528894701       -1.80138929767210
C           -4.72894239411540       -0.74828256181547       -1.99936370571578
C           -1.72369456525659       -0.53062448762804       -2.30269349087561
C           -0.36694417446771       -0.27781156669729       -2.33967317633801
C            0.34390870618730       -0.01902810542955       -1.15184666406057
N            1.62400863126130        0.23887988864924       -1.10885168291612
C            4.40277358818771        0.39490977724085       -1.28057910611694
C            5.75536070399016        0.61471192081201       -1.42578900263966
C            9.01836748503577        0.79653671188956       -0.18636093646244
H            7.08966341277429       -1.18109463342462       -0.52930874913931
H            8.61284510638746       -1.62082418811126       -1.31171652150019
H            8.05509996080428       -2.50536412441992        0.10707892523665
H            8.56101546459087        0.50060064731801        2.42478117956813
H            8.14532970099508       -1.20975380891033        2.48400552780159
H            7.06605561122003       -0.08026488998442        1.67838710447836
H            9.33778334724011       -2.90189729280914        1.81767848079845
H           11.45200501648528       -3.94849372438190        2.40674812308276
H           13.59236350136159       -2.84296881598566        1.83448427778732
H           13.55941732746862       -0.67369801124233        0.65438638367608
H           12.32128951692182        1.04776048010941       -0.30875402173311
H           11.47438151621873        2.86330725814424       -1.34284681741551
H            9.51068418185956        4.17055488130774       -2.09640451617304
H            7.24302010968505        3.31272134547511       -1.61274957678697
H            6.35885651263161        2.21033615923823        1.48288665795962
H            3.96784545122589        1.81276482991145        1.76071967931267
H            2.15913285078898        0.70126767313531        2.14374357337527
H           -0.26526461101039        0.20099178793370        2.20037647937117
H           -3.62300450749117       -1.26387228767480        1.14468111219622
H           -6.01415258817375       -1.74989739280027        1.48659970351609
H           -7.42012920828510       -3.65314339073087       -0.98004848335238
H           -9.69158163995640       -4.60612530596452       -0.77014276158124
H          -11.54150717917272       -3.14343877408441       -0.01434271852439
H           -6.79741619053203        0.49320494044595        1.22270292155489
H           -8.09411999198003        0.11964059674446        2.36662735062264
H           -7.76813481939212        1.78823646639739        1.90769388454544
H           -7.28667763775924        0.97210712453892       -1.14254842104922
H           -8.94866300084642        1.18697300245117       -1.70659445162750
H           -8.18610468806641        2.41574509763792       -0.69903110460161
H           -9.14172586128568        3.24938398201185        1.06339756013346
H          -11.15788484838489        4.41716479630646        1.75874849291098
H          -13.30962867769009        3.20258904254598        1.91887603929302
H          -13.38973091265199        0.79836468645590        1.35943036644962
H          -12.26884884746998       -1.11844506772970        0.65703588728237
H           -6.75668868854492       -0.94372175230077       -2.63542449024934
H           -4.38721128325179       -0.47586602141647       -2.98658887602845
H           -2.25612154099656       -0.73793164314443       -3.21694409616265
H            0.17374272881090       -0.27084877238308       -3.27234055810800
H            3.83893552416583       -0.08735677872513       -2.06486277526513
H            6.25748800603097        0.31132474620917       -2.33396326690682

 projected vibrational frequencies (cm⁻¹)
eigval :       -0.00    -0.00    -0.00     0.00     0.00     0.00
eigval :        5.77     6.18    13.34    17.89    25.70    28.58
eigval :       34.88    38.74    45.78    50.38    62.82    65.01
eigval :       69.12    80.85    99.47    99.56   102.25   110.34
eigval :      115.83   137.01   139.57   150.78   159.42   162.97
eigval :      180.49   186.97   202.59   215.71   218.87   225.75
eigval :      228.20   228.71   231.26   257.73   266.63   271.60
eigval :      288.77   300.28   313.23   322.41   324.04   329.20
eigval :      341.01   350.41   351.04   363.86   367.98   379.46
eigval :      380.35   383.37   385.18   396.53   399.06   410.95
eigval :      423.13   436.41   449.84   454.61   465.65   465.82
eigval :      487.31   487.84   488.39   506.73   513.99   514.02
eigval :      516.93   522.93   531.72   538.09   549.75   549.80
eigval :      551.68   554.26   568.02   575.18   579.42   580.07
eigval :      582.84   599.59   614.21   620.50   620.79   626.75
eigval :      635.53   641.33   672.42   675.82   689.91   689.94
eigval :      694.87   695.77   701.95   710.10   710.21   743.30
eigval :      750.91   754.24   773.46   777.49   777.55   794.82
eigval :      794.92   811.58   812.80   814.95   817.78   819.44
eigval :      836.65   847.54   856.73   858.20   863.99   864.07
eigval :      866.78   867.24   872.96   873.11   878.79   886.41
eigval :      914.45   914.52   917.17   917.29   918.99   920.38
eigval :      922.56   922.73   931.35   932.43   933.29   933.72
eigval :      942.64   942.91   961.82   962.08  1010.22  1010.76
eigval :     1014.47  1014.49  1074.93  1074.98  1080.57  1087.81
eigval :     1089.13  1089.45  1107.87  1107.97  1111.08  1120.90
eigval :     1123.22  1125.06  1137.25  1144.46  1145.59  1146.05
eigval :     1161.73  1161.79  1165.46  1165.58  1184.15  1184.17
eigval :     1192.10  1193.44  1197.99  1198.03  1208.73  1211.67
eigval :     1212.60  1218.04  1223.65  1223.75  1254.97  1255.31
eigval :     1259.65  1260.45  1265.81  1269.71  1273.13  1274.48
eigval :     1280.53  1281.52  1290.10  1295.35  1309.12  1312.68
eigval :     1316.59  1319.23  1322.80  1338.53  1338.69  1356.99
eigval :     1371.29  1387.48  1389.47  1392.65  1401.01  1401.24
eigval :     1404.55  1405.57  1411.19  1419.30  1419.59  1441.23
eigval :     1442.81  1451.47  1462.15  1469.62  1477.87  1478.15
eigval :     1489.37  1489.44  1493.35  1493.68  1493.89  1494.40
eigval :     1499.71  1500.04  1502.47  1502.65  1506.83  1506.88
eigval :     1509.44  1537.26  1543.83  1546.29  1573.40  1573.53
eigval :     1579.27  1579.39  1588.78  1590.02  1591.03  1592.71
eigval :     1598.00  1598.55  3023.29  3023.53  3024.94  3025.18
eigval :     3047.35  3047.84  3049.71  3050.18  3063.74  3063.79
eigval :     3064.40  3064.57  3069.08  3069.96  3071.95  3072.07
eigval :     3072.09  3073.64  3076.56  3077.04  3078.19  3078.39
eigval :     3079.95  3080.39  3085.25  3085.29  3086.37  3086.87
eigval :     3092.41  3092.51  3092.92  3093.16  3093.24  3093.78
eigval :     3096.27  3096.61  3103.57  3104.11  3435.57  3436.66

   temp. (K)  partition function   enthalpy   heat capacity  entropy
                                   cal/mol     cal/K/mol   cal/K/mol   J/K/mol
 298.15  VIB  0.156E+22            26900.767    170.373    167.284
         ROT  0.196E+09              888.752      2.981     40.926
         INT  0.306E+30            27789.520    173.354    208.210
         TR   0.178E+29             1481.254      4.968     45.484
         TOT                       29270.7736   178.3224   253.6943  1061.4568

       T/K    H(0)-H(T)+PV         H(T)/Eh          T*S/Eh         G(T)/Eh
   ------------------------------------------------------------------------
    298.15    0.466459E-01    0.789192E+00    0.120538E+00    0.668654E+00
   ------------------------------------------------------------------------

         :::::::::::::::::::::::::::::::::::::::::::::::::::::
         ::                  THERMODYNAMIC                  ::
         :::::::::::::::::::::::::::::::::::::::::::::::::::::
         :: total free energy        -138.497205784983 Eh   ::
         ::.................................................::
         :: total energy             -139.165859587312 Eh   ::
         :: zero point energy           0.742546181400 Eh   ::
         :: G(RRHO) w/o ZPVE           -0.073892379071 Eh   ::
         :: G(RRHO) contrib.            0.668653802329 Eh   ::
         :::::::::::::::::::::::::::::::::::::::::::::::::::::

           -------------------------------------------------
          | TOTAL ENERGY             -139.165859587312 Eh   |
          | TOTAL ENTHALPY           -138.376667459060 Eh   |
          | TOTAL FREE ENERGY        -138.497205784983 Eh   |
          | GRADIENT NORM               0.000123055879 Eh/α |
           -------------------------------------------------

 * finished run on 2025/07/18 at 23:47:27.472
