   * xtb version 6.7.1 (edcfbbe) compiled by 'albert@albert-system' on 2024-07-22

   ID    Z sym.   atoms
    1    6 C      1-9, 11-23, 25-44, 46-50, 52-54
    2    7 N      10, 24, 45, 51
    3    1 H      55-94

          program call               : xtb data2507/gas/NyDPAc/NyDPAc_gas_S0_crest.xyz --gfn 2 --ohess vtight --parallel 40 --molden --ceasefiles --namespace data2507/gas/NyDPAc/NyDPAc_gas_S0_finalOpt
          :  Hamiltonian                  GFN2-xTB          :
 * total energy  :  -139.2230727 Eh     change       -0.1365152E-08 Eh
 * total energy  :  -139.2230738 Eh     change       -0.1166214E-05 Eh
 * total energy  :  -139.2230757 Eh     change       -0.1842971E-05 Eh
 * total energy  :  -139.2230778 Eh     change       -0.2146541E-05 Eh
 * total energy  :  -139.2230790 Eh     change       -0.1145049E-05 Eh
 * total energy  :  -139.2230803 Eh     change       -0.1330760E-05 Eh
 * total energy  :  -139.2230820 Eh     change       -0.1669768E-05 Eh
 * total energy  :  -139.2230835 Eh     change       -0.1570255E-05 Eh
 * total energy  :  -139.2230848 Eh     change       -0.1253527E-05 Eh
 * total energy  :  -139.2230857 Eh     change       -0.9123388E-06 Eh
 * total energy  :  -139.2230881 Eh     change       -0.4768809E-06 Eh
 * total energy  :  -139.2230885 Eh     change       -0.4505611E-06 Eh
 * total energy  :  -139.2230890 Eh     change       -0.4492090E-06 Eh
 * total energy  :  -139.2230894 Eh     change       -0.4230019E-06 Eh
 * total energy  :  -139.2230897 Eh     change       -0.3523803E-06 Eh
 * total energy  :  -139.2230900 Eh     change       -0.2431388E-06 Eh
 * total energy  :  -139.2230902 Eh     change       -0.1876990E-06 Eh
 * total energy  :  -139.2230904 Eh     change       -0.1941069E-06 Eh
 * total energy  :  -139.2230904 Eh     change       -0.5286921E-08 Eh
   *** GEOMETRY OPTIMIZATION CONVERGED AFTER 22 ITERATIONS ***

 final structure:
================
94
 xtb: 6.7.1 (edcfbbe)
C            8.11357733615458       -1.60281531608467       -0.23309880146078
C            8.86633326641423       -0.55843563495138        0.61099566232918
C            8.09397796855686       -0.26169049031648        1.90916083563998
C           10.20637425673118       -1.16821420500795        1.00510594099560
C           10.25538959129661       -2.34392829052291        1.74211652466973
C           11.45481943060202       -2.92410007366638        2.11592648224132
C           12.65091942290054       -2.32913006948579        1.75351153203545
C           12.63264914065090       -1.16104251312049        1.02164434336239
C           11.42065355898002       -0.58103331996989        0.64775855474688
N           11.42607792955134        0.58143904888575       -0.08056461296985
C           10.29139134757545        1.23320012156407       -0.49867388296366
C           10.46151602407012        2.40699257778818       -1.23218417158819
C            9.36843424094442        3.11166535148714       -1.68345266476943
C            8.10474897443131        2.63756680750670       -1.39754904441508
C            7.92051599500029        1.46508736655154       -0.66432178692128
C            6.48677083535013        1.13498462849785       -0.46720735133897
C            5.77788956629422        1.68597189757776        0.59599093694060
C            4.42213996225991        1.46089829492917        0.73631742227897
C            3.73201877310230        0.69287105883731       -0.19940635390507
C            2.29303989598315        0.42951701143804       -0.08547879501290
C            1.64087347356407        0.42626053727900        1.17448724599939
C            0.30041357535836        0.17966981553046        1.24116291019572
C           -0.41051475244943       -0.06735583500767        0.04547363453947
N           -1.73044699932099       -0.30117119328781        0.08460748234359
C           -2.37499130761286       -0.53201641358988       -1.03804243720485
C           -3.81742975141959       -0.77527686466541       -0.92157884234710
C           -4.32644800954458       -1.28019806840487        0.27494378321609
C           -5.67709941739854       -1.51861115213479        0.42284025715634
C           -6.56551927882355       -1.23269922453383       -0.61065656061922
C           -8.00137030457435       -1.58994561782969       -0.49139635770294
C           -8.26355355546862       -2.89754188696521       -0.90114544031418
C           -9.54109791907964       -3.41700546608610       -0.86362111295737
C          -10.56971540974994       -2.62151067028850       -0.41188414812289
C          -10.32150360858300       -1.31265786467464        0.00060361685143
C           -9.02930671779348       -0.76316883286495       -0.02869813568006
C           -8.79453994071134        0.67600161369261        0.43229742815743
C           -7.82009314959313        0.67663887349615        1.62412817375791
C           -8.21420735538393        1.49635690846687       -0.73391282597856
C          -10.07391714904281        1.36819991499976        0.88736263546237
C          -10.04218936952560        2.68178288177852        1.33622531185236
C          -11.18466281507285        3.33911243161598        1.75767357718001
C          -12.40378431164669        2.68385039728572        1.73876741754324
C          -12.46528010597758        1.37904445036235        1.29815308814523
C          -11.31045090512187        0.72198463708426        0.87425282888633
N          -11.39494159740694       -0.57640277191967        0.43928523127997
C           -6.05573728220014       -0.75223046250203       -1.81294340674467
C           -4.70268796795385       -0.51850372700795       -1.96637961732747
C           -1.71611775625677       -0.56668734079945       -2.29388756777140
C           -0.37275772640181       -0.33534255022086       -2.35894031506768
C            0.33390409485038       -0.06266472357366       -1.16623808916695
N            1.65233734571211        0.17968272549029       -1.20623008078637
C            4.43303566218459        0.18721577980343       -1.29419265813528
C            5.78792678057100        0.40950749837310       -1.42872123598416
C            9.01488034528585        0.73218023435497       -0.19579795896112
H            7.08104767219505       -1.30841445220121       -0.38772222785691
H            8.59748653514817       -1.71432378199346       -1.20187484543715
H            8.11822382602442       -2.57025067003153        0.26110185023612
H            8.56572993718556        0.56313943328865        2.44053760422406
H            8.09442736264796       -1.12989976659603        2.56214435115339
H            7.06287169249034        0.00023310810318        1.69724532372609
H            9.33853021619571       -2.83126374816603        2.03927379681529
H           11.45360005160103       -3.83896856567233        2.68887110425012
H           13.59258201686883       -2.77327565538661        2.03970352282378
H           13.55618683555039       -0.68086384270143        0.72874345144801
H           12.31699672137610        0.98545524881505       -0.32549081256396
H           11.46455251111786        2.75297869196541       -1.43983294973574
H            9.49873418499496        4.02031358643557       -2.25150884391001
H            7.23244734205793        3.17375742061690       -1.74147799547500
H            6.29836517325937        2.30247889564428        1.31528335941895
H            3.89695646246931        1.91533106289206        1.56334443438959
H            2.21272378903739        0.59478272438111        2.07396847067143
H           -0.23613532344580        0.16229271522803        2.17800629861267
H           -3.63806614259450       -1.48892084769753        1.07885088276223
H           -6.05539076048083       -1.93474242525282        1.34572648216382
H           -7.44090017417930       -3.50364154154141       -1.25150129289272
H           -9.73174656207089       -4.43042068328408       -1.18297192033024
H          -11.58176756536282       -2.99962311692868       -0.37060227493389
H           -6.82491658019500        0.37606075397232        1.31451048820701
H           -8.17362440339209       -0.00949962200218        2.39188589180481
H           -7.75156342271221        1.66844874353173        2.06197918330987
H           -7.20824235840563        1.17075646126354       -0.97602736146409
H           -8.84377285898200        1.38464428897209       -1.61510635842075
H           -8.17425860320681        2.55127476503926       -0.47779253671173
H           -9.10544549262643        3.21860851127078        1.36305561411012
H          -11.12124451516825        4.36087259840927        2.10008469536831
H          -13.30140886009129        3.18711572113040        2.06572048335899
H          -13.40795300956108        0.84971431051591        1.27588956357908
H          -12.30033186339736       -1.02049929638116        0.43989323145473
H           -6.73090915982593       -0.56146992852542       -2.63518854742024
H           -4.34222992245678       -0.11458467894627       -2.90082715778787
H           -2.27588622044808       -0.80008405991359       -3.18641329576048
H            0.17076610335270       -0.35780642802860       -3.29165291003090
H            3.88999000501763       -0.37952789821536       -2.03417037765902
H            6.31728856195540        0.02331463610014       -2.28815784178613

          :  Hamiltonian                  GFN2-xTB          :
         :: gradient norm              0.000051155251 Eh/a0 ::
         :: HOMO-LUMO gap              1.603912741099 eV    ::
         :: SCC energy              -141.752695405436 Eh    ::
         :: -> dispersion             -0.129375429770 Eh    ::
         :: repulsion energy           2.529605047050 Eh    ::

    * Orbital Energies and Occupations

         #    Occupation            Energy/Eh            Energy/eV
      -------------------------------------------------------------
         1        2.0000           -0.6638026             -18.0630
       ...           ...                  ...                  ...
       118        2.0000           -0.4047546             -11.0139
       119        2.0000           -0.4003714             -10.8947
       120        2.0000           -0.4001309             -10.8881
       121        2.0000           -0.3941533             -10.7255
       122        2.0000           -0.3936723             -10.7124
       123        2.0000           -0.3915643             -10.6550
       124        2.0000           -0.3886884             -10.5768
       125        2.0000           -0.3883102             -10.5665
       126        2.0000           -0.3860193             -10.5041
       127        2.0000           -0.3789468             -10.3117
       128        2.0000           -0.3491280              -9.5003
       129        2.0000           -0.3453513              -9.3975
       130        2.0000           -0.3450653              -9.3897 (HOMO)
       131                         -0.2861226              -7.7858 (LUMO)
       132                         -0.2539684              -6.9108
       133                         -0.2395580              -6.5187
       134                         -0.2235400              -6.0828
       135                         -0.2235036              -6.0818
       136                         -0.2219515              -6.0396
       137                         -0.2217192              -6.0333
       138                         -0.2181924              -5.9373
       139                         -0.2181556              -5.9363
       140                         -0.2156868              -5.8691
       141                         -0.2152601              -5.8575
       ...                                ...                  ...
       256                          0.6926113              18.8469
      -------------------------------------------------------------
                  HL-Gap            0.0589427 Eh            1.6039 eV

     #   Z          covCN         q      C6AA      α(0)
     1   6 C        3.761    -0.106    22.577     6.773
     2   6 C        3.904     0.023    20.126     6.377
     3   6 C        3.761    -0.106    22.571     6.773
     4   6 C        2.980    -0.013    28.328     8.731
     5   6 C        2.928    -0.036    28.900     8.816
     6   6 C        2.918    -0.046    29.139     8.852
     7   6 C        2.919    -0.033    28.810     8.802
     8   6 C        2.925    -0.062    29.554     8.915
     9   6 C        2.920     0.064    26.556     8.451
    10   7 N        2.709    -0.141    24.044     7.283
    11   6 C        2.919     0.064    26.561     8.451
    12   6 C        2.929    -0.065    29.617     8.925
    13   6 C        2.915    -0.032    28.809     8.802
    14   6 C        2.938    -0.049    29.215     8.865
    15   6 C        2.980     0.004    27.929     8.669
    16   6 C        2.986     0.021    27.539     8.608
    17   6 C        2.923    -0.034    28.859     8.810
    18   6 C        2.921    -0.034    28.858     8.809
    19   6 C        2.981     0.002    27.964     8.674
    20   6 C        2.954     0.099    25.815     8.334
    21   6 C        2.914    -0.045    29.111     8.848
    22   6 C        2.922    -0.025    28.616     8.772
    23   6 C        2.965     0.079    26.242     8.403
    24   7 N        1.849    -0.249    27.335     7.749
    25   6 C        2.954     0.099    25.815     8.334
    26   6 C        2.981     0.003    27.961     8.674
    27   6 C        2.925    -0.028    28.699     8.785
    28   6 C        2.922    -0.033    28.825     8.804
    29   6 C        2.986     0.021    27.538     8.608
    30   6 C        2.980     0.004    27.929     8.669
    31   6 C        2.938    -0.049    29.220     8.865
    32   6 C        2.915    -0.033    28.813     8.802
    33   6 C        2.929    -0.065    29.619     8.925
    34   6 C        2.919     0.064    26.560     8.451
    35   6 C        2.970    -0.017    28.427     8.746
    36   6 C        3.904     0.023    20.126     6.377
    37   6 C        3.761    -0.107    22.582     6.774
    38   6 C        3.761    -0.106    22.572     6.773
    39   6 C        2.980    -0.013    28.325     8.730
    40   6 C        2.928    -0.036    28.899     8.816
    41   6 C        2.918    -0.046    29.138     8.852
    42   6 C        2.919    -0.033    28.811     8.802
    43   6 C        2.925    -0.062    29.554     8.915
    44   6 C        2.920     0.064    26.558     8.451
    45   7 N        2.709    -0.141    24.044     7.283
    46   6 C        2.923    -0.035    28.860     8.810
    47   6 C        2.921    -0.034    28.855     8.809
    48   6 C        2.914    -0.045    29.109     8.847
    49   6 C        2.922    -0.024    28.615     8.772
    50   6 C        2.965     0.079    26.241     8.402
    51   7 N        1.849    -0.249    27.335     7.749
    52   6 C        2.925    -0.028    28.702     8.786
    53   6 C        2.922    -0.033    28.824     8.804
    54   6 C        2.970    -0.017    28.433     8.746
    55   1 H        0.925     0.042     2.416     2.431
    56   1 H        0.925     0.030     2.588     2.516
    57   1 H        0.925     0.039     2.469     2.457
    58   1 H        0.925     0.029     2.594     2.519
    59   1 H        0.925     0.038     2.470     2.458
    60   1 H        0.925     0.042     2.425     2.435
    61   1 H        0.926     0.029     2.603     2.523
    62   1 H        0.926     0.025     2.653     2.547
    63   1 H        0.926     0.027     2.625     2.534
    64   1 H        0.925     0.020     2.727     2.583
    65   1 H        0.860     0.158     1.346     1.817
    66   1 H        0.926     0.021     2.714     2.576
    67   1 H        0.926     0.030     2.592     2.518
    68   1 H        0.926     0.026     2.648     2.545
    69   1 H        0.926     0.034     2.537     2.491
    70   1 H        0.926     0.032     2.562     2.503
    71   1 H        0.926     0.037     2.487     2.466
    72   1 H        0.926     0.049     2.330     2.387
    73   1 H        0.926     0.052     2.289     2.366
    74   1 H        0.926     0.036     2.506     2.475
    75   1 H        0.926     0.025     2.664     2.552
    76   1 H        0.926     0.029     2.597     2.520
    77   1 H        0.926     0.021     2.716     2.577
    78   1 H        0.925     0.044     2.399     2.422
    79   1 H        0.925     0.030     2.591     2.517
    80   1 H        0.925     0.039     2.462     2.454
    81   1 H        0.925     0.042     2.418     2.432
    82   1 H        0.925     0.029     2.598     2.521
    83   1 H        0.925     0.039     2.465     2.455
    84   1 H        0.926     0.029     2.596     2.520
    85   1 H        0.926     0.025     2.653     2.547
    86   1 H        0.926     0.027     2.627     2.534
    87   1 H        0.925     0.020     2.729     2.584
    88   1 H        0.860     0.158     1.347     1.818
    89   1 H        0.926     0.034     2.536     2.490
    90   1 H        0.926     0.032     2.563     2.503
    91   1 H        0.926     0.037     2.488     2.467
    92   1 H        0.926     0.049     2.331     2.387
    93   1 H        0.926     0.053     2.280     2.361
    94   1 H        0.926     0.036     2.506     2.476

molecular dipole:
                 x           y           z       tot (Debye)
 q only:        0.019      -0.083      -0.030
   full:        0.010      -0.067      -0.103       0.315

 projected vibrational frequencies (cm⁻¹)
eigval :       -0.00    -0.00     0.00     0.00     0.00     0.00
eigval :        6.24     6.53    12.51    18.62    24.73    29.75
eigval :       34.21    38.36    45.17    49.82    64.15    67.08
eigval :       68.50    80.33    98.71    98.76   101.66   110.34
eigval :      113.84   135.05   139.10   149.68   161.62   167.13
eigval :      180.34   184.88   203.57   216.52   219.85   224.29
eigval :      227.02   228.91   231.93   258.04   266.25   275.15
eigval :      291.12   302.59   315.26   323.34   324.73   331.55
eigval :      349.78   350.87   351.73   359.39   369.99   379.07
eigval :      380.06   383.75   387.28   390.25   398.23   417.58
eigval :      427.04   438.01   451.84   464.47   464.59   466.20
eigval :      482.17   482.64   484.92   515.06   515.14   522.77
eigval :      522.88   532.44   536.05   539.90   549.83   549.88
eigval :      552.51   560.18   573.31   579.42   580.40   586.84
eigval :      595.81   615.68   619.52   620.84   628.15   636.32
eigval :      644.05   668.48   679.89   688.91   688.96   700.96
eigval :      706.77   708.75   708.79   711.34   746.13   754.64
eigval :      761.02   778.31   778.40   795.41   795.61   803.46
eigval :      813.69   814.57   821.78   833.03   839.61   846.24
eigval :      858.24   860.42   863.83   863.91   871.22   871.62
eigval :      876.98   877.53   890.08   914.38   914.45   916.55
eigval :      916.77   919.49   921.09   922.45   922.70   924.52
eigval :      924.71   927.79   935.15   935.46   935.55   938.04
eigval :      944.22   948.29   961.14   961.56  1013.09  1013.37
eigval :     1014.40  1014.41  1075.36  1075.47  1085.59  1086.79
eigval :     1089.60  1089.69  1109.05  1109.07  1123.22  1123.43
eigval :     1127.41  1130.87  1143.01  1146.38  1146.52  1155.13
eigval :     1162.99  1163.02  1166.10  1166.22  1184.60  1184.60
eigval :     1194.61  1195.57  1198.26  1200.56  1202.32  1212.91
eigval :     1213.21  1224.11  1224.24  1254.40  1255.76  1259.59
eigval :     1260.21  1265.46  1269.14  1274.60  1276.07  1282.06
eigval :     1282.27  1294.68  1295.49  1306.29  1313.15  1320.11
eigval :     1320.62  1323.20  1332.54  1338.67  1338.77  1360.90
eigval :     1390.33  1391.06  1392.05  1395.53  1396.91  1402.14
eigval :     1402.44  1420.17  1420.52  1441.69  1443.49  1449.37
eigval :     1462.38  1466.45  1475.71  1481.32  1481.37  1490.40
eigval :     1490.42  1494.68  1494.81  1498.20  1499.30  1501.24
eigval :     1501.39  1505.94  1506.23  1509.39  1509.47  1518.98
eigval :     1556.89  1560.43  1574.52  1577.32  1579.05  1581.07
eigval :     1581.78  1581.84  1594.02  1594.05  1598.91  1599.78
eigval :     1601.53  1601.60  3023.21  3023.76  3025.14  3025.69
eigval :     3046.98  3047.82  3049.45  3050.22  3062.53  3062.77
eigval :     3064.22  3064.35  3069.31  3070.03  3073.15  3073.33
eigval :     3074.56  3075.17  3075.92  3076.23  3077.55  3077.74
eigval :     3078.49  3079.27  3081.19  3081.53  3083.24  3083.28
eigval :     3086.66  3086.88  3092.19  3092.70  3094.76  3095.20
eigval :     3095.30  3095.42  3105.27  3105.65  3441.50  3441.52

   temp. (K)  partition function   enthalpy   heat capacity  entropy
                                   cal/mol     cal/K/mol   cal/K/mol   J/K/mol
 298.15  VIB  0.127E+22            26722.143    168.894    166.337
         ROT  0.195E+09              888.752      2.981     40.919
         INT  0.248E+30            27610.896    171.875    207.256
         TR   0.178E+29             1481.254      4.968     45.484
         TOT                       29092.1496   176.8430   252.7409  1057.4678

       T/K    H(0)-H(T)+PV         H(T)/Eh          T*S/Eh         G(T)/Eh
   ------------------------------------------------------------------------
    298.15    0.463613E-01    0.791918E+00    0.120085E+00    0.671832E+00
   ------------------------------------------------------------------------

         :::::::::::::::::::::::::::::::::::::::::::::::::::::
         ::                  THERMODYNAMIC                  ::
         :::::::::::::::::::::::::::::::::::::::::::::::::::::
         :: total free energy        -138.551257925719 Eh   ::
         ::.................................................::
         :: total energy             -139.223090358400 Eh   ::
         :: zero point energy           0.745556487515 Eh   ::
         :: G(RRHO) w/o ZPVE           -0.073724054834 Eh   ::
         :: G(RRHO) contrib.            0.671832432681 Eh   ::
         :::::::::::::::::::::::::::::::::::::::::::::::::::::

           -------------------------------------------------
          | TOTAL ENERGY             -139.223090358400 Eh   |
          | TOTAL ENTHALPY           -138.431172579418 Eh   |
          | TOTAL FREE ENERGY        -138.551257925719 Eh   |
          | GRADIENT NORM               0.000052133614 Eh/α |
          | HOMO-LUMO GAP               1.603912710632 eV   |
           -------------------------------------------------

 * finished run on 2025/07/18 at 23:47:08.918
