   * xtb version 6.7.1 (edcfbbe) compiled by 'albert@albert-system' on 2024-07-22

   ID    Z sym.   atoms
    1    6 C      1-10, 12-24, 26-38, 40-42
    2    7 N      11, 25, 39
    3    1 H      43-69

          program call               : xtb data2507/gas/Diphenylsulfane/Diphenylsulfane_gas_T1_crest.xyz --gfn 2 --spinpol --tblite --uhf 2 --ohess vtight --parallel 40 --molden --ceasefiles --namespace data2507/gas/Diphenylsulfane/Diphenylsulfane_gas_T1_finalOpt
 * total energy  :  -105.9624047 Eh     change        0.6490808E-08 Eh
 * total energy  :  -105.9624796 Eh     change       -0.7485461E-04 Eh
 * total energy  :  -105.9625323 Eh     change       -0.5267837E-04 Eh
 * total energy  :  -105.9625399 Eh     change       -0.7641685E-05 Eh
 * total energy  :  -105.9625534 Eh     change       -0.1347419E-04 Eh
 * total energy  :  -105.9625564 Eh     change       -0.3027729E-05 Eh
 * total energy  :  -105.9625584 Eh     change       -0.1958246E-05 Eh
 * total energy  :  -105.9625576 Eh     change        0.7983303E-06 Eh
 * total energy  :  -105.9625592 Eh     change       -0.1627200E-05 Eh
 * total energy  :  -105.9625591 Eh     change        0.9954289E-07 Eh
 * total energy  :  -105.9625717 Eh     change       -0.3438277E-06 Eh
 * total energy  :  -105.9625720 Eh     change       -0.3663537E-06 Eh
 * total energy  :  -105.9625725 Eh     change       -0.4283410E-06 Eh
 * total energy  :  -105.9625730 Eh     change       -0.5720348E-06 Eh
 * total energy  :  -105.9625737 Eh     change       -0.6731293E-06 Eh
 * total energy  :  -105.9625743 Eh     change       -0.5990332E-06 Eh
 * total energy  :  -105.9625747 Eh     change       -0.3421475E-06 Eh
 * total energy  :  -105.9625748 Eh     change       -0.1183642E-06 Eh
 * total energy  :  -105.9625748 Eh     change       -0.3362523E-07 Eh
   *** GEOMETRY OPTIMIZATION CONVERGED AFTER 41 ITERATIONS ***

 final structure:
================
69
 xtb: 6.7.1 (edcfbbe)
C           -5.77215830444465       -4.52660619110301        0.37351772367580
C           -4.80021826193303       -5.34984183885231        0.91707507606718
C           -3.46108966950534       -5.04327464542808        0.76071364563002
C           -3.07244702841684       -3.90461101605685        0.05896408278447
C           -1.65019674262371       -3.56156722696947       -0.09395711348495
C           -0.68313941232808       -4.54088707540315       -0.32068293082003
C            0.65174419820342       -4.19827188122978       -0.45432153709502
C            1.05105793812906       -2.87771765014975       -0.36737749343882
C            0.09594567191431       -1.88878710350491       -0.14766709865353
C            0.47227991199630       -0.47505811772192       -0.06343304565165
N           -0.50468212899873        0.40642627798520       -0.01324972291484
C           -0.18505802046066        1.74370329473820        0.06794717493840
C           -1.25410843857498        2.69277733943303        0.12112821996154
C           -1.01614321793506        4.06676235862649        0.27055761762520
C           -2.07987628847741        4.94080626739944        0.32447663202934
C           -3.38534482717953        4.48107281934395        0.22774677668777
C           -3.64375955729391        3.11697607761115        0.07257383593629
C           -5.01891179904162        2.60707625265709       -0.04440073641490
C           -5.38396366532297        1.40972624881974        0.56822977935768
C           -6.66971315264675        0.91765396904705        0.44521362128111
C           -7.61345963832373        1.61265034445747       -0.29263839054668
C           -7.26273996915862        2.80439182902264       -0.90461064154200
C           -5.97732411039012        3.29856123641167       -0.78144241971260
C           -2.57499198069705        2.23833027614688        0.02241020071411
N            1.08451331265658        2.08789408242948        0.09787405819469
C            2.05909390572577        1.19958922029420        0.04243506969662
C            3.43370961403132        1.59372911165104        0.06511265715116
C            3.78979837618319        2.94941862759190        0.14239541579496
C            5.11850269315786        3.30959442618017        0.16131734849220
C            6.11438191369703        2.34562233142240        0.10704047640562
C            5.78193727932696        0.99126314685903        0.02895505329823
C            6.83436725005813       -0.03516446197174       -0.03250909606984
C            6.71392546067465       -1.12255265546574       -0.89470360047139
C            7.70436534729731       -2.08488344324903       -0.95669087612649
C            8.82874196997898       -1.97998451531133       -0.15496614673929
C            8.95724235161014       -0.90488549351683        0.70835590279436
C            7.97004941682205        0.06117545301259        0.76789601822789
C            4.44562301939507        0.62713438503342        0.00801030257163
N            1.74287911206677       -0.14142521806914       -0.04595760911302
C           -1.24364188946956       -2.23632132696986       -0.01000897157429
C           -4.05901729467631       -3.08377141235602       -0.48442415115613
C           -5.39706809814048       -3.39339641125298       -0.32881664683724
H           -6.81762167438992       -4.76757233631449        0.49705988315188
H           -5.08727463138488       -6.23324710561802        1.46869364105509
H           -2.70932737885235       -5.67877891600213        1.20582538798196
H           -0.98245429254446       -5.57477319201471       -0.41076236172697
H            1.38660325030665       -4.96976750749395       -0.63166550953728
H            2.08789701534811       -2.59866465728465       -0.47129080433805
H            0.00156065938823        4.41764002253239        0.34484533534819
H           -1.89712480178893        5.99882246856368        0.44685874286330
H           -4.20737935536069        5.17805850447443        0.29291618080767
H           -4.65883591058894        0.87103371850673        1.16084542805942
H           -6.93662131742984       -0.01112389129076        0.92905605087375
H           -8.61802817832661        1.22781416263249       -0.39007330202027
H           -7.99409318447134        3.34954348661389       -1.48378249393068
H           -5.70577618821370        4.21865577992090       -1.27827832164218
H           -2.74135036608659        1.18147005841083       -0.12073027507271
H            3.00787967683662        3.69192568803754        0.18500795091807
H            5.39043193200673        4.35401374242711        0.21596439419904
H            7.15260099943091        2.64211893147342        0.10270666585359
H            5.84625677509934       -1.19984214460116       -1.53381591370368
H            7.60082778067457       -2.91975731652002       -1.63487902988632
H            9.60168168720620       -2.73293110508276       -0.20284456937707
H            9.83048361170569       -0.82005328039783        1.33904330965116
H            8.06827758479012        0.88931222270956        1.45482233569324
H            4.16084275929571       -0.41347497028944       -0.02984157985712
H           -1.96261219063522       -1.45575019009064        0.18558271656237
H           -3.77492905586222       -2.20811808843640       -1.04952676855081
H           -6.14922817603832       -2.74772691675775       -0.75845096702845

 projected vibrational frequencies (cm⁻¹)
eigval :       -0.00     0.00     0.00     0.00     0.00     0.00
eigval :       11.18    13.65    14.23    20.57    23.85    27.82
eigval :       44.20    47.16    52.10    64.58    79.27    84.25
eigval :       87.08    90.35   100.70   109.05   115.44   155.43
eigval :      171.00   188.31   198.88   206.66   231.43   240.67
eigval :      252.76   256.92   259.41   284.82   308.41   317.65
eigval :      327.41   334.34   346.71   371.47   372.35   372.55
eigval :      377.13   383.48   392.40   399.20   415.01   473.35
eigval :      479.35   483.88   507.54   516.90   521.31   541.99
eigval :      552.94   561.57   583.60   583.86   583.91   587.60
eigval :      589.48   590.68   605.25   625.79   645.58   648.53
eigval :      648.99   651.59   668.99   672.70   673.21   674.96
eigval :      705.83   709.19   750.90   753.41   753.74   756.65
eigval :      784.58   788.45   788.77   802.04   859.36   861.57
eigval :      864.17   872.68   873.34   874.63   876.57   879.89
eigval :      880.70   884.79   901.77   902.92   903.26   905.97
eigval :      917.95   918.83   927.96   930.21   930.47   931.61
eigval :      931.94   932.31   934.78   947.03   966.99   971.60
eigval :      973.57   986.02   986.83   990.95  1041.69  1077.79
eigval :     1078.73  1081.57  1086.75  1087.08  1088.27  1091.82
eigval :     1110.46  1118.84  1119.58  1122.28  1122.85  1124.09
eigval :     1132.51  1175.19  1178.93  1181.34  1181.81  1182.61
eigval :     1183.90  1186.65  1200.35  1201.89  1202.87  1212.00
eigval :     1243.22  1250.92  1264.24  1281.08  1281.48  1281.87
eigval :     1282.24  1292.41  1299.05  1318.29  1318.41  1318.95
eigval :     1328.07  1332.87  1334.10  1344.58  1369.29  1385.11
eigval :     1400.01  1415.73  1429.73  1435.24  1436.97  1439.45
eigval :     1446.99  1454.18  1472.36  1485.96  1486.65  1489.65
eigval :     1544.15  1546.11  1564.93  1565.77  1569.55  1581.61
eigval :     1582.32  1582.48  1584.17  1598.06  1598.73  1599.70
eigval :     3069.28  3069.96  3071.62  3071.71  3072.79  3073.11
eigval :     3073.22  3074.55  3078.94  3080.41  3080.66  3082.75
eigval :     3084.02  3084.04  3086.81  3088.91  3089.20  3090.13
eigval :     3090.28  3090.85  3091.12  3091.48  3093.89  3096.08
eigval :     3097.97  3098.85  3104.25

   temp. (K)  partition function   enthalpy   heat capacity  entropy
                                   cal/mol     cal/K/mol   cal/K/mol   J/K/mol
 298.15  VIB  0.275E+17            20018.831    124.293    126.038
         ROT  0.736E+08              888.752      2.981     38.980
         INT  0.203E+25            20907.584    127.274    165.018
         TR   0.121E+29             1481.254      4.968     44.712
         TOT                       22388.8376   132.2417   209.7297   877.5090

       T/K    H(0)-H(T)+PV         H(T)/Eh          T*S/Eh         G(T)/Eh
   ------------------------------------------------------------------------
    298.15    0.356789E-01    0.561077E+00    0.996493E-01    0.461428E+00
   ------------------------------------------------------------------------

         :::::::::::::::::::::::::::::::::::::::::::::::::::::
         ::                  THERMODYNAMIC                  ::
         :::::::::::::::::::::::::::::::::::::::::::::::::::::
         :: total free energy        -105.501147302432 Eh   ::
         ::.................................................::
         :: total energy             -105.962574817668 Eh   ::
         :: zero point energy           0.525397977907 Eh   ::
         :: G(RRHO) w/o ZPVE           -0.063970462671 Eh   ::
         :: G(RRHO) contrib.            0.461427515236 Eh   ::
         :::::::::::::::::::::::::::::::::::::::::::::::::::::

           -------------------------------------------------
          | TOTAL ENERGY             -105.962574817668 Eh   |
          | TOTAL ENTHALPY           -105.401497956031 Eh   |
          | TOTAL FREE ENERGY        -105.501147302432 Eh   |
          | GRADIENT NORM               0.000041246359 Eh/α |
           -------------------------------------------------

 * finished run on 2025/08/29 at 12:35:09.275
