   * xtb version 6.7.1 (edcfbbe) compiled by 'albert@albert-system' on 2024-07-22

   ID    Z sym.   atoms
    1    6 C      1-10, 12-24, 26-38, 40-42
    2    7 N      11, 25, 39
    3    1 H      43-69

          program call               : xtb data2507/gas/Diphenylsulfane/Diphenylsulfane_gas_S0_crest.xyz --gfn 2 --ohess vtight --parallel 40 --molden --ceasefiles --namespace data2507/gas/Diphenylsulfane/Diphenylsulfane_gas_S0_finalOpt
          :  Hamiltonian                  GFN2-xTB          :
 * total energy  :  -106.0432010 Eh     change       -0.1913719E-08 Eh
 * total energy  :  -106.0432025 Eh     change       -0.1539072E-05 Eh
 * total energy  :  -106.0432051 Eh     change       -0.2548865E-05 Eh
 * total energy  :  -106.0432079 Eh     change       -0.2849461E-05 Eh
 * total energy  :  -106.0432099 Eh     change       -0.1955756E-05 Eh
 * total energy  :  -106.0432122 Eh     change       -0.2294417E-05 Eh
 * total energy  :  -106.0432152 Eh     change       -0.3022616E-05 Eh
 * total energy  :  -106.0432178 Eh     change       -0.2658918E-05 Eh
 * total energy  :  -106.0432200 Eh     change       -0.2130857E-05 Eh
 * total energy  :  -106.0432218 Eh     change       -0.1804277E-05 Eh
 * total energy  :  -106.0432366 Eh     change       -0.3221052E-05 Eh
 * total energy  :  -106.0432390 Eh     change       -0.2421314E-05 Eh
 * total energy  :  -106.0432412 Eh     change       -0.2139973E-05 Eh
 * total energy  :  -106.0432432 Eh     change       -0.1968973E-05 Eh
 * total energy  :  -106.0432447 Eh     change       -0.1547492E-05 Eh
 * total energy  :  -106.0432457 Eh     change       -0.9872669E-06 Eh
 * total energy  :  -106.0432459 Eh     change       -0.2163311E-06 Eh
 * total energy  :  -106.0432462 Eh     change       -0.3047326E-06 Eh
 * total energy  :  -106.0432463 Eh     change       -0.9466021E-07 Eh
   *** GEOMETRY OPTIMIZATION CONVERGED AFTER 24 ITERATIONS ***

 final structure:
================
69
 xtb: 6.7.1 (edcfbbe)
C           -5.72780882617960       -4.61611604876056        0.35601697856716
C           -4.74158559351547       -5.43040372254708        0.88702881779553
C           -3.40774256071428       -5.10286672348209        0.72770452653377
C           -3.03813207393814       -3.95186610383693        0.03597335866317
C           -1.62186141704092       -3.58756072829484       -0.12390464747371
C           -0.64583738371418       -4.55271497170185       -0.37103263134372
C            0.68331435349358       -4.19275321283233       -0.51631365289303
C            1.06620525989301       -2.86808426656218       -0.42036266123343
C            0.10262755467863       -1.89212048613874       -0.17887513013984
C            0.46492671650019       -0.47768757940836       -0.08824016439835
N           -0.53115373500714        0.39733491702116        0.00009336830159
C           -0.18417662157438        1.67770471873532        0.07741042127700
C           -1.26751341207383        2.65523434594606        0.18097385671707
C           -1.00284448362993        4.00004148473260        0.42732624750289
C           -2.05389491298789        4.89125835307180        0.53527305800935
C           -3.36133934245952        4.45661391505850        0.39727510080356
C           -3.64233326035779        3.11376855447089        0.14626542435307
C           -5.02491632520035        2.63429745514937       -0.00436112947396
C           -5.40532826366113        1.40239285083031        0.52478398646966
C           -6.69974454430873        0.94116507692674        0.37595993446405
C           -7.63565259548524        1.70107579399799       -0.30578198439446
C           -7.26878207368711        2.92662549070124       -0.83597796759701
C           -5.97509326806026        3.39100628044665       -0.68583960408721
C           -2.58201886631840        2.22315137671941        0.03999195376544
N            1.07360309682870        2.10720730017782        0.07107225233973
C            2.00759326097192        1.16393874751043       -0.02269132387181
C            3.40829929045060        1.58611332433327       -0.03910239242188
C            3.73282936223526        2.94063621252715       -0.08065358916521
C            5.05953523737918        3.32542702156535       -0.09765078651840
C            6.06417356267571        2.37356138288460       -0.06884892600960
C            5.75600995710999        1.01415045001136       -0.02672447808069
C            6.82290213151720        0.00153204833532        0.00172897690564
C            6.71166029652051       -1.16452773381990       -0.75204540178491
C            7.71521828660523       -2.11495775910690       -0.72931686769105
C            8.84267675876510       -1.91925701065144        0.05075597449166
C            8.96155471839141       -0.76545395906216        0.80715490188424
C            7.96168232324391        0.18905031086607        0.78130732941173
C            4.42023729375521        0.63199877497474       -0.01442780046831
N            1.75000025584664       -0.13926451282006       -0.10509119438196
C           -1.23087042847455       -2.25823286860106       -0.02981201035296
C           -4.03916819561101       -3.13990813038948       -0.49408030557870
C           -5.37189061107280       -3.47042429450410       -0.33598589695266
H           -6.76923294745734       -4.87370997228758        0.48114683078992
H           -5.01358229439561       -6.32352174014614        1.43082716571763
H           -2.64490259734753       -5.73251328135163        1.16234101666058
H           -0.93390681919371       -5.58938345061979       -0.46893058810054
H            1.42470913491704       -4.95426735908410       -0.71044328515206
H            2.09691109064155       -2.57184868463976       -0.53403764110101
H            0.02047801938987        4.32235493592959        0.53671582040958
H           -1.85617758833621        5.93474791911006        0.73350424060078
H           -4.17402559350976        5.16040927022443        0.50434732043973
H           -4.68584416804210        0.81222158689128        1.07326452973063
H           -6.97949796415490       -0.01441402940344        0.79572485591652
H           -8.64682406770359        1.34016121825273       -0.42347384121533
H           -7.99380734950066        3.52200449006413       -1.37190321129185
H           -5.69136636650335        4.33890248196747       -1.11974344790882
H           -2.75956566715924        1.18117872232198       -0.17444586135397
H            2.93712796845552        3.66805334149728       -0.10353337043086
H            5.31631126054687        4.37410583405895       -0.13646771982271
H            7.09874882412988        2.68346249072293       -0.09931498413739
H            5.84128480792705       -1.31396682649020       -1.37414167826762
H            7.61912686017802       -3.01200338959084       -1.32381090031400
H            9.62547463535436       -2.66314071489704        0.06953655066846
H            9.83678963427452       -0.60976733248349        1.42120900796656
H            8.05245290968663        1.07917232462871        1.38700304344082
H            4.14623598636644       -0.41018636642280        0.03723502019282
H           -1.95428913059543       -1.48670062122785        0.18134282881299
H           -3.76904811920581       -2.25429246185645       -1.05042296419168
H           -6.13565143555076       -2.83201878344187       -0.75635608080251

          :  Hamiltonian                  GFN2-xTB          :
         :: gradient norm              0.000040410035 Eh/a0 ::
         :: HOMO-LUMO gap              2.304579625032 eV    ::
         :: SCC energy              -108.046825548185 Eh    ::
         :: -> dispersion             -0.087310314841 Eh    ::
         :: repulsion energy           2.003579247120 Eh    ::

    * Orbital Energies and Occupations

         #    Occupation            Energy/Eh            Energy/eV
      -------------------------------------------------------------
         1        2.0000           -0.6798858             -18.5006
       ...           ...                  ...                  ...
        87        2.0000           -0.4139389             -11.2638
        88        2.0000           -0.4131747             -11.2431
        89        2.0000           -0.4067493             -11.0682
        90        2.0000           -0.4050968             -11.0232
        91        2.0000           -0.4049350             -11.0188
        92        2.0000           -0.4048673             -11.0170
        93        2.0000           -0.4045432             -11.0082
        94        2.0000           -0.4041578             -10.9977
        95        2.0000           -0.3881797             -10.5629
        96        2.0000           -0.3880271             -10.5588
        97        2.0000           -0.3877576             -10.5514
        98        2.0000           -0.3671869              -9.9917
        99        2.0000           -0.3670655              -9.9884 (HOMO)
       100                         -0.2823738              -7.6838 (LUMO)
       101                         -0.2822860              -7.6814
       102                         -0.2495313              -6.7901
       103                         -0.2458223              -6.6892
       104                         -0.2453621              -6.6766
       105                         -0.2366008              -6.4382
       106                         -0.2228922              -6.0652
       107                         -0.2228288              -6.0635
       108                         -0.2224856              -6.0541
       109                         -0.2091162              -5.6903
       110                         -0.2082328              -5.6663
       ...                                ...                  ...
       195                          0.7030852              19.1319
      -------------------------------------------------------------
                  HL-Gap            0.0846918 Eh            2.3046 eV

     #   Z          covCN         q      C6AA      α(0)
     1   6 C        2.920    -0.030    28.761     8.794
     2   6 C        2.918    -0.029    28.734     8.790
     3   6 C        2.925    -0.033    28.829     8.805
     4   6 C        2.977     0.010    27.781     8.646
     5   6 C        2.975     0.012    27.736     8.639
     6   6 C        2.925    -0.029    28.731     8.790
     7   6 C        2.917    -0.029    28.717     8.788
     8   6 C        2.922    -0.026    28.648     8.777
     9   6 C        2.983    -0.001    28.051     8.688
    10   6 C        2.983     0.203    23.701     7.986
    11   7 N        1.847    -0.297    28.543     7.918
    12   6 C        2.984     0.203    23.701     7.986
    13   6 C        2.983    -0.001    28.050     8.688
    14   6 C        2.922    -0.026    28.650     8.778
    15   6 C        2.917    -0.029    28.717     8.788
    16   6 C        2.925    -0.029    28.731     8.790
    17   6 C        2.975     0.012    27.736     8.639
    18   6 C        2.977     0.010    27.781     8.646
    19   6 C        2.925    -0.033    28.820     8.804
    20   6 C        2.918    -0.029    28.719     8.788
    21   6 C        2.920    -0.030    28.761     8.795
    22   6 C        2.918    -0.029    28.734     8.790
    23   6 C        2.925    -0.033    28.830     8.805
    24   6 C        2.932    -0.030    28.743     8.792
    25   7 N        1.843    -0.295    28.496     7.911
    26   6 C        2.986     0.203    23.702     7.986
    27   6 C        2.983    -0.001    28.046     8.687
    28   6 C        2.923    -0.026    28.658     8.779
    29   6 C        2.917    -0.029    28.717     8.788
    30   6 C        2.925    -0.029    28.731     8.790
    31   6 C        2.975     0.012    27.733     8.638
    32   6 C        2.977     0.010    27.780     8.646
    33   6 C        2.925    -0.033    28.822     8.804
    34   6 C        2.919    -0.029    28.723     8.789
    35   6 C        2.920    -0.031    28.762     8.795
    36   6 C        2.918    -0.029    28.732     8.790
    37   6 C        2.925    -0.033    28.830     8.805
    38   6 C        2.930    -0.029    28.736     8.791
    39   7 N        1.843    -0.295    28.508     7.913
    40   6 C        2.932    -0.030    28.744     8.793
    41   6 C        2.925    -0.033    28.820     8.804
    42   6 C        2.918    -0.029    28.719     8.788
    43   1 H        0.926     0.030     2.588     2.516
    44   1 H        0.926     0.030     2.585     2.514
    45   1 H        0.926     0.031     2.567     2.506
    46   1 H        0.926     0.037     2.484     2.465
    47   1 H        0.926     0.036     2.503     2.474
    48   1 H        0.926     0.053     2.285     2.364
    49   1 H        0.926     0.053     2.280     2.361
    50   1 H        0.926     0.036     2.502     2.473
    51   1 H        0.926     0.037     2.484     2.465
    52   1 H        0.926     0.034     2.525     2.485
    53   1 H        0.926     0.031     2.577     2.511
    54   1 H        0.926     0.030     2.588     2.516
    55   1 H        0.926     0.030     2.585     2.514
    56   1 H        0.926     0.031     2.567     2.506
    57   1 H        0.926     0.057     2.236     2.339
    58   1 H        0.926     0.055     2.261     2.352
    59   1 H        0.926     0.036     2.501     2.473
    60   1 H        0.926     0.037     2.483     2.464
    61   1 H        0.926     0.034     2.529     2.487
    62   1 H        0.926     0.031     2.577     2.510
    63   1 H        0.926     0.030     2.585     2.514
    64   1 H        0.926     0.030     2.584     2.514
    65   1 H        0.926     0.031     2.568     2.506
    66   1 H        0.926     0.057     2.236     2.338
    67   1 H        0.926     0.057     2.235     2.338
    68   1 H        0.926     0.034     2.525     2.485
    69   1 H        0.926     0.031     2.577     2.510

molecular dipole:
                 x           y           z       tot (Debye)
 q only:       -0.110      -0.098      -0.008
   full:       -0.091      -0.080      -0.002       0.309

 projected vibrational frequencies (cm⁻¹)
eigval :       -0.00    -0.00     0.00     0.00     0.00     0.00
eigval :        8.03    13.71    14.42    16.62    26.09    28.64
eigval :       44.34    46.75    53.74    66.61    78.82    83.79
eigval :       87.14    90.75   100.78   101.73   103.00   160.98
eigval :      173.59   183.60   188.24   208.68   227.70   244.66
eigval :      256.83   259.96   279.51   289.03   317.24   321.76
eigval :      332.87   346.16   357.79   372.02   372.71   372.86
eigval :      393.52   394.95   409.95   411.89   425.18   478.46
eigval :      492.50   494.28   529.22   530.64   558.08   576.40
eigval :      584.00   584.19   584.50   589.42   590.56   593.55
eigval :      615.24   618.75   649.09   652.16   654.25   661.12
eigval :      674.18   674.30   674.83   690.36   690.94   735.61
eigval :      736.26   752.60   758.04   758.73   781.59   790.35
eigval :      806.71   806.90   810.17   876.97   877.38   878.21
eigval :      888.92   890.25   890.90   893.69   895.45   904.09
eigval :      904.84   905.48   906.54   906.96   907.96   928.80
eigval :      928.95   929.30   931.96   932.07   932.30   932.57
eigval :      932.70   934.98   959.92   981.02   982.40   990.15
eigval :      993.74   993.86  1050.31  1075.96  1080.88  1081.26
eigval :     1087.30  1088.23  1088.95  1101.97  1117.30  1118.96
eigval :     1121.34  1122.38  1123.75  1125.15  1164.67  1164.94
eigval :     1181.51  1182.26  1182.63  1185.01  1186.33  1187.85
eigval :     1201.51  1202.30  1203.43  1208.87  1245.33  1247.71
eigval :     1254.97  1281.55  1281.77  1281.86  1284.35  1291.77
eigval :     1293.93  1318.34  1318.52  1318.82  1328.12  1328.98
eigval :     1330.95  1360.11  1368.22  1374.25  1415.43  1421.02
eigval :     1424.26  1436.88  1437.96  1438.39  1458.95  1459.75
eigval :     1467.77  1488.40  1489.21  1490.07  1516.65  1519.54
eigval :     1574.19  1574.54  1576.57  1583.36  1584.08  1584.28
eigval :     1588.59  1589.08  1590.55  1600.84  1600.96  1601.12
eigval :     3070.92  3071.00  3071.16  3072.67  3072.73  3072.99
eigval :     3074.98  3075.02  3075.13  3081.22  3081.38  3081.49
eigval :     3085.16  3085.20  3085.41  3086.83  3086.93  3087.27
eigval :     3092.15  3092.21  3092.44  3105.38  3107.71  3108.92
eigval :     3109.12  3109.46  3111.02

   temp. (K)  partition function   enthalpy   heat capacity  entropy
                                   cal/mol     cal/K/mol   cal/K/mol   J/K/mol
 298.15  VIB  0.311E+17            19627.242    121.286    124.622
         ROT  0.739E+08              888.752      2.981     38.985
         INT  0.230E+25            20515.994    124.266    163.607
         TR   0.121E+29             1481.254      4.968     44.712
         TOT                       21997.2481   129.2346   208.3184   871.6042

       T/K    H(0)-H(T)+PV         H(T)/Eh          T*S/Eh         G(T)/Eh
   ------------------------------------------------------------------------
    298.15    0.350548E-01    0.566460E+00    0.989788E-01    0.467481E+00
   ------------------------------------------------------------------------

         :::::::::::::::::::::::::::::::::::::::::::::::::::::
         ::                  THERMODYNAMIC                  ::
         :::::::::::::::::::::::::::::::::::::::::::::::::::::
         :: total free energy        -105.575765052762 Eh   ::
         ::.................................................::
         :: total energy             -106.043246301070 Eh   ::
         :: zero point energy           0.531405194826 Eh   ::
         :: G(RRHO) w/o ZPVE           -0.063923946518 Eh   ::
         :: G(RRHO) contrib.            0.467481248308 Eh   ::
         :::::::::::::::::::::::::::::::::::::::::::::::::::::

           -------------------------------------------------
          | TOTAL ENERGY             -106.043246301070 Eh   |
          | TOTAL ENTHALPY           -105.476786260079 Eh   |
          | TOTAL FREE ENERGY        -105.575765052762 Eh   |
          | GRADIENT NORM               0.000040401530 Eh/α |
          | HOMO-LUMO GAP               2.304580105508 eV   |
           -------------------------------------------------

 * finished run on 2025/08/29 at 12:30:08.610
