   * xtb version 6.7.1 (edcfbbe) compiled by 'albert@albert-system' on 2024-07-22

   ID    Z sym.   atoms
    1    6 C      1-10, 12-24, 26-38, 40-42
    2    7 N      11, 25, 39
    3    1 H      43-69

          program call               : xtb data2507/gas/Diphenylsulfane/Diphenylsulfane_gas_S0_finalOpt.xtbopt.xyz --gfn 2 --spinpol --tblite --uhf 2 --ohess vtight --parallel 40 --molden --ceasefiles --namespace data2507/gas/Diphenylsulfane/Diphenylsulfane_gas_T1_preOpt
 * total energy  :  -105.9576945 Eh     change       -0.8272252E-08 Eh
 * total energy  :  -105.9606199 Eh     change       -0.2925397E-02 Eh
 * total energy  :  -105.9619024 Eh     change       -0.1282436E-02 Eh
 * total energy  :  -105.9619267 Eh     change       -0.2433709E-04 Eh
 * total energy  :  -105.9619531 Eh     change       -0.2641452E-04 Eh
 * total energy  :  -105.9619683 Eh     change       -0.1523127E-04 Eh
 * total energy  :  -105.9620228 Eh     change       -0.5443633E-04 Eh
 * total energy  :  -105.9620705 Eh     change       -0.4771607E-04 Eh
 * total energy  :  -105.9621256 Eh     change       -0.5510558E-04 Eh
 * total energy  :  -105.9622101 Eh     change       -0.8445602E-04 Eh
 * total energy  :  -105.9625723 Eh     change       -0.2647191E-06 Eh
 * total energy  :  -105.9625725 Eh     change       -0.2301159E-06 Eh
 * total energy  :  -105.9625727 Eh     change       -0.2002051E-06 Eh
 * total energy  :  -105.9625730 Eh     change       -0.2738831E-06 Eh
 * total energy  :  -105.9625731 Eh     change       -0.1557108E-06 Eh
 * total energy  :  -105.9625733 Eh     change       -0.1638870E-06 Eh
 * total energy  :  -105.9625735 Eh     change       -0.1890150E-06 Eh
 * total energy  :  -105.9625737 Eh     change       -0.1834949E-06 Eh
 * total energy  :  -105.9625737 Eh     change       -0.5108181E-07 Eh
   *** GEOMETRY OPTIMIZATION CONVERGED AFTER 55 ITERATIONS ***

 final structure:
================
69
 xtb: 6.7.1 (edcfbbe)
C           -5.75659710042587       -4.55200972337461        0.32842901491997
C           -4.78542252938298       -5.37008061567005        0.88107416849110
C           -3.44649468896228       -5.05714589721090        0.73600788193656
C           -3.05737210057261       -3.91715570618659        0.03670672306971
C           -1.63547950054996       -3.56781501948167       -0.10486021164149
C           -0.66276546498713       -4.54313754545034       -0.32452224290662
C            0.67165821455215       -4.19501331526076       -0.44820894404323
C            1.06478146627241       -2.87286969122235       -0.35795277364552
C            0.10406967212520       -1.88786999819866       -0.14472465160170
C            0.47471437184623       -0.47306242716224       -0.05602258041934
N           -0.50519581704900        0.40508870422982       -0.00268857374482
C           -0.18998460889226        1.74288945933621        0.08470054475127
C           -1.26171264725263        2.68859365893954        0.14498309565218
C           -1.02686073529593        4.06197967750347        0.30452088383171
C           -2.09249514529604        4.93320924763224        0.36559170753758
C           -3.39691824182771        4.47121957644804        0.26560547565534
C           -3.65219576851645        3.10776561070700        0.10009714451505
C           -5.02632114068512        2.59615135412373       -0.02151950629600
C           -5.39043860289173        1.39491720431521        0.58391501465686
C           -6.67526623070348        0.90160452125777        0.45607324152754
C           -7.61879197884303        1.59912579407480       -0.27967160558596
C           -7.26890348772108        2.79470924260623       -0.88458254646903
C           -5.98449766464331        3.29022333832812       -0.75640245926436
C           -2.58157470139140        2.23176869929708        0.04346340068289
N            1.07842496266006        2.09160918364566        0.11430281666235
C            2.05597308509811        1.20672972715884        0.05423082373316
C            3.42928898225783        1.60545649428531        0.07564229978427
C            3.78104083410243        2.96230828228047        0.15196693945650
C            5.10858658474363        3.32682151830017        0.16942857349782
C            6.10755530459435        2.36603442142186        0.11533297975371
C            5.77940152498122        1.01057084402410        0.03871737666277
C            6.83504733432911       -0.01268737872020       -0.02075203573470
C            6.71930232222276       -1.10112199889769       -0.88220783921927
C            7.71248689059939       -2.06082154022900       -0.94122202730518
C            8.83484480213366       -1.95218188986523       -0.13717828949713
C            8.95873218792243       -0.87588882147969        0.72531047760491
C            7.96884814793553        0.08758365918165        0.78182295542343
C            4.44428798535615        0.64210655696900        0.01838109930913
N            1.74412328558280       -0.13486317095876       -0.03772801810327
C           -1.23512513213207       -2.24093231939124       -0.01728398681803
C           -4.04314113246085       -3.10137470512540       -0.51561345951151
C           -5.38097430150531       -3.41741618369337       -0.37136986567913
H           -6.80190100897498       -4.79809700186095        0.44289532279417
H           -5.07295133619372       -6.25447419515333        1.43085807307501
H           -2.69549493300447       -5.68863508573495        1.18807359103432
H           -0.95723411927626       -5.57819164798946       -0.41707380192080
H            1.41101892874271       -4.96342088195726       -0.62015251482046
H            2.10122334774461       -2.58950039513889       -0.45384709746649
H           -0.00992141437705        4.41454623832989        0.38123626208875
H           -1.91209021022577        5.99062544476084        0.49631908287164
H           -4.22060615181239        5.16572490688827        0.33616576018880
H           -4.66533237127021        0.85413034689709        1.17465548294690
H           -6.94163661463486       -0.03019494057897        0.93435036449418
H           -8.62260531901188        1.21329084220313       -0.38091257408474
H           -8.00007275164124        3.34179721805164       -1.46215015770619
H           -5.71340590102665        4.21341909370484       -1.24771060429601
H           -2.74580407570880        1.17560921687235       -0.10716107045409
H            2.99679011434272        3.70233818920745        0.19473706466696
H            5.37719814226832        4.37215957397313        0.22283000816008
H            7.14482896158298        2.66581708866308        0.11006744182007
H            5.85310960944039       -1.18132827619904       -1.52296851898839
H            7.61270601900844       -2.89650334560523       -1.61896758183054
H            9.60987972114257       -2.70311592183758       -0.18264741146531
H            9.83034101820803       -0.78822601001162        1.35786874040425
H            8.06330881173560        0.91662703744161        1.46817598265673
H            4.16295640848980       -0.39946047312431       -0.01876876808854
H           -1.95880830597867       -1.46341955815788        0.17309261120079
H           -3.75830737782938       -2.22466495763251       -1.07870457919040
H           -6.13256962638754       -2.77571458388286       -0.80787445347309

 projected vibrational frequencies (cm⁻¹)
eigval :       -0.00    -0.00    -0.00     0.00     0.00     0.00
eigval :       11.23    13.83    14.03    20.61    23.88    27.94
eigval :       44.20    46.93    52.02    64.58    79.17    84.38
eigval :       87.21    90.42   100.48   109.01   115.43   155.34
eigval :      170.89   188.34   198.45   206.67   231.42   240.32
eigval :      252.23   256.95   259.16   284.56   308.30   317.76
eigval :      326.77   334.26   346.76   371.52   372.27   372.52
eigval :      377.13   383.85   392.20   399.22   414.94   473.47
eigval :      479.55   484.01   507.57   516.54   521.28   540.85
eigval :      552.91   561.46   583.56   583.83   583.94   587.56
eigval :      589.45   590.67   605.29   625.83   645.57   648.63
eigval :      649.06   651.60   669.01   672.78   673.28   675.01
eigval :      705.64   709.10   745.73   753.49   753.71   756.62
eigval :      784.41   788.54   788.95   802.15   859.11   861.74
eigval :      864.24   872.86   873.22   874.80   876.70   880.02
eigval :      880.87   884.96   901.89   903.03   903.40   906.08
eigval :      918.16   919.05   928.12   930.30   930.58   931.73
eigval :      932.04   932.45   934.76   946.75   966.42   971.48
eigval :      973.61   986.06   986.85   990.95  1039.17  1077.66
eigval :     1078.75  1081.39  1086.89  1087.31  1088.37  1092.72
eigval :     1109.80  1118.97  1119.70  1122.30  1122.96  1124.15
eigval :     1130.95  1174.35  1178.92  1181.54  1182.01  1182.82
eigval :     1184.07  1186.66  1200.47  1201.97  1202.97  1212.01
eigval :     1243.22  1251.12  1264.25  1281.08  1281.61  1281.95
eigval :     1282.26  1292.23  1298.98  1318.32  1318.43  1318.98
eigval :     1328.08  1332.81  1334.05  1344.44  1368.96  1384.92
eigval :     1399.98  1415.66  1429.59  1435.05  1436.78  1439.36
eigval :     1446.90  1453.90  1472.24  1485.80  1486.40  1489.41
eigval :     1544.20  1546.15  1564.92  1565.74  1569.48  1581.53
eigval :     1582.29  1582.46  1584.12  1598.09  1598.74  1599.65
eigval :     3069.30  3069.96  3071.66  3071.75  3072.81  3073.08
eigval :     3073.23  3074.58  3078.94  3080.40  3080.60  3082.70
eigval :     3083.95  3083.97  3086.73  3088.83  3089.10  3090.15
eigval :     3090.27  3090.81  3091.21  3091.52  3093.96  3096.05
eigval :     3097.86  3098.86  3104.26

   temp. (K)  partition function   enthalpy   heat capacity  entropy
                                   cal/mol     cal/K/mol   cal/K/mol   J/K/mol
 298.15  VIB  0.276E+17            20022.798    124.305    126.058
         ROT  0.737E+08              888.752      2.981     38.981
         INT  0.203E+25            20911.550    127.286    165.039
         TR   0.121E+29             1481.254      4.968     44.712
         TOT                       22392.8041   132.2545   209.7505   877.5963

       T/K    H(0)-H(T)+PV         H(T)/Eh          T*S/Eh         G(T)/Eh
   ------------------------------------------------------------------------
    298.15    0.356852E-01    0.561053E+00    0.996593E-01    0.461394E+00
   ------------------------------------------------------------------------

         :::::::::::::::::::::::::::::::::::::::::::::::::::::
         ::                  THERMODYNAMIC                  ::
         :::::::::::::::::::::::::::::::::::::::::::::::::::::
         :: total free energy        -105.501179611648 Eh   ::
         ::.................................................::
         :: total energy             -105.962573728802 Eh   ::
         :: zero point energy           0.525368164506 Eh   ::
         :: G(RRHO) w/o ZPVE           -0.063974047352 Eh   ::
         :: G(RRHO) contrib.            0.461394117154 Eh   ::
         :::::::::::::::::::::::::::::::::::::::::::::::::::::

           -------------------------------------------------
          | TOTAL ENERGY             -105.962573728802 Eh   |
          | TOTAL ENTHALPY           -105.401520359449 Eh   |
          | TOTAL FREE ENERGY        -105.501179611648 Eh   |
          | GRADIENT NORM               0.000114539124 Eh/α |
           -------------------------------------------------

 * finished run on 2025/08/29 at 12:30:19.444
