   * xtb version 6.7.1 (edcfbbe) compiled by 'albert@albert-system' on 2024-07-22

   ID    Z sym.   atoms
    1    6 C      1-5, 7, 8, 10-21, 23, 24, 26-38
    2    7 N      6, 9, 22, 25
    3    1 H      39-60

          program call               : xtb data2507/gas/CPzPC/CPzPC.xyz --gfn 2 --ohess vtight --parallel 40 --molden --ceasefiles --namespace data2507/gas/CPzPC/CPzPC_gas_S0_preOpt
          :  Hamiltonian                  GFN2-xTB          :
 * total energy  :   -95.7589398 Eh     change       -0.2057106E-08 Eh
 * total energy  :   -95.7745454 Eh     change       -0.1560558E-01 Eh
 * total energy  :   -95.7782725 Eh     change       -0.3727072E-02 Eh
 * total energy  :   -95.7789909 Eh     change       -0.7184545E-03 Eh
 * total energy  :   -95.7795682 Eh     change       -0.5772515E-03 Eh
 * total energy  :   -95.7797866 Eh     change       -0.2184539E-03 Eh
 * total energy  :   -95.7799347 Eh     change       -0.1481126E-03 Eh
 * total energy  :   -95.7800219 Eh     change       -0.8714554E-04 Eh
 * total energy  :   -95.7800701 Eh     change       -0.4818701E-04 Eh
 * total energy  :   -95.7801037 Eh     change       -0.3361832E-04 Eh
 * total energy  :   -95.7802707 Eh     change       -0.1564021E-05 Eh
 * total energy  :   -95.7802721 Eh     change       -0.1412631E-05 Eh
 * total energy  :   -95.7802735 Eh     change       -0.1392989E-05 Eh
 * total energy  :   -95.7802750 Eh     change       -0.1526214E-05 Eh
 * total energy  :   -95.7802767 Eh     change       -0.1689044E-05 Eh
 * total energy  :   -95.7802783 Eh     change       -0.1649400E-05 Eh
 * total energy  :   -95.7802798 Eh     change       -0.1438183E-05 Eh
 * total energy  :   -95.7802809 Eh     change       -0.1169004E-05 Eh
 * total energy  :   -95.7802809 Eh     change       -0.5751261E-08 Eh
   *** GEOMETRY OPTIMIZATION CONVERGED AFTER 44 ITERATIONS ***

 final structure:
================
60
 xtb: 6.7.1 (edcfbbe)
C            1.27750123641742        2.51198618222102        0.74760015414803
C            0.22056678401180        1.62467888980242        0.81556744726369
C            0.44058180718541        0.25749934988204        0.64956897740351
C           -0.69654026938306       -0.66512146064847        0.71956419028548
C           -0.58287896957967       -2.01773720517710        1.04869453768566
N           -1.62641996189093       -2.83078306742963        0.99267521701360
C           -2.80032763419815       -2.32401411781045        0.67673394533244
C           -2.95566241440916       -0.94534014234243        0.45784439516163
N           -4.17922882410662       -0.36422633006714        0.18792131449834
C           -5.42068312269671       -0.77999505374530        0.65382512937758
C           -5.74483577784660       -1.73356914547511        1.60743249372955
C           -7.08150474797120       -1.92177500945281        1.91063757875710
C           -8.08049856918385       -1.17433490522344        1.29505213810227
C           -7.76245874628069       -0.19244311567248        0.37752161158572
C           -6.42739072832731        0.01468387423639        0.06129903851114
C           -5.76031524406094        0.96377133354451       -0.78838213239452
C           -6.21887574359544        1.97854585285529       -1.61713257052020
C           -5.29334732586876        2.73074602465717       -2.31323984573207
C           -3.93042240439665        2.47490134537241       -2.19277355319989
C           -3.45192238168412        1.46876952008761       -1.37331678872620
C           -4.37684263172458        0.71690483782915       -0.66692287557579
N           -1.89509404754865       -0.14789767923904        0.45348982116390
C            1.73093659546588       -0.20260707349647        0.40883990727403
C            2.78923118796253        0.69448880928304        0.32244640959372
N            4.08018836632652        0.22585259443628        0.04814886249038
C            4.42616109640869       -0.62309077356182       -0.98599833078915
C            3.63364050705293       -1.16909443199598       -1.98545238057150
C            4.24582640163255       -1.97493056244547       -2.92632086955609
C            5.61479871392267       -2.22942404100764       -2.88655527421616
C            6.41254807962705       -1.66867358014462       -1.90946915585180
C            5.82016343264914       -0.85513736390409       -0.95259105653682
C            6.33218703088295       -0.10888090671766        0.16260153907565
C            7.60079155372631        0.04686083122225        0.70533034650356
C            7.74840438118313        0.84167041929890        1.82430723051079
C            6.64867306187303        1.46404295141954        2.41073270893535
C            5.37673166072399        1.32406740346511        1.88919024231561
C            5.22606305243577        0.54693895348986        0.74976732042311
C            2.55964785195359        2.05732529359638        0.49643625857490
H            1.10169574073919        3.56939439754553        0.87784100330222
H           -0.78433363918707        1.97069838146913        0.99861373755864
H            0.35017954895876       -2.46738724334547        1.35398836029115
H           -3.61404747210159       -3.02449334074737        0.56387917308790
H           -4.98745174819862       -2.30159513879049        2.12457740622949
H           -7.35268731794295       -2.66246098686427        2.64806759979435
H           -9.11286766884302       -1.35479907278807        1.55432509274438
H           -8.53125173802194        0.41133874033683       -0.08003408042253
H           -7.27687600695094        2.17004381768366       -1.71274096803294
H           -5.62744321606452        3.52751448754034       -2.96105996442108
H           -3.22829417947708        3.07686405883081       -2.75044280151783
H           -2.39515349711319        1.27919166955399       -1.28028728473733
H            1.92299438370508       -1.25610517234510        0.27514937832077
H            2.57500634952680       -0.96331694811394       -2.03827905293571
H            3.64927211855667       -2.41406644286527       -3.71232807910524
H            6.05479788223254       -2.86706149138047       -3.63876051806467
H            7.47626122895869       -1.85157942074172       -1.88802969049717
H            8.45007591808175       -0.44887956271444        0.25990810004657
H            8.72669651754497        0.97858754595372        2.26045654124894
H            6.79261959464032        2.06698247427596        3.29521317152103
H            4.52861157288882        1.79586188579676        2.36232713344189
H            3.38280237138301        2.75061086056635        0.41253976010173

          :  Hamiltonian                  GFN2-xTB          :
         :: gradient norm              0.000060704055 Eh/a0 ::
         :: HOMO-LUMO gap              2.094104281316 eV    ::
         :: SCC energy               -97.543904737910 Eh    ::
         :: -> dispersion             -0.081652983436 Eh    ::
         :: repulsion energy           1.763623788825 Eh    ::

    * Orbital Energies and Occupations

         #    Occupation            Energy/Eh            Energy/eV
      -------------------------------------------------------------
         1        2.0000           -0.6908096             -18.7979
       ...           ...                  ...                  ...
        77        2.0000           -0.4226161             -11.5000
        78        2.0000           -0.4196726             -11.4199
        79        2.0000           -0.4189636             -11.4006
        80        2.0000           -0.4178724             -11.3709
        81        2.0000           -0.4163189             -11.3286
        82        2.0000           -0.4104633             -11.1693
        83        2.0000           -0.4076478             -11.0927
        84        2.0000           -0.4050696             -11.0225
        85        2.0000           -0.3840869             -10.4515
        86        2.0000           -0.3785187             -10.3000
        87        2.0000           -0.3766405             -10.2489
        88        2.0000           -0.3639354              -9.9032
        89        2.0000           -0.3604691              -9.8089 (HOMO)
        90                         -0.2835122              -7.7148 (LUMO)
        91                         -0.2664914              -7.2516
        92                         -0.2485383              -6.7631
        93                         -0.2465457              -6.7089
        94                         -0.2379528              -6.4750
        95                         -0.2271770              -6.1818
        96                         -0.2222455              -6.0476
        97                         -0.2217307              -6.0336
        98                         -0.1958501              -5.3294
        99                         -0.1909707              -5.1966
       100                         -0.1892827              -5.1506
       ...                                ...                  ...
       174                          0.7460463              20.3010
      -------------------------------------------------------------
                  HL-Gap            0.0769569 Eh            2.0941 eV

     #   Z          covCN         q      C6AA      α(0)
     1   6 C        2.918    -0.027    28.679     8.782
     2   6 C        2.925    -0.031    28.771     8.796
     3   6 C        2.980     0.006    27.877     8.661
     4   6 C        2.949     0.088    26.049     8.371
     5   6 C        2.905     0.036    27.198     8.551
     6   7 N        1.840    -0.206    26.300     7.600
     7   6 C        2.904     0.031    27.298     8.567
     8   6 C        2.883     0.143    24.887     8.178
     9   7 N        2.803    -0.042    22.052     6.974
    10   6 C        3.059     0.046    26.915     8.508
    11   6 C        2.910    -0.050    29.243     8.867
    12   6 C        2.924    -0.032    28.796     8.800
    13   6 C        2.920    -0.038    28.939     8.822
    14   6 C        2.913    -0.032    28.790     8.799
    15   6 C        3.066    -0.012    28.243     8.714
    16   6 C        3.065    -0.014    28.285     8.721
    17   6 C        2.913    -0.032    28.808     8.801
    18   6 C        2.920    -0.038    28.940     8.822
    19   6 C        2.925    -0.032    28.793     8.800
    20   6 C        2.910    -0.046    29.141     8.852
    21   6 C        3.064     0.053    26.752     8.481
    22   7 N        1.859    -0.245    27.245     7.737
    23   6 C        2.926    -0.048    29.183     8.859
    24   6 C        2.911     0.067    26.501     8.441
    25   7 N        2.803    -0.045    22.107     6.983
    26   6 C        3.074     0.046    26.882     8.501
    27   6 C        2.910    -0.051    29.262     8.870
    28   6 C        2.924    -0.033    28.823     8.804
    29   6 C        2.920    -0.040    29.005     8.832
    30   6 C        2.913    -0.033    28.811     8.802
    31   6 C        3.068    -0.017    28.352     8.731
    32   6 C        3.068    -0.017    28.353     8.731
    33   6 C        2.913    -0.033    28.812     8.802
    34   6 C        2.920    -0.041    29.008     8.832
    35   6 C        2.924    -0.033    28.828     8.805
    36   6 C        2.910    -0.051    29.269     8.871
    37   6 C        3.074     0.047    26.880     8.501
    38   6 C        2.922    -0.041    29.023     8.835
    39   1 H        0.926     0.042     2.425     2.435
    40   1 H        0.926     0.058     2.222     2.331
    41   1 H        0.926     0.042     2.416     2.431
    42   1 H        0.926     0.048     2.349     2.397
    43   1 H        0.926     0.032     2.564     2.504
    44   1 H        0.926     0.034     2.526     2.486
    45   1 H        0.926     0.033     2.546     2.495
    46   1 H        0.926     0.035     2.511     2.478
    47   1 H        0.926     0.034     2.533     2.489
    48   1 H        0.926     0.032     2.563     2.503
    49   1 H        0.926     0.033     2.539     2.492
    50   1 H        0.926     0.050     2.316     2.380
    51   1 H        0.926     0.044     2.394     2.420
    52   1 H        0.926     0.026     2.646     2.544
    53   1 H        0.926     0.029     2.594     2.518
    54   1 H        0.926     0.029     2.605     2.524
    55   1 H        0.926     0.032     2.564     2.504
    56   1 H        0.926     0.031     2.566     2.505
    57   1 H        0.926     0.028     2.608     2.525
    58   1 H        0.926     0.029     2.596     2.520
    59   1 H        0.926     0.027     2.633     2.538
    60   1 H        0.926     0.045     2.379     2.412

molecular dipole:
                 x           y           z       tot (Debye)
 q only:       -0.286       0.511      -0.007
   full:       -0.294       0.446       0.058       1.366

 projected vibrational frequencies (cm⁻¹)
eigval :       -0.00    -0.00    -0.00     0.00     0.00     0.00
eigval :       10.07    15.39    22.74    35.07    41.67    56.24
eigval :       71.44    93.41    93.55   102.45   120.49   133.27
eigval :      140.73   151.37   181.92   203.48   214.54   233.37
eigval :      242.55   271.73   272.54   274.16   290.63   325.15
eigval :      333.27   352.03   380.16   393.40   395.55   399.53
eigval :      422.97   424.11   436.26   438.29   442.10   450.03
eigval :      511.88   516.98   519.22   531.66   540.30   541.20
eigval :      550.16   574.42   584.08   590.25   600.63   608.53
eigval :      611.39   629.30   655.45   671.00   674.44   676.02
eigval :      681.68   708.14   710.72   722.57   731.78   755.46
eigval :      757.98   769.62   771.93   781.02   782.27   802.50
eigval :      819.78   828.38   868.40   870.61   872.47   874.88
eigval :      889.71   890.67   896.39   897.52   901.15   905.05
eigval :      905.57   908.12   909.40   922.46   923.58   924.33
eigval :      925.10   932.99   935.61   997.81  1006.61  1012.27
eigval :     1018.77  1022.91  1070.66  1071.12  1074.29  1077.52
eigval :     1105.36  1118.11  1123.86  1138.56  1150.66  1152.81
eigval :     1164.59  1177.32  1177.91  1179.64  1181.44  1182.04
eigval :     1191.61  1194.50  1230.29  1235.94  1236.93  1242.18
eigval :     1248.93  1260.14  1271.60  1291.36  1299.23  1301.62
eigval :     1304.23  1322.01  1341.38  1354.83  1357.89  1358.78
eigval :     1361.49  1368.14  1389.91  1406.27  1422.80  1426.01
eigval :     1428.08  1440.95  1454.52  1473.59  1474.69  1478.24
eigval :     1485.57  1488.31  1515.52  1550.44  1570.91  1576.33
eigval :     1577.96  1587.86  1589.48  1589.50  1598.55  1599.65
eigval :     1611.91  1615.24  3076.35  3076.71  3077.73  3078.71
eigval :     3080.67  3081.20  3081.74  3082.23  3084.50  3085.94
eigval :     3087.75  3088.06  3089.73  3094.95  3095.60  3096.47
eigval :     3097.15  3098.04  3099.69  3101.29  3110.81  3114.78

   temp. (K)  partition function   enthalpy   heat capacity  entropy
                                   cal/mol     cal/K/mol   cal/K/mol   J/K/mol
 298.15  VIB  0.888E+12            16147.803    106.604     98.526
         ROT  0.443E+08              888.752      2.981     37.971
         INT  0.394E+20            17036.556    109.585    136.497
         TR   0.104E+29             1481.254      4.968     44.414
         TOT                       18517.8096   114.5535   180.9113   756.9327

       T/K    H(0)-H(T)+PV         H(T)/Eh          T*S/Eh         G(T)/Eh
   ------------------------------------------------------------------------
    298.15    0.295100E-01    0.485463E+00    0.859568E-01    0.399506E+00
   ------------------------------------------------------------------------

         :::::::::::::::::::::::::::::::::::::::::::::::::::::
         ::                  THERMODYNAMIC                  ::
         :::::::::::::::::::::::::::::::::::::::::::::::::::::
         :: total free energy         -95.380774980101 Eh   ::
         ::.................................................::
         :: total energy              -95.780280949084 Eh   ::
         :: zero point energy           0.455952739610 Eh   ::
         :: G(RRHO) w/o ZPVE           -0.056446770627 Eh   ::
         :: G(RRHO) contrib.            0.399505968983 Eh   ::
         :::::::::::::::::::::::::::::::::::::::::::::::::::::

           -------------------------------------------------
          | TOTAL ENERGY              -95.780280949084 Eh   |
          | TOTAL ENTHALPY            -95.294818201486 Eh   |
          | TOTAL FREE ENERGY         -95.380774980101 Eh   |
          | GRADIENT NORM               0.000060701035 Eh/α |
          | HOMO-LUMO GAP               2.094104224232 eV   |
           -------------------------------------------------

 * finished run on 2025/08/30 at 21:04:44.549
