   * xtb version 6.7.1 (edcfbbe) compiled by 'albert@albert-system' on 2024-07-22

   ID    Z sym.   atoms
    1    6 C      1-5, 7, 8, 10-21, 23, 24, 26-38
    2    7 N      6, 9, 22, 25
    3    1 H      39-60

          program call               : xtb data2507/gas/CPzPC/CPzPC_gas_S0_finalOpt.xtbopt.xyz --gfn 2 --spinpol --tblite --uhf 2 --ohess vtight --parallel 40 --molden --ceasefiles --namespace data2507/gas/CPzPC/CPzPC_gas_T1_preOpt
 * total energy  :   -95.7041749 Eh     change       -0.6029286E-07 Eh
 * total energy  :   -95.7074382 Eh     change       -0.3263278E-02 Eh
 * total energy  :   -95.7081835 Eh     change       -0.7452557E-03 Eh
 * total energy  :   -95.7084442 Eh     change       -0.2607181E-03 Eh
 * total energy  :   -95.7086412 Eh     change       -0.1970440E-03 Eh
 * total energy  :   -95.7087134 Eh     change       -0.7218832E-04 Eh
 * total energy  :   -95.7087685 Eh     change       -0.5503701E-04 Eh
 * total energy  :   -95.7088063 Eh     change       -0.3784272E-04 Eh
 * total energy  :   -95.7088401 Eh     change       -0.3382222E-04 Eh
 * total energy  :   -95.7088629 Eh     change       -0.2272875E-04 Eh
 * total energy  :   -95.7091239 Eh     change       -0.3072235E-06 Eh
 * total energy  :   -95.7091242 Eh     change       -0.3127416E-06 Eh
 * total energy  :   -95.7091246 Eh     change       -0.3399198E-06 Eh
 * total energy  :   -95.7091249 Eh     change       -0.3377140E-06 Eh
 * total energy  :   -95.7091252 Eh     change       -0.3293420E-06 Eh
 * total energy  :   -95.7091256 Eh     change       -0.3563986E-06 Eh
 * total energy  :   -95.7091259 Eh     change       -0.3453848E-06 Eh
 * total energy  :   -95.7091259 Eh     change        0.2016355E-07 Eh
 * total energy  :   -95.7091259 Eh     change       -0.2352481E-07 Eh
   *** GEOMETRY OPTIMIZATION CONVERGED AFTER 95 ITERATIONS ***

 final structure:
================
60
 xtb: 6.7.1 (edcfbbe)
C            1.30250782920717        1.80104087987934       -1.87556281198570
C            0.26144936459541        1.09904180133445       -1.31381730617863
C            0.50455609473115        0.05470151944178       -0.39881450877829
C           -0.61079464019665       -0.63754165290535        0.17790185588673
C           -0.50426004198702       -1.81733126567138        0.92537374963369
N           -1.54573780787042       -2.42027324122870        1.42738859434012
C           -2.77899233084597       -1.91038297806985        1.23490800579100
C           -2.93267045519482       -0.79249984698266        0.42285226726206
N           -4.18163572606158       -0.24457076162279        0.20104341019862
C           -5.37927973857536       -0.92421140775554        0.04790305758860
C           -5.61988770647137       -2.28389729032901       -0.08355175803024
C           -6.92952226324272       -2.69512967091587       -0.25627830155247
C           -7.97781090124052       -1.78141539571568       -0.30857824741046
C           -7.74039810385085       -0.42297214111839       -0.21338920164047
C           -6.43487600319433        0.01233750410145       -0.04125641399093
C           -5.83775087194438        1.31835076338732        0.05427476721066
C           -6.35011406094968        2.60702434912659        0.02242863955015
C           -5.47276760342092        3.66976140750405        0.13407742518500
C           -4.10415150658314        3.45907384071484        0.27719687338752
C           -3.57155876253125        2.18317388571718        0.31655699751138
C           -4.44751216529593        1.11673682171760        0.19526472078449
N           -1.87469456046374       -0.18094136175482       -0.08946743386347
C            1.83630612317452       -0.23076163231845       -0.06536256332433
C            2.87581236795583        0.47786307971948       -0.64119965059512
N            4.20187798309728        0.16763073057011       -0.29788075214169
C            4.76789020667341       -1.08891898110478       -0.32333279674349
C            4.21544474039276       -2.29882374287590       -0.72106367257711
C            5.01812874558536       -3.42223885572015       -0.66855887623260
C            6.34180998884720       -3.35101048287056       -0.23990719847906
C            6.90407757628009       -2.14619331910104        0.13535119019581
C            6.11780177319726       -1.00341650266847        0.09170271623560
C            6.36582977094278        0.38120055603265        0.38447831477864
C            7.47573595997321        1.07871648257093        0.84027180597533
C            7.36417545188340        2.44085919050660        1.04185948527130
C            6.16163530957467        3.10440113250549        0.80837890147986
C            5.04290793454405        2.43217942727297        0.35495360375666
C            5.15543315643383        1.06731901856728        0.12833052955666
C            2.61825516244529        1.49814626651208       -1.55807908774723
H            1.09524503100324        2.59222108531166       -2.58135745868639
H           -0.76137539577960        1.33184900024104       -1.56573631619104
H            0.45426195029958       -2.29181055826461        1.06621089519236
H           -3.60026065258704       -2.34135680463176        1.77861173385913
H           -4.81499592085933       -3.00217030002604       -0.07240598557711
H           -7.14071430831264       -3.74905247743845       -0.35807924443411
H           -8.98699644060954       -2.14153363386286       -0.44041076104193
H           -8.54970096081384        0.28811257355380       -0.27869227585352
H           -7.41094483176076        2.77219314385514       -0.08896501659529
H           -5.85192807574319        4.68055162537066        0.11231413458503
H           -3.44408861354107        4.30907283814862        0.36416277925951
H           -2.51158748694599        2.01968648340539        0.43270387497502
H            2.07101932080314       -0.98784263189527        0.66710657349040
H            3.19612838396368       -2.35862303624295       -1.07202772229722
H            4.61143419921821       -4.37634039660264       -0.96994773645401
H            6.93591659721428       -4.25226493727997       -0.21062524256850
H            7.93432867669571       -2.08959314355990        0.45301410946384
H            8.40381819188650        0.56296473066803        1.03575362736395
H            8.21667557040315        3.00235730543319        1.39410576687979
H            6.10145738487535        4.16743960923304        0.98963092268497
H            4.10973190085578        2.94985190281032        0.19242085001509
H            3.43818351634558        2.02600058975320       -2.01942817977648

 projected vibrational frequencies (cm⁻¹)
eigval :       -0.00    -0.00    -0.00     0.00     0.00     0.00
eigval :       11.58    15.50    24.59    32.41    41.18    64.24
eigval :       73.16    93.02    98.27   101.56   119.07   128.87
eigval :      142.02   143.22   189.82   193.70   211.90   223.91
eigval :      232.37   271.35   272.64   277.70   286.63   321.98
eigval :      336.40   353.08   378.77   383.65   395.07   396.65
eigval :      422.84   424.06   431.08   435.25   436.47   463.50
eigval :      496.22   515.11   517.14   522.07   539.09   539.92
eigval :      541.48   551.95   562.49   584.44   586.52   596.60
eigval :      608.59   615.94   622.50   629.74   652.95   671.54
eigval :      674.34   678.14   693.14   708.81   710.32   723.98
eigval :      754.26   756.83   768.86   771.80   779.54   782.05
eigval :      783.74   798.12   811.99   850.02   864.71   872.22
eigval :      875.19   876.86   877.64   892.92   897.73   902.79
eigval :      903.88   904.26   906.04   907.68   917.06   922.18
eigval :      922.46   923.02   923.80   954.31   985.62  1009.71
eigval :     1011.77  1019.44  1067.39  1068.75  1071.47  1072.58
eigval :     1078.57  1089.75  1114.64  1118.62  1130.49  1135.22
eigval :     1147.70  1149.25  1175.14  1175.89  1178.48  1180.73
eigval :     1181.14  1186.13  1189.57  1224.97  1231.66  1235.58
eigval :     1238.91  1254.88  1269.14  1274.30  1293.76  1296.48
eigval :     1297.84  1301.16  1327.53  1336.40  1353.03  1354.64
eigval :     1357.79  1360.05  1362.44  1375.23  1414.43  1415.42
eigval :     1420.26  1423.02  1431.56  1445.02  1455.67  1465.75
eigval :     1469.15  1473.00  1483.50  1487.31  1526.76  1563.64
eigval :     1571.62  1573.53  1586.37  1586.98  1591.06  1591.81
eigval :     1605.90  1610.75  3076.93  3077.18  3077.57  3080.30
eigval :     3081.36  3081.86  3082.77  3083.34  3087.74  3088.85
eigval :     3089.13  3090.95  3092.30  3095.37  3095.59  3096.62
eigval :     3097.10  3099.35  3101.00  3101.83  3103.56  3120.23

   temp. (K)  partition function   enthalpy   heat capacity  entropy
                                   cal/mol     cal/K/mol   cal/K/mol   J/K/mol
 298.15  VIB  0.855E+12            16366.687    108.443     99.467
         ROT  0.455E+08              888.752      2.981     38.022
         INT  0.389E+20            17255.439    111.424    137.489
         TR   0.104E+29             1481.254      4.968     44.414
         TOT                       18736.6931   116.3924   181.9034   761.0839

       T/K    H(0)-H(T)+PV         H(T)/Eh          T*S/Eh         G(T)/Eh
   ------------------------------------------------------------------------
    298.15    0.298588E-01    0.482188E+00    0.864282E-01    0.395760E+00
   ------------------------------------------------------------------------

         :::::::::::::::::::::::::::::::::::::::::::::::::::::
         ::                  THERMODYNAMIC                  ::
         :::::::::::::::::::::::::::::::::::::::::::::::::::::
         :: total free energy         -95.313365646473 Eh   ::
         ::.................................................::
         :: total energy              -95.709125931837 Eh   ::
         :: zero point energy           0.452329644876 Eh   ::
         :: G(RRHO) w/o ZPVE           -0.056569359512 Eh   ::
         :: G(RRHO) contrib.            0.395760285364 Eh   ::
         :::::::::::::::::::::::::::::::::::::::::::::::::::::

           -------------------------------------------------
          | TOTAL ENERGY              -95.709125931837 Eh   |
          | TOTAL ENTHALPY            -95.226937465859 Eh   |
          | TOTAL FREE ENERGY         -95.313365646473 Eh   |
          | GRADIENT NORM               0.000104129740 Eh/α |
           -------------------------------------------------

 * finished run on 2025/08/30 at 21:07:26.971
