   * xtb version 6.7.1 (edcfbbe) compiled by 'albert@albert-system' on 2024-07-22

   ID    Z sym.   atoms
    1    6 C      1-5, 7, 8, 10-21, 23, 24, 26-38
    2    7 N      6, 9, 22, 25
    3    1 H      39-60

          program call               : xtb data2507/gas/CPzPC/CPzPC_gas_S0_crest.xyz --gfn 2 --ohess vtight --parallel 40 --molden --ceasefiles --namespace data2507/gas/CPzPC/CPzPC_gas_S0_finalOpt
          :  Hamiltonian                  GFN2-xTB          :
 * total energy  :   -95.7805802 Eh     change       -0.1559613E-08 Eh
   *** GEOMETRY OPTIMIZATION CONVERGED AFTER 1 ITERATIONS ***

 final structure:
================
60
 xtb: 6.7.1 (edcfbbe)
C            1.29861485710000        1.71177920050000       -2.05753034240000
C            0.24666583990000        0.99023666790000       -1.52684102270000
C            0.48653448700000       -0.01137207710000       -0.58600606420000
C           -0.64122133000000       -0.78003779650000       -0.05194505350000
C           -0.51185851570000       -2.05345777520000        0.50802934650000
N           -1.54458150030000       -2.67594162940000        1.05452094100000
C           -2.72485544650000       -2.09384504150000        1.00334830590000
C           -2.89603136790000       -0.86673093100000        0.34198710280000
N           -4.13009892700000       -0.26104207490000        0.20635590860000
C           -5.35830879930000       -0.89784503050000        0.07655225700000
C           -5.65400564040000       -2.23920535100000       -0.11592817230000
C           -6.98277824620000       -2.59872660330000       -0.25356993020000
C           -8.00133769040000       -1.65174730280000       -0.21546381090000
C           -7.71137502100000       -0.30952538680000       -0.06890081440000
C           -6.38455250580000        0.07306678710000        0.06759220090000
C           -5.74332725400000        1.35510102460000        0.18178792140000
C           -6.22745092960000        2.65497333250000        0.23445170990000
C           -5.32233845060000        3.69190094480000        0.34642227390000
C           -3.95452265880000        3.44158966890000        0.41088219470000
C           -3.45053720640000        2.15464633860000        0.36034253000000
C           -4.35502159370000        1.11205627570000        0.24029201220000
N           -1.84570337220000       -0.21750256540000       -0.14379494690000
C            1.79094315410000       -0.25885193230000       -0.17117361140000
C            2.84849554750000        0.46037431690000       -0.71580063790000
N            4.15890816370000        0.18627471820000       -0.30618724850000
C            4.73196745300000       -1.06904316440000       -0.23066450960000
C            4.20474122190000       -2.30492403070000       -0.57683444130000
C            5.01093407960000       -3.41666985360000       -0.42390367060000
C            6.31580566000000       -3.30922218980000        0.05172764200000
C            6.85529485870000       -2.07946803030000        0.37136940230000
C            6.06377206610000       -0.94765043870000        0.22702100440000
C            6.29619439750000        0.45346382200000        0.44069730810000
C            7.38808903380000        1.18099469160000        0.89521700400000
C            7.26802984950000        2.55132206980000        1.01063119230000
C            6.07339407870000        3.19437933530000        0.69478125130000
C            4.97353277870000        2.49211980760000        0.24033158440000
C            5.09637257780000        1.11758156800000        0.09762839310000
C            2.59945193990000        1.44529742870000       -1.66877525470000
H            1.10770633320000        2.48051938270000       -2.79144351990000
H           -0.76946550560000        1.18206307780000       -1.83300004520000
H            0.42585183890000       -2.58823226110000        0.53263216610000
H           -3.53203443370000       -2.59121444350000        1.51979091720000
H           -4.88057561400000       -2.98820642880000       -0.18390921700000
H           -7.23206671580000       -3.63901548950000       -0.40065536030000
H           -9.02681376520000       -1.97258293120000       -0.32061842880000
H           -8.49553347470000        0.43211878030000       -0.06968761450000
H           -7.28910683770000        2.84507773990000        0.19035981040000
H           -5.67659704720000        4.71125287870000        0.38577249270000
H           -3.26926323130000        4.27138037640000        0.50102550240000
H           -2.39025154450000        1.96693115900000        0.40611094840000
H            1.99441811440000       -0.98748706850000        0.59836566620000
H            3.20243494250000       -2.39770516210000       -0.96783123100000
H            4.62133213140000       -4.39028221500000       -0.68245752250000
H            6.91283094070000       -4.20238225650000        0.16026575830000
H            7.87251705980000       -1.99341041190000        0.72240846660000
H            8.30792805530000        0.67983200690000        1.15627504370000
H            8.10567801370000        3.13629107760000        1.36018641490000
H            6.00361008030000        4.26589862590000        0.81109562070000
H            4.04656402150000        2.99863450140000        0.01737709110000
H            3.42581507120000        1.98493273170000       -2.10593824180000

          :  Hamiltonian                  GFN2-xTB          :
         :: gradient norm              0.000183568083 Eh/a0 ::
         :: HOMO-LUMO gap              2.082524370347 eV    ::
         :: SCC energy               -97.544216498007 Eh    ::
         :: -> dispersion             -0.081869792656 Eh    ::
         :: repulsion energy           1.763636326260 Eh    ::

    * Orbital Energies and Occupations

         #    Occupation            Energy/Eh            Energy/eV
      -------------------------------------------------------------
         1        2.0000           -0.6907208             -18.7955
       ...           ...                  ...                  ...
        77        2.0000           -0.4228693             -11.5069
        78        2.0000           -0.4196798             -11.4201
        79        2.0000           -0.4192020             -11.4071
        80        2.0000           -0.4184352             -11.3862
        81        2.0000           -0.4162397             -11.3265
        82        2.0000           -0.4103792             -11.1670
        83        2.0000           -0.4074203             -11.0865
        84        2.0000           -0.4052818             -11.0283
        85        2.0000           -0.3840098             -10.4494
        86        2.0000           -0.3787827             -10.3072
        87        2.0000           -0.3765411             -10.2462
        88        2.0000           -0.3642251              -9.9111
        89        2.0000           -0.3604030              -9.8071 (HOMO)
        90                         -0.2838717              -7.7245 (LUMO)
        91                         -0.2665723              -7.2538
        92                         -0.2484921              -6.7618
        93                         -0.2468061              -6.7159
        94                         -0.2379282              -6.4744
        95                         -0.2270838              -6.1793
        96                         -0.2220829              -6.0432
        97                         -0.2218791              -6.0376
        98                         -0.1961533              -5.3376
        99                         -0.1909071              -5.1948
       100                         -0.1887352              -5.1357
       ...                                ...                  ...
       174                          0.7457985              20.2942
      -------------------------------------------------------------
                  HL-Gap            0.0765314 Eh            2.0825 eV

     #   Z          covCN         q      C6AA      α(0)
     1   6 C        2.918    -0.027    28.680     8.782
     2   6 C        2.925    -0.031    28.774     8.797
     3   6 C        2.979     0.006    27.882     8.662
     4   6 C        2.949     0.088    26.049     8.371
     5   6 C        2.906     0.036    27.195     8.551
     6   7 N        1.839    -0.206    26.305     7.601
     7   6 C        2.905     0.032    27.295     8.566
     8   6 C        2.883     0.143    24.883     8.178
     9   7 N        2.803    -0.042    22.057     6.975
    10   6 C        3.060     0.046    26.914     8.508
    11   6 C        2.910    -0.050    29.243     8.867
    12   6 C        2.924    -0.032    28.795     8.800
    13   6 C        2.920    -0.038    28.940     8.822
    14   6 C        2.913    -0.032    28.790     8.799
    15   6 C        3.066    -0.012    28.245     8.715
    16   6 C        3.065    -0.014    28.286     8.721
    17   6 C        2.913    -0.032    28.807     8.801
    18   6 C        2.920    -0.038    28.942     8.822
    19   6 C        2.925    -0.032    28.793     8.800
    20   6 C        2.910    -0.046    29.139     8.851
    21   6 C        3.065     0.053    26.751     8.481
    22   7 N        1.858    -0.245    27.241     7.736
    23   6 C        2.926    -0.048    29.189     8.860
    24   6 C        2.911     0.067    26.503     8.442
    25   7 N        2.803    -0.045    22.099     6.982
    26   6 C        3.075     0.046    26.884     8.501
    27   6 C        2.910    -0.051    29.263     8.870
    28   6 C        2.924    -0.033    28.825     8.804
    29   6 C        2.920    -0.040    29.004     8.832
    30   6 C        2.913    -0.032    28.809     8.801
    31   6 C        3.068    -0.016    28.349     8.731
    32   6 C        3.068    -0.017    28.351     8.731
    33   6 C        2.913    -0.033    28.812     8.802
    34   6 C        2.920    -0.041    29.007     8.832
    35   6 C        2.924    -0.033    28.827     8.805
    36   6 C        2.910    -0.051    29.268     8.871
    37   6 C        3.074     0.047    26.879     8.500
    38   6 C        2.922    -0.041    29.027     8.835
    39   1 H        0.926     0.042     2.426     2.436
    40   1 H        0.926     0.059     2.214     2.327
    41   1 H        0.926     0.042     2.418     2.432
    42   1 H        0.926     0.048     2.349     2.397
    43   1 H        0.926     0.031     2.566     2.505
    44   1 H        0.926     0.034     2.527     2.486
    45   1 H        0.926     0.033     2.547     2.496
    46   1 H        0.926     0.035     2.511     2.478
    47   1 H        0.926     0.034     2.533     2.489
    48   1 H        0.926     0.032     2.563     2.504
    49   1 H        0.926     0.033     2.539     2.492
    50   1 H        0.926     0.050     2.324     2.384
    51   1 H        0.926     0.044     2.393     2.419
    52   1 H        0.926     0.025     2.659     2.550
    53   1 H        0.926     0.030     2.589     2.516
    54   1 H        0.926     0.029     2.602     2.523
    55   1 H        0.926     0.032     2.563     2.504
    56   1 H        0.926     0.032     2.565     2.504
    57   1 H        0.926     0.029     2.607     2.525
    58   1 H        0.926     0.029     2.594     2.519
    59   1 H        0.926     0.027     2.626     2.534
    60   1 H        0.926     0.045     2.379     2.412

molecular dipole:
                 x           y           z       tot (Debye)
 q only:       -0.275       0.427      -0.288
   full:       -0.279       0.340      -0.295       1.346

 projected vibrational frequencies (cm⁻¹)
eigval :       -0.00    -0.00     0.00     0.00     0.00     0.00
eigval :       10.70    15.56    22.59    34.95    41.72    59.49
eigval :       68.13    94.13    97.24   102.88   121.85   131.07
eigval :      141.06   145.30   188.43   201.37   212.27   232.52
eigval :      242.73   272.12   273.78   275.85   292.15   325.01
eigval :      334.83   351.41   379.50   393.50   396.21   398.31
eigval :      423.54   424.01   436.73   438.25   441.77   459.35
eigval :      506.49   517.08   518.95   531.15   540.36   541.20
eigval :      543.52   579.36   584.12   593.62   595.40   609.36
eigval :      614.28   629.22   653.89   671.15   674.36   675.87
eigval :      681.88   708.19   710.65   722.74   731.75   755.50
eigval :      758.01   769.80   771.97   781.19   782.27   802.24
eigval :      820.60   827.80   868.67   870.53   872.47   874.91
eigval :      889.80   890.79   896.52   897.77   901.27   905.00
eigval :      906.18   908.28   909.73   922.52   923.93   924.23
eigval :      925.25   933.43   935.43   998.03  1006.65  1012.33
eigval :     1018.78  1022.88  1070.65  1070.89  1074.34  1077.49
eigval :     1105.34  1118.02  1123.35  1138.23  1150.77  1152.82
eigval :     1165.51  1177.16  1177.91  1179.39  1181.45  1182.03
eigval :     1192.45  1194.79  1230.56  1236.07  1236.55  1242.15
eigval :     1248.79  1260.80  1271.74  1291.70  1299.10  1301.53
eigval :     1303.81  1322.37  1341.25  1355.00  1357.96  1358.78
eigval :     1361.40  1367.89  1390.15  1406.14  1422.73  1426.00
eigval :     1428.02  1440.99  1454.90  1473.62  1474.69  1478.26
eigval :     1485.60  1488.23  1515.15  1550.58  1570.53  1576.16
eigval :     1577.87  1587.46  1589.48  1589.59  1598.66  1599.70
eigval :     1611.94  1615.23  3075.94  3076.80  3077.69  3078.85
eigval :     3080.51  3080.97  3081.58  3082.33  3084.29  3086.00
eigval :     3087.69  3087.87  3089.89  3094.86  3095.65  3096.31
eigval :     3097.24  3098.22  3100.05  3101.04  3110.85  3113.80

   temp. (K)  partition function   enthalpy   heat capacity  entropy
                                   cal/mol     cal/K/mol   cal/K/mol   J/K/mol
 298.15  VIB  0.804E+12            16140.309    106.619     98.415
         ROT  0.451E+08              888.752      2.981     38.006
         INT  0.363E+20            17029.062    109.599    136.420
         TR   0.104E+29             1481.254      4.968     44.414
         TOT                       18510.3154   114.5676   180.8341   756.6100

       T/K    H(0)-H(T)+PV         H(T)/Eh          T*S/Eh         G(T)/Eh
   ------------------------------------------------------------------------
    298.15    0.294981E-01    0.485473E+00    0.859201E-01    0.399553E+00
   ------------------------------------------------------------------------

         :::::::::::::::::::::::::::::::::::::::::::::::::::::
         ::                  THERMODYNAMIC                  ::
         :::::::::::::::::::::::::::::::::::::::::::::::::::::
         :: total free energy         -95.381027437848 Eh   ::
         ::.................................................::
         :: total energy              -95.780580171748 Eh   ::
         :: zero point energy           0.455974795072 Eh   ::
         :: G(RRHO) w/o ZPVE           -0.056422061172 Eh   ::
         :: G(RRHO) contrib.            0.399552733900 Eh   ::
         :::::::::::::::::::::::::::::::::::::::::::::::::::::

           -------------------------------------------------
          | TOTAL ENERGY              -95.780580171748 Eh   |
          | TOTAL ENTHALPY            -95.295107311406 Eh   |
          | TOTAL FREE ENERGY         -95.381027437848 Eh   |
          | GRADIENT NORM               0.000183544969 Eh/α |
          | HOMO-LUMO GAP               2.082524181931 eV   |
           -------------------------------------------------

 * finished run on 2025/08/30 at 21:07:17.942
