   * xtb version 6.7.1 (edcfbbe) compiled by 'albert@albert-system' on 2024-07-22

   ID    Z sym.   atoms
    1    6 C      1-5, 7, 8, 10-21, 23, 24, 26-38
    2    7 N      6, 9, 22, 25
    3    1 H      39-60

          program call               : xtb data2507/gas/CPzPC/CPzPC_gas_T1_crest.xyz --gfn 2 --spinpol --tblite --uhf 2 --ohess vtight --parallel 40 --molden --ceasefiles --namespace data2507/gas/CPzPC/CPzPC_gas_T1_finalOpt
 * total energy  :   -95.7094754 Eh     change       -0.9132208E-08 Eh
 * total energy  :   -95.7095975 Eh     change       -0.1220908E-03 Eh
 * total energy  :   -95.7096843 Eh     change       -0.8682395E-04 Eh
 * total energy  :   -95.7096970 Eh     change       -0.1268293E-04 Eh
 * total energy  :   -95.7097046 Eh     change       -0.7632398E-05 Eh
 * total energy  :   -95.7097063 Eh     change       -0.1648635E-05 Eh
 * total energy  :   -95.7097083 Eh     change       -0.2049326E-05 Eh
 * total energy  :   -95.7097109 Eh     change       -0.2592364E-05 Eh
 * total energy  :   -95.7097136 Eh     change       -0.2676049E-05 Eh
 * total energy  :   -95.7097157 Eh     change       -0.2070305E-05 Eh
 * total energy  :   -95.7097407 Eh     change       -0.1768657E-05 Eh
 * total energy  :   -95.7097423 Eh     change       -0.1590744E-05 Eh
 * total energy  :   -95.7097443 Eh     change       -0.1949414E-05 Eh
 * total energy  :   -95.7097466 Eh     change       -0.2338715E-05 Eh
 * total energy  :   -95.7097468 Eh     change       -0.1454693E-06 Eh
 * total energy  :   -95.7097469 Eh     change       -0.1819763E-06 Eh
 * total energy  :   -95.7097471 Eh     change       -0.1228460E-06 Eh
 * total energy  :   -95.7097471 Eh     change       -0.4513902E-07 Eh
 * total energy  :   -95.7097472 Eh     change       -0.6762724E-07 Eh
   *** GEOMETRY OPTIMIZATION CONVERGED AFTER 48 ITERATIONS ***

 final structure:
================
60
 xtb: 6.7.1 (edcfbbe)
C            2.81720741589679        3.59977296664360       -1.27614077683716
C            1.44780575010941        3.69895827940542       -1.16618282556169
C            0.68696893015056        2.61560149982897       -0.69538139621526
C           -0.74285746560023        2.65023352343978       -0.57563726945994
C           -1.50876619902545        3.81868406107537       -0.65471123860624
N           -2.80749368221704        3.81317946685863       -0.52413170272521
C           -3.45717023423948        2.65159372632040       -0.30755044342865
C           -2.72414556142756        1.48295361618592       -0.14570082280055
N           -3.36197600999308        0.27552949421511        0.07043592858348
C           -3.02291262924817       -0.91017500196906       -0.56257047243071
C           -1.98106439214659       -1.16998718186518       -1.43756210250636
C           -1.87121930079887       -2.45322505000399       -1.94055337886384
C           -2.77595877406144       -3.45062298856220       -1.58835317386948
C           -3.82099568872987       -3.19191524379986       -0.72073152285379
C           -3.95196464594987       -1.91119184607564       -0.20436517765047
C           -4.89041995379325       -1.29638434340320        0.69730664717962
C           -5.99513049884924       -1.77240509705299        1.38754146969500
C           -6.67780780515460       -0.90673425941836        2.22160706253287
C           -6.25665641394041        0.40956058364151        2.38522509612716
C           -5.15867239671242        0.90665105035770        1.70609837389282
C           -4.48962914769956        0.05189459772572        0.84267038418377
N           -1.40426767500327        1.48782947717149       -0.27466080400969
C            1.36542716113801        1.43651714741561       -0.34026310509709
C            2.74062219458366        1.34876492167627       -0.45297233709739
N            3.40027590301943        0.16505559049316       -0.08025771717686
C            3.08907875555312       -1.10775713884390       -0.50770208065939
C            2.11363247486248       -1.52780220697081       -1.40179865630819
C            2.03592405753608       -2.87836292528436       -1.68172113502936
C            2.90479689339189       -3.79603064997006       -1.09603670400570
C            3.88996628493257       -3.38238436404035       -0.22061053199708
C            3.99001211802537       -2.03037535117225        0.07527881378034
C            4.88095265235320       -1.26324781221307        0.90069076343136
C            5.94903846047139       -1.59642845239841        1.72165032001999
C            6.59544441598937       -0.58709941840795        2.40873357391241
C            6.17892423800204        0.73755811115550        2.29587798821739
C            5.11851341766277        1.09403309622300        1.48508873351592
C            4.48010018811926        0.08751803549293        0.77303422440070
C            3.47987084896668        2.43227863702680       -0.92781243446219
H            3.38499830830551        4.43975327848168       -1.64906496307864
H            0.96195225907002        4.61614524340322       -1.46056255765833
H           -1.03188597236924        4.77796202470646       -0.77857585201043
H           -4.53196757526387        2.65359126088936       -0.33723901915057
H           -1.28345001657164       -0.39445605514623       -1.71201512981037
H           -1.07152325632840       -2.68340359181757       -2.62754860401815
H           -2.65909541161113       -4.44031417385424       -2.00399073955904
H           -4.52208645323998       -3.96648146332423       -0.44949791943801
H           -6.30736820600606       -2.79974478906568        1.27818003020652
H           -7.54178763207937       -1.25670143811985        2.76618647917297
H           -6.79490430607383        1.05720625846863        3.06089004761244
H           -4.82785501443876        1.92179629268009        1.86155680993607
H            0.79706208943046        0.60457488501914        0.04620604444072
H            1.44590730667998       -0.82187414636429       -1.87105819675532
H            1.28838931857079       -3.23382236337911       -2.37485177279421
H            2.80858082595826       -4.84369788409104       -1.33950463289843
H            4.57295046670631       -4.09149122689251        0.22238614438989
H            6.26253700900055       -2.62470025895275        1.82146089553108
H            7.43048353310198       -0.82477512098203        3.05086729086701
H            6.69435837648729        1.50254705657962        2.85769430337599
H            4.79119118336020        2.12036429910055        1.41668879155885
H            4.54986398574167        2.34945329125822       -1.03764487013833

 projected vibrational frequencies (cm⁻¹)
eigval :       -0.00    -0.00     0.00     0.00     0.00     0.00
eigval :       -8.20    17.56    29.77    33.46    41.96    63.80
eigval :       71.24    87.40    98.02   102.11   115.16   139.17
eigval :      143.50   168.63   184.85   191.30   218.15   222.41
eigval :      235.61   262.17   270.36   273.24   290.91   295.79
eigval :      344.83   352.91   375.71   387.68   393.51   398.39
eigval :      421.81   423.82   433.18   435.06   437.03   462.86
eigval :      492.34   514.89   517.43   521.53   538.53   539.74
eigval :      540.34   547.31   569.94   582.48   587.22   589.90
eigval :      612.24   618.16   620.57   628.56   655.02   671.65
eigval :      673.76   678.32   693.16   708.60   710.14   724.37
eigval :      755.01   756.87   765.25   770.37   776.39   779.08
eigval :      781.91   796.50   809.56   859.36   861.89   867.30
eigval :      875.17   876.34   879.60   892.82   897.04   898.54
eigval :      902.74   904.03   905.80   907.52   915.60   917.02
eigval :      922.39   923.11   923.52   954.03   988.31  1007.45
eigval :     1011.75  1014.56  1066.93  1069.19  1072.27  1072.68
eigval :     1082.14  1088.83  1115.01  1123.58  1131.29  1135.43
eigval :     1145.84  1149.39  1172.59  1173.65  1178.68  1180.57
eigval :     1182.22  1185.68  1198.15  1222.56  1231.06  1235.11
eigval :     1237.82  1251.38  1268.85  1277.55  1293.16  1295.93
eigval :     1298.39  1299.58  1327.49  1339.52  1351.74  1353.71
eigval :     1356.06  1359.75  1361.33  1376.63  1403.41  1418.24
eigval :     1420.40  1421.86  1429.64  1441.82  1450.53  1468.54
eigval :     1469.49  1473.66  1483.38  1487.58  1534.27  1563.07
eigval :     1571.24  1573.49  1586.45  1586.91  1590.68  1591.21
eigval :     1605.89  1610.75  3076.69  3077.19  3078.19  3082.14
eigval :     3082.43  3082.81  3084.48  3084.81  3088.12  3089.99
eigval :     3090.77  3092.05  3094.84  3095.29  3095.67  3096.75
eigval :     3097.68  3100.61  3100.88  3101.74  3103.67  3119.38

   temp. (K)  partition function   enthalpy   heat capacity  entropy
                                   cal/mol     cal/K/mol   cal/K/mol   J/K/mol
 298.15  VIB  0.836E+12            16363.247    108.579     99.528
         ROT  0.384E+08              888.752      2.981     37.686
         INT  0.321E+20            17251.999    111.560    137.214
         TR   0.104E+29             1481.254      4.968     44.414
         TOT                       18733.2530   116.5278   181.6280   759.9317

       T/K    H(0)-H(T)+PV         H(T)/Eh          T*S/Eh         G(T)/Eh
   ------------------------------------------------------------------------
    298.15    0.298533E-01    0.482127E+00    0.862973E-01    0.395829E+00
   ------------------------------------------------------------------------

         :::::::::::::::::::::::::::::::::::::::::::::::::::::
         ::                  THERMODYNAMIC                  ::
         :::::::::::::::::::::::::::::::::::::::::::::::::::::
         :: total free energy         -95.313917924419 Eh   ::
         ::.................................................::
         :: total energy              -95.709747197410 Eh   ::
         :: zero point energy           0.452273274599 Eh   ::
         :: G(RRHO) w/o ZPVE           -0.056444001608 Eh   ::
         :: G(RRHO) contrib.            0.395829272991 Eh   ::
         :::::::::::::::::::::::::::::::::::::::::::::::::::::

           -------------------------------------------------
          | TOTAL ENERGY              -95.709747197410 Eh   |
          | TOTAL ENTHALPY            -95.227620583959 Eh   |
          | TOTAL FREE ENERGY         -95.313917924419 Eh   |
          | GRADIENT NORM               0.000120291968 Eh/α |
           -------------------------------------------------

 * finished run on 2025/08/30 at 21:11:20.305
