   * xtb version 6.7.1 (edcfbbe) compiled by 'albert@albert-system' on 2024-07-22

   ID    Z sym.   atoms
    1    8 O      1, 62
    2    6 C      2-5, 7-19, 21-33, 35-47, 49-61, 64-69
    3    7 N      6, 20, 34, 48, 63
    4    1 H      70-106

          program call               : xtb data2507/gas/AI-4Cz/AI-4Cz_gas_S0_finalOpt.xtbopt.xyz --gfn 2 --spinpol --tblite --uhf 2 --ohess vtight --parallel 40 --molden --ceasefiles --namespace data2507/gas/AI-4Cz/AI-4Cz_gas_T1_preOpt
 * total energy  :  -174.5211351 Eh     change       -0.4149146E-07 Eh
 * total energy  :  -174.5255116 Eh     change       -0.4376480E-02 Eh
 * total energy  :  -174.5266790 Eh     change       -0.1167378E-02 Eh
 * total energy  :  -174.5268278 Eh     change       -0.1488338E-03 Eh
 * total energy  :  -174.5269433 Eh     change       -0.1154352E-03 Eh
 * total energy  :  -174.5270026 Eh     change       -0.5932384E-04 Eh
 * total energy  :  -174.5270710 Eh     change       -0.6844872E-04 Eh
 * total energy  :  -174.5271363 Eh     change       -0.6525941E-04 Eh
 * total energy  :  -174.5271970 Eh     change       -0.6064803E-04 Eh
 * total energy  :  -174.5272558 Eh     change       -0.5882788E-04 Eh
 * total energy  :  -174.5274066 Eh     change       -0.6199801E-06 Eh
 * total energy  :  -174.5274066 Eh     change        0.5003326E-07 Eh
 * total energy  :  -174.5274068 Eh     change       -0.2705596E-06 Eh
 * total energy  :  -174.5274075 Eh     change       -0.6287763E-06 Eh
 * total energy  :  -174.5274082 Eh     change       -0.6810549E-06 Eh
 * total energy  :  -174.5274091 Eh     change       -0.9877500E-06 Eh
 * total energy  :  -174.5274099 Eh     change       -0.7568151E-06 Eh
 * total energy  :  -174.5274103 Eh     change       -0.3522636E-06 Eh
 * total energy  :  -174.5274103 Eh     change       -0.5537049E-07 Eh
   *** GEOMETRY OPTIMIZATION CONVERGED AFTER 29 ITERATIONS ***

 final structure:
================
106
 xtb: 6.7.1 (edcfbbe)
O            2.24579563200495        3.74760356606274       -0.43530827998808
C            1.12982656066066        3.29633323305589       -0.19601974219818
C            0.69531742732097        1.93121324436588       -0.08761331521601
C           -0.72259060493320        1.92102005726756        0.09135701077069
C           -1.42217075648540        0.71183182391722        0.16470458830052
N           -2.81088567701812        0.70156820730778        0.31985931374605
C           -3.50652910459594       -0.00315264794106        1.27795853281994
C           -3.03050759427086       -0.65407012373559        2.40675724569121
C           -3.94822154207674       -1.31020481349614        3.20587424013896
C           -5.30702934142283       -1.29428061478680        2.90787017433974
C           -5.79245190453027       -0.59335340823802        1.81620446858811
C           -4.89034272221194        0.06440640223066        0.99697742761973
C           -5.02427870858920        0.87972487249849       -0.18216417613234
C           -6.10926663661058        1.28966436780194       -0.93922746442286
C           -5.87705931251692        2.06856075591363       -2.05993386673890
C           -4.58367317751726        2.42180908190302       -2.43379903175617
C           -3.48565304665853        2.01759692606580       -1.69826107930501
C           -3.71579617994071        1.25961332352549       -0.55891401547184
C           -0.70646040454537       -0.48373545770638        0.07715932178456
N           -1.38074866079847       -1.71336447441567        0.14599625312718
C           -1.20042507281735       -2.69857854630055        1.09711028273053
C           -0.30082512764255       -2.75600465352577        2.15127010211955
C           -0.33633434738343       -3.86739207939576        2.97102693405730
C           -1.25738907628366       -4.89092899169937        2.76583971025452
C           -2.18188430667099       -4.82029695504560        1.74105700665251
C           -2.15978787202766       -3.71734294700508        0.90056033233670
C           -2.96486581209634       -3.31183243538302       -0.21813057912096
C           -4.05124697735677       -3.87428013855937       -0.87115378487827
C           -4.59320572531892       -3.20534160741944       -1.95263865740422
C           -4.04412008750812       -2.00858428368125       -2.40529991095040
C           -2.95765377951864       -1.43381541736383       -1.77546862192658
C           -2.44440201471505       -2.07374924757131       -0.65583839984387
C            0.71353889743154       -0.47352371202583       -0.07880550021749
N            1.40482548349582       -1.69345509880199       -0.15137429179527
C            1.23789855672714       -2.67778323218020       -1.10584253743191
C            0.33933170710098       -2.74362426902675       -2.16039452690006
C            0.38981062684535       -3.85167394385781       -2.98387632396520
C            1.32440691241466       -4.86351145408231       -2.78190795266466
C            2.24775248421353       -4.78396536930158       -1.75673556860693
C            2.21081767115318       -3.68422306533012       -0.91256525930987
C            3.01023153476203       -3.27167115784333        0.20760771879681
C            4.10408821058204       -3.82159616010041        0.85878503207595
C            4.63704018754728       -3.14897560307409        1.94246068725130
C            4.07191920600290       -1.96120206578449        2.39903869743829
C            2.97776154698467       -1.39905788522196        1.77113616760571
C            2.47314157876357       -2.04214440910094        0.64937739896763
C            1.41221879161893        0.73228871976457       -0.16279267210698
N            2.80112056804468        0.74260905461387       -0.31582749711773
C            3.50893984149527        0.05014724402669       -1.27386774003211
C            3.04490182402525       -0.60509654298391       -2.40518140434577
C            3.97378774055233       -1.24624724658536       -3.20354328472102
C            5.33154392540276       -1.21144537911064       -2.90235858821278
C            5.80435064115905       -0.50603888386439       -1.80802557514612
C            4.89101754998322        0.13689974823817       -0.98952752837098
C            5.01056127317962        0.95121615395537        0.19185458243325
C            6.08777850020667        1.37464567191416        0.95254081778000
C            5.84183135677564        2.14740768306834        2.07458761649782
C            4.54267478777952        2.48135570916690        2.44614432018067
C            3.45228244432057        2.06340164699790        1.70693881867428
C            3.69592248480573        1.31152028526045        0.56634966031556
C           -1.17637317286489        3.27974330257326        0.20159433824071
O           -2.29858190152240        3.71490623645680        0.44167091321804
N           -0.02888708894134        4.07484544862989        0.00321924158849
C           -0.03895788988023        5.47417973727909        0.00313149801024
C            1.09456736756052        6.18748960345353        0.39502326345300
C            1.07939789667571        7.56805112526748        0.38643063110799
C           -0.05867182903990        8.25813918217043        0.00190275151363
C           -1.18689949481539        7.55166264920163       -0.38190110273741
C           -1.18253857257596        6.17101582925717       -0.38921182788131
H           -1.98313168497934       -0.63893358458690        2.66433126474425
H           -3.60099306488096       -1.84055615675027        4.07965056656534
H           -5.99439496629260       -1.82171544441028        3.55193303191798
H           -6.85085345347373       -0.55648510449910        1.60872951324477
H           -7.11222073648481        1.00471365956762       -0.66027682336289
H           -6.71001915975735        2.40453381290455       -2.65926801337925
H           -4.43449806004475        3.02288082900208       -3.31830325673304
H           -2.48559518735633        2.28891171828499       -1.99968464344731
H            0.39968607098588       -1.95831718051814        2.34178420068669
H            0.36273594876255       -3.93797415507688        3.79089841665759
H           -1.25414592333082       -5.74432517878513        3.42714176122030
H           -2.91052956961833       -5.60320424296247        1.59607274129781
H           -4.46091065547303       -4.81622887580187       -0.53995303833590
H           -5.44593770251228       -3.62165392212385       -2.46738880179572
H           -4.47213376740189       -1.51886377462613       -3.26702811494860
H           -2.52502580552594       -0.51885145944016       -2.15158303936644
H           -0.37167636380499       -1.95466364175096       -2.34837332694640
H           -0.30814324364500       -3.92886182572662       -3.80410453857644
H            1.33255750857544       -5.71472248226601       -3.44598370756327
H            2.98670486198869       -5.55760547971467       -1.61417275655303
H            4.52642720597857       -4.75680657193584        0.52441313097674
H            5.49531099418919       -3.55546908157684        2.45585673537427
H            4.49326277032457       -1.46867616485240        3.26245413342063
H            2.53283889305531       -0.49128101103092        2.15032373253765
H            1.99801138365187       -0.60443477285441       -2.66519389401554
H            3.63625585560882       -1.77953546623198       -4.07933309221771
H            6.02789071128179       -1.72757959267466       -3.54593775339580
H            6.86161651087044       -0.45460393103358       -1.59784927302651
H            7.09534511943657        1.10465439944492        0.67532417980459
H            6.66848287274098        2.49364179575076        2.67681775999703
H            4.38283426855483        3.07801374582912        3.33177725482347
H            2.44773403369796        2.31965030583688        2.00664602013319
H            1.98073194159595        5.65514472850708        0.69990509296075
H            1.96217608730203        8.10932992294542        0.69367990239500
H           -0.06634178422690        9.33800773181638        0.00148025614325
H           -2.07730899146613        8.08011989484906       -0.68946895118382
H           -2.06110057088624        5.62590790664201       -0.69358257302604

 projected vibrational frequencies (cm⁻¹)
eigval :       -0.00    -0.00    -0.00     0.00     0.00     0.00
eigval :       14.06    14.25    15.20    19.49    23.08    25.65
eigval :       28.90    34.68    39.79    40.64    44.71    48.23
eigval :       61.38    62.50    77.61    95.74    97.36   106.51
eigval :      111.18   114.01   116.99   119.07   123.83   126.34
eigval :      138.51   141.36   154.87   155.09   166.19   170.71
eigval :      176.14   177.31   187.49   190.63   201.94   220.93
eigval :      242.52   260.94   262.62   269.44   271.17   272.04
eigval :      274.11   278.78   304.05   308.71   322.69   336.10
eigval :      349.13   362.39   369.36   375.54   385.79   386.15
eigval :      399.54   402.65   404.38   407.14   421.17   422.26
eigval :      425.12   425.53   433.42   434.69   437.11   439.16
eigval :      464.18   467.53   486.79   510.83   513.08   514.19
eigval :      516.52   517.02   518.81   533.49   537.36   537.41
eigval :      540.02   541.28   542.23   544.09   549.78   559.59
eigval :      582.49   582.81   584.76   586.51   587.50   590.41
eigval :      594.62   597.84   615.53   631.62   636.93   644.09
eigval :      650.51   655.14   655.65   671.14   672.28   672.39
eigval :      673.77   675.11   688.71   705.32   705.81   708.74
eigval :      709.40   717.96   730.27   751.68   753.07   754.51
eigval :      756.34   757.96   764.76   768.29   769.47   770.63
eigval :      771.42   777.79   777.95   780.85   781.70   782.23
eigval :      852.08   852.47   866.73   870.13   870.54   872.80
eigval :      872.81   874.67   874.74   878.26   878.55   881.23
eigval :      892.55   893.90   893.98   902.35   903.15   903.23
eigval :      903.71   903.87   904.57   904.87   906.35   906.82
eigval :      918.43   920.13   920.17   921.01   921.24   921.52
eigval :      922.49   922.57   924.96   925.08   962.42   997.63
eigval :      998.00  1011.51  1012.59  1015.24  1016.52  1032.96
eigval :     1066.22  1066.98  1067.42  1068.93  1069.66  1070.32
eigval :     1071.04  1072.59  1074.35  1074.51  1085.94  1113.12
eigval :     1123.69  1130.92  1137.91  1140.05  1142.22  1147.86
eigval :     1148.99  1156.51  1165.13  1175.57  1177.24  1177.45
eigval :     1178.47  1178.70  1178.78  1179.29  1179.40  1179.72
eigval :     1190.70  1192.59  1212.68  1225.86  1227.00  1228.64
eigval :     1229.72  1232.39  1235.54  1243.12  1250.90  1264.28
eigval :     1276.26  1279.40  1281.80  1288.07  1289.23  1292.30
eigval :     1292.77  1295.71  1297.63  1303.65  1317.55  1319.38
eigval :     1336.06  1337.23  1345.89  1351.73  1354.56  1355.02
eigval :     1362.06  1362.30  1364.88  1365.34  1369.07  1376.19
eigval :     1398.63  1409.81  1411.10  1415.79  1420.27  1420.92
eigval :     1421.80  1423.82  1434.46  1443.27  1451.30  1454.91
eigval :     1461.52  1461.66  1466.20  1469.04  1480.92  1482.02
eigval :     1482.32  1486.47  1486.75  1562.25  1566.78  1566.89
eigval :     1570.96  1571.45  1577.85  1578.63  1581.98  1582.82
eigval :     1583.36  1585.45  1587.04  1589.10  1589.26  1598.56
eigval :     1602.00  1602.79  1605.38  1609.62  1657.13  3075.59
eigval :     3080.35  3080.44  3080.70  3081.14  3081.21  3081.51
eigval :     3081.60  3083.54  3083.60  3084.50  3084.66  3086.63
eigval :     3086.69  3087.96  3088.33  3090.09  3090.16  3091.57
eigval :     3092.27  3092.46  3093.71  3093.80  3096.75  3096.80
eigval :     3097.49  3097.52  3098.61  3098.78  3099.60  3100.15
eigval :     3102.10  3102.77  3104.05  3104.54  3115.43  3115.80

   temp. (K)  partition function   enthalpy   heat capacity  entropy
                                   cal/mol     cal/K/mol   cal/K/mol   J/K/mol
 298.15  VIB  0.420E+24            31163.557    199.037    191.693
         ROT  0.614E+08              888.752      2.981     38.620
         INT  0.258E+32            32052.309    202.018    230.312
         TR   0.254E+29             1481.254      4.968     46.193
         TOT                       33533.5633   206.9860   276.5053  1156.8982

       T/K    H(0)-H(T)+PV         H(T)/Eh          T*S/Eh         G(T)/Eh
   ------------------------------------------------------------------------
    298.15    0.534391E-01    0.846690E+00    0.131377E+00    0.715313E+00
   ------------------------------------------------------------------------

         :::::::::::::::::::::::::::::::::::::::::::::::::::::
         ::                  THERMODYNAMIC                  ::
         :::::::::::::::::::::::::::::::::::::::::::::::::::::
         :: total free energy        -173.812097074381 Eh   ::
         ::.................................................::
         :: total energy             -174.527410318829 Eh   ::
         :: zero point energy           0.793250704905 Eh   ::
         :: G(RRHO) w/o ZPVE           -0.077937460457 Eh   ::
         :: G(RRHO) contrib.            0.715313244448 Eh   ::
         :::::::::::::::::::::::::::::::::::::::::::::::::::::

           -------------------------------------------------
          | TOTAL ENERGY             -174.527410318829 Eh   |
          | TOTAL ENTHALPY           -173.680720479336 Eh   |
          | TOTAL FREE ENERGY        -173.812097074381 Eh   |
          | GRADIENT NORM               0.000156323705 Eh/α |
           -------------------------------------------------

 * finished run on 2025/07/20 at 09:36:55.315
