   * xtb version 6.7.1 (edcfbbe) compiled by 'albert@albert-system' on 2024-07-22

   ID    Z sym.   atoms
    1    8 O      1, 62
    2    6 C      2-5, 7-19, 21-33, 35-47, 49-61, 64-69
    3    7 N      6, 20, 34, 48, 63
    4    1 H      70-106

          program call               : xtb data2507/gas/AI-4Cz/AI-4Cz.xyz --gfn 2 --ohess vtight --parallel 40 --molden --ceasefiles --namespace data2507/gas/AI-4Cz/AI-4Cz_gas_S0_preOpt
          :  Hamiltonian                  GFN2-xTB          :
 * total energy  :  -174.5444924 Eh     change       -0.4680345E-08 Eh
 * total energy  :  -174.5689443 Eh     change       -0.2445193E-01 Eh
 * total energy  :  -174.5765527 Eh     change       -0.7608424E-02 Eh
 * total energy  :  -174.5788925 Eh     change       -0.2339746E-02 Eh
 * total energy  :  -174.5806658 Eh     change       -0.1773340E-02 Eh
 * total energy  :  -174.5816600 Eh     change       -0.9941464E-03 Eh
 * total energy  :  -174.5823390 Eh     change       -0.6790707E-03 Eh
 * total energy  :  -174.5829304 Eh     change       -0.5913187E-03 Eh
 * total energy  :  -174.5835539 Eh     change       -0.6235063E-03 Eh
 * total energy  :  -174.5842637 Eh     change       -0.7098597E-03 Eh
 * total energy  :  -174.5923955 Eh     change       -0.6927574E-06 Eh
 * total energy  :  -174.5923963 Eh     change       -0.8093890E-06 Eh
 * total energy  :  -174.5923973 Eh     change       -0.9945920E-06 Eh
 * total energy  :  -174.5923984 Eh     change       -0.1107078E-05 Eh
 * total energy  :  -174.5923993 Eh     change       -0.9177443E-06 Eh
 * total energy  :  -174.5923999 Eh     change       -0.5748461E-06 Eh
 * total energy  :  -174.5924002 Eh     change       -0.3131145E-06 Eh
 * total energy  :  -174.5924004 Eh     change       -0.1619376E-06 Eh
 * total energy  :  -174.5924004 Eh     change       -0.4951843E-07 Eh
   *** GEOMETRY OPTIMIZATION CONVERGED AFTER 62 ITERATIONS ***

 final structure:
================
106
 xtb: 6.7.1 (edcfbbe)
O            2.23025302211107        3.85655009502781       -0.51872558358844
C            1.14064746928174        3.43116290875321       -0.23313962393093
C            0.69279180468820        2.02744567096721       -0.09873418448627
C           -0.69083949680602        2.02814617821431        0.09754968270558
C           -1.41895078104979        0.85051152064024        0.17626186201582
N           -2.79815008454563        0.85410495975677        0.33540946477388
C           -3.51066721792372        0.10395227608823        1.25650790589917
C           -3.05352213982089       -0.57438457986468        2.37426049338609
C           -3.98298887923066       -1.25439410888534        3.13857867491008
C           -5.33707473412583       -1.23291747568502        2.81878227150194
C           -5.80334178644777       -0.50188703406994        1.74308624046158
C           -4.88679472509389        0.18090770682563        0.95669823203185
C           -5.00832229032916        1.03507989186769       -0.19353161672523
C           -6.08942498196723        1.46221583753480       -0.95108591390561
C           -5.85288143757920        2.27538868879053       -2.04198241988215
C           -4.55767170696808        2.64650034041144       -2.39043710852926
C           -3.46558849791556        2.22873992955189       -1.65298838571000
C           -3.70149863683192        1.43789232318836       -0.54070513711582
C           -0.69756514676586       -0.36808098891734        0.07646961307138
N           -1.39120094024398       -1.57785133435758        0.13951889218076
C           -1.20220896659011       -2.59186149234526        1.06493232076465
C           -0.29089996150272       -2.68105338933241        2.10464026959158
C           -0.33105571543900       -3.80823230819746        2.90356578088437
C           -1.27079201925786       -4.81271771128424        2.69410683634952
C           -2.21128282277863       -4.70539657096147        1.68842783713916
C           -2.18303247406167       -3.58710316770521        0.86786943716747
C           -3.00467347516605       -3.14799497426301       -0.22612676074126
C           -4.10717443275128       -3.68973608114574       -0.87107166516019
C           -4.65758768353655       -2.99971291261123       -1.93350159350882
C           -4.09933081818043       -1.80527756708287       -2.37837066604894
C           -2.99617261040234       -1.25242410630923       -1.75628749265394
C           -2.48100288948651       -1.90957229521589       -0.65015803233007
C            0.69723107237233       -0.36877940058675       -0.07653037002337
N            1.38971466089631       -1.57924093625109       -0.13897422643577
C            1.19975089307745       -2.59354209581507       -1.06386927357669
C            0.28836337686654       -2.68238858677817       -2.10353814762287
C            0.32743009992796       -3.81002155978773       -2.90187709233757
C            1.26618523462153       -4.81531285421167       -2.69188600081545
C            2.20676511424902       -4.70838845338083       -1.68624805058805
C            2.17959893724652       -3.58963880935390       -0.86627526658479
C            3.00166437003962       -3.15075750980962        0.22749276936070
C            4.10363613449900       -3.69323374826638        0.87272552995575
C            4.65469527598571       -3.00320824657185        1.93481917886148
C            4.09756639223505       -1.80802333055107        2.37909343923433
C            2.99494750186794       -1.25442341538267        1.75671695254997
C            2.47917161558730       -1.91162343228451        0.65090062061525
C            1.41977985887749        0.84907883437483       -0.17689185854305
N            2.79898253237063        0.85127182741029       -0.33603837300846
C            3.51077590427189        0.09997881246744       -1.25676855441016
C            3.05297971880694       -0.57845793591140       -2.37419433792820
C            3.98178862578070       -1.25975506251694       -3.13816601939462
C            5.33589272188847       -1.23943817915071       -2.81837205779853
C            5.80286280423331       -0.50833920889234       -1.74302769741117
C            4.88697467551267        0.17573139750424       -0.95698052421663
C            5.00932453431415        1.03032967126163        0.19284547427213
C            6.09083592567568        1.45675467521098        0.95021647582626
C            5.85507637585205        2.27066324671820        2.04073381978311
C            4.56022655786582        2.64320176777803        2.38900217902230
C            3.46774405637240        2.22617264077241        1.65173171907706
C            3.70289199689114        1.43458416937456        0.53981410054459
C           -1.13736436759494        3.43234001698307        0.23137480163476
O           -2.22655888992103        3.85887001092207        0.51681834447858
N            0.00201669370993        4.20580014779441       -0.00099981945031
C            0.00270889244684        5.62180474075105       -0.00107079305539
C           -1.05766327048519        6.31308241789961       -0.57364851516015
C           -1.05371325996902        7.69589602220795       -0.56460220604264
C            0.00395019851385        8.38921240577407       -0.00099042105616
C            1.06101118753316        7.69491691613271        0.56254479594178
C            1.06372025836700        6.31210166013026        0.57151256756689
H           -2.01043078205158       -0.56851441273487        2.65145496208089
H           -3.64842635154039       -1.80831901732015        4.00285341056687
H           -6.03309048913114       -1.78042012148902        3.43639882755610
H           -6.85793214696500       -0.45640471403630        1.51834078682799
H           -7.09205042333670        1.15858341935585       -0.69135227144422
H           -6.68058643560214        2.62419973810923       -2.64129294068960
H           -4.40096607059316        3.27149684522697       -3.25724582682271
H           -2.46417631760802        2.50947488369762       -1.94603850564999
H            0.42313759436748       -1.89799292771612        2.30580805873169
H            0.37962410049789       -3.90404526136507        3.71080693876758
H           -1.27090835209403       -5.67850947457555        3.33911409905307
H           -2.95889826915747       -5.46997496343827        1.54288084678581
H           -4.52019539450016       -4.63282005387071       -0.54765932826862
H           -5.52273732901846       -3.39839494630386       -2.44141451749426
H           -4.53118516912102       -1.29872874613521       -3.22833119222708
H           -2.55653508479098       -0.34021891974578       -2.13146709532904
H           -0.42491834664434       -1.89874345866664       -2.30511198988277
H           -0.38334949567803       -3.90557359226982       -3.70906119639136
H            1.26545616678650       -5.68144528929725       -3.33643430851744
H            2.95364358532800       -5.47361200258471       -1.54030502564978
H            4.51571465090873       -4.63690607265601        0.54983464592473
H            5.51940944536529       -3.40250181709659        2.44299126899144
H            4.52988387778548       -1.30147000835102        3.22881628065805
H            2.55619943539324       -0.34159333587453        2.13141410737721
H            2.00989801734070       -0.57170049576622       -2.65140591005323
H            3.64669666191722       -1.81375607468213       -4.00218747786507
H            6.03137995899001       -1.78791694402231       -3.43571800657217
H            6.85749390543955       -0.46378569412646       -1.51828685312192
H            7.09316482110116        1.15200521248350        0.69064554096988
H            6.68311351117414        2.61891978543133        2.63990853390154
H            4.40412129229485        3.26873921903278        3.25552895915889
H            2.46660405406091        2.50801712900268        1.94464642607801
H           -1.88171778440756        5.77303144449462       -1.01201503337900
H           -1.88032103695902        8.23261668505893       -1.00540192228872
H            0.00447068775007        9.46888789952233       -0.00102630749505
H            1.88815806744866        8.23087138037670        1.00325760173282
H            1.88729409119063        5.77128685694689        1.00984062020089

          :  Hamiltonian                  GFN2-xTB          :
         :: gradient norm              0.000076537175 Eh/a0 ::
         :: HOMO-LUMO gap              1.433730912570 eV    ::
         :: SCC energy              -177.756192093872 Eh    ::
         :: -> dispersion             -0.197653703142 Eh    ::
         :: repulsion energy           3.163791658561 Eh    ::

    * Orbital Energies and Occupations

         #    Occupation            Energy/Eh            Energy/eV
      -------------------------------------------------------------
         1        2.0000           -0.7313467             -19.9010
       ...           ...                  ...                  ...
       149        2.0000           -0.4116214             -11.2008
       150        2.0000           -0.4102578             -11.1637
       151        2.0000           -0.4078754             -11.0989
       152        2.0000           -0.4074232             -11.0865
       153        2.0000           -0.3989975             -10.8573
       154        2.0000           -0.3887895             -10.5795
       155        2.0000           -0.3874342             -10.5426
       156        2.0000           -0.3820493             -10.3961
       157        2.0000           -0.3813125             -10.3760
       158        2.0000           -0.3769623             -10.2577
       159        2.0000           -0.3766658             -10.2496
       160        2.0000           -0.3735743             -10.1655
       161        2.0000           -0.3692978             -10.0491 (HOMO)
       162                         -0.3166092              -8.6154 (LUMO)
       163                         -0.2808807              -7.6432
       164                         -0.2543051              -6.9200
       165                         -0.2524850              -6.8705
       166                         -0.2487755              -6.7695
       167                         -0.2476935              -6.7401
       168                         -0.2347951              -6.3891
       169                         -0.2330686              -6.3421
       170                         -0.2330646              -6.3420
       171                         -0.2308939              -6.2829
       172                         -0.2288278              -6.2267
       ...                                ...                  ...
       313                          0.7462287              20.3059
      -------------------------------------------------------------
                  HL-Gap            0.0526886 Eh            1.4337 eV

     #   Z          covCN         q      C6AA      α(0)
     1   8 O        0.857    -0.370    21.095     6.158
     2   6 C        2.830     0.282    22.234     7.727
     3   6 C        3.039    -0.048    29.163     8.857
     4   6 C        3.039    -0.048    29.163     8.857
     5   6 C        2.906     0.064    26.573     8.453
     6   7 N        2.801    -0.032    21.854     6.943
     7   6 C        3.073     0.050    26.812     8.490
     8   6 C        2.911    -0.046    29.153     8.854
     9   6 C        2.925    -0.031    28.779     8.798
    10   6 C        2.921    -0.038    28.938     8.821
    11   6 C        2.913    -0.031    28.772     8.796
    12   6 C        3.066    -0.012    28.239     8.714
    13   6 C        3.069    -0.010    28.200     8.707
    14   6 C        2.913    -0.030    28.744     8.791
    15   6 C        2.920    -0.037    28.923     8.819
    16   6 C        2.925    -0.030    28.743     8.792
    17   6 C        2.910    -0.038    28.952     8.823
    18   6 C        3.070     0.058    26.625     8.461
    19   6 C        2.913     0.042    27.048     8.528
    20   7 N        2.802    -0.039    21.989     6.965
    21   6 C        3.069     0.050    26.801     8.489
    22   6 C        2.911    -0.048    29.188     8.859
    23   6 C        2.925    -0.031    28.781     8.798
    24   6 C        2.920    -0.038    28.937     8.821
    25   6 C        2.913    -0.031    28.765     8.795
    26   6 C        3.070    -0.013    28.270     8.718
    27   6 C        3.067    -0.013    28.277     8.720
    28   6 C        2.914    -0.031    28.765     8.795
    29   6 C        2.921    -0.037    28.929     8.820
    30   6 C        2.925    -0.031    28.772     8.797
    31   6 C        2.911    -0.047    29.159     8.855
    32   6 C        3.074     0.050    26.808     8.489
    33   6 C        2.913     0.042    27.048     8.528
    34   7 N        2.802    -0.039    21.989     6.965
    35   6 C        3.069     0.050    26.801     8.489
    36   6 C        2.911    -0.048    29.188     8.859
    37   6 C        2.925    -0.031    28.781     8.798
    38   6 C        2.920    -0.038    28.937     8.821
    39   6 C        2.913    -0.031    28.765     8.795
    40   6 C        3.070    -0.013    28.270     8.718
    41   6 C        3.067    -0.013    28.277     8.720
    42   6 C        2.914    -0.031    28.765     8.795
    43   6 C        2.921    -0.037    28.929     8.820
    44   6 C        2.925    -0.031    28.772     8.797
    45   6 C        2.911    -0.047    29.159     8.855
    46   6 C        3.074     0.050    26.808     8.489
    47   6 C        2.906     0.064    26.573     8.453
    48   7 N        2.801    -0.032    21.854     6.943
    49   6 C        3.073     0.050    26.812     8.490
    50   6 C        2.911    -0.046    29.153     8.854
    51   6 C        2.925    -0.031    28.779     8.798
    52   6 C        2.921    -0.038    28.938     8.821
    53   6 C        2.913    -0.031    28.772     8.796
    54   6 C        3.066    -0.012    28.239     8.714
    55   6 C        3.069    -0.010    28.200     8.707
    56   6 C        2.913    -0.030    28.744     8.791
    57   6 C        2.920    -0.037    28.923     8.819
    58   6 C        2.925    -0.030    28.743     8.792
    59   6 C        2.910    -0.038    28.952     8.823
    60   6 C        3.070     0.058    26.625     8.461
    61   6 C        2.830     0.282    22.234     7.727
    62   8 O        0.857    -0.370    21.095     6.158
    63   7 N        2.795    -0.109    23.379     7.181
    64   6 C        2.916     0.078    26.263     8.404
    65   6 C        2.921    -0.034    28.856     8.809
    66   6 C        2.922    -0.026    28.650     8.778
    67   6 C        2.919    -0.030    28.748     8.792
    68   6 C        2.922    -0.026    28.650     8.778
    69   6 C        2.921    -0.034    28.856     8.809
    70   1 H        0.926     0.023     2.690     2.565
    71   1 H        0.926     0.032     2.561     2.502
    72   1 H        0.926     0.033     2.548     2.496
    73   1 H        0.926     0.036     2.506     2.475
    74   1 H        0.926     0.036     2.508     2.477
    75   1 H        0.926     0.033     2.543     2.494
    76   1 H        0.926     0.033     2.543     2.494
    77   1 H        0.926     0.017     2.775     2.605
    78   1 H        0.926     0.025     2.661     2.551
    79   1 H        0.926     0.033     2.543     2.494
    80   1 H        0.926     0.033     2.540     2.492
    81   1 H        0.926     0.036     2.506     2.475
    82   1 H        0.926     0.036     2.504     2.475
    83   1 H        0.926     0.034     2.533     2.489
    84   1 H        0.926     0.033     2.539     2.492
    85   1 H        0.926     0.021     2.715     2.577
    86   1 H        0.926     0.025     2.661     2.551
    87   1 H        0.926     0.033     2.543     2.494
    88   1 H        0.926     0.033     2.540     2.492
    89   1 H        0.926     0.036     2.506     2.475
    90   1 H        0.926     0.036     2.504     2.475
    91   1 H        0.926     0.034     2.533     2.489
    92   1 H        0.926     0.033     2.539     2.492
    93   1 H        0.926     0.021     2.715     2.577
    94   1 H        0.926     0.023     2.690     2.565
    95   1 H        0.926     0.032     2.561     2.502
    96   1 H        0.926     0.033     2.548     2.496
    97   1 H        0.926     0.036     2.506     2.475
    98   1 H        0.926     0.036     2.508     2.477
    99   1 H        0.926     0.033     2.543     2.494
   100   1 H        0.926     0.033     2.543     2.494
   101   1 H        0.926     0.017     2.775     2.605
   102   1 H        0.926     0.053     2.283     2.363
   103   1 H        0.926     0.041     2.434     2.440
   104   1 H        0.926     0.039     2.467     2.456
   105   1 H        0.926     0.041     2.434     2.440
   106   1 H        0.926     0.053     2.283     2.363

molecular dipole:
                 x           y           z       tot (Debye)
 q only:       -0.001      -1.062       0.000
   full:       -0.000      -0.974       0.000       2.476

 projected vibrational frequencies (cm⁻¹)
eigval :       -0.00    -0.00     0.00     0.00     0.00     0.00
eigval :       14.44    16.28    16.31    19.85    24.13    25.58
eigval :       30.96    35.26    42.46    42.82    48.03    49.66
eigval :       64.63    65.72    73.98    96.72    99.53   107.24
eigval :      115.05   116.57   118.99   121.92   128.28   128.76
eigval :      137.69   143.93   156.75   158.44   159.76   167.85
eigval :      172.90   177.90   189.58   195.25   207.63   217.48
eigval :      243.31   258.21   262.26   263.36   275.67   275.76
eigval :      277.02   279.98   303.75   305.98   326.35   339.82
eigval :      353.79   365.60   371.09   375.82   392.97   399.59
eigval :      403.73   406.91   407.63   410.43   422.84   423.29
eigval :      424.48   426.47   437.97   438.95   442.61   445.83
eigval :      477.32   490.57   498.66   514.33   514.83   517.55
eigval :      518.91   519.39   523.57   531.46   540.88   542.15
eigval :      542.24   542.98   543.65   544.02   554.35   560.01
eigval :      584.35   585.33   587.04   589.03   590.68   594.78
eigval :      598.05   602.96   621.46   640.53   655.16   656.54
eigval :      657.85   671.28   672.07   673.90   674.45   690.14
eigval :      692.86   703.97   705.33   705.82   708.08   708.99
eigval :      720.48   726.64   730.52   752.43   754.50   756.15
eigval :      757.22   758.90   769.64   771.27   772.46   773.10
eigval :      775.29   782.90   782.92   783.58   784.03   787.98
eigval :      851.79   865.58   868.37   874.80   875.06   876.41
eigval :      876.41   878.14   878.19   880.49   880.52   892.96
eigval :      894.51   895.58   896.30   903.83   904.34   904.38
eigval :      904.94   905.15   906.01   906.21   907.85   908.09
eigval :      923.54   923.56   924.03   924.05   924.46   924.55
eigval :      924.59   926.64   926.70   930.76   965.38   993.36
eigval :      998.04  1013.38  1013.94  1016.04  1016.60  1061.95
eigval :     1069.83  1070.95  1071.34  1072.72  1073.24  1074.85
eigval :     1076.68  1076.83  1077.51  1085.04  1113.92  1120.99
eigval :     1123.23  1135.52  1147.25  1152.08  1152.19  1153.12
eigval :     1153.63  1156.28  1166.89  1177.43  1179.70  1180.37
eigval :     1180.47  1180.92  1181.03  1181.66  1182.00  1183.58
eigval :     1193.22  1200.82  1209.40  1227.81  1232.24  1234.87
eigval :     1235.25  1235.89  1237.63  1247.09  1253.79  1284.36
eigval :     1286.12  1290.99  1296.11  1296.99  1297.92  1298.37
eigval :     1299.87  1300.31  1313.75  1318.12  1321.43  1325.44
eigval :     1335.92  1359.70  1360.38  1360.66  1361.19  1361.83
eigval :     1362.15  1363.10  1364.09  1370.03  1389.87  1411.67
eigval :     1412.64  1422.31  1425.61  1427.87  1428.81  1428.91
eigval :     1429.12  1434.83  1439.03  1466.72  1472.93  1473.47
eigval :     1474.40  1474.68  1474.91  1487.26  1487.27  1487.88
eigval :     1488.25  1528.70  1563.26  1579.08  1579.25  1579.59
eigval :     1580.15  1589.31  1593.21  1593.40  1593.44  1594.15
eigval :     1595.73  1600.77  1600.99  1601.41  1601.49  1614.18
eigval :     1614.53  1615.09  1616.82  1751.10  1760.90  3069.06
eigval :     3069.08  3079.11  3079.19  3080.44  3080.46  3080.85
eigval :     3080.86  3081.58  3081.62  3081.70  3084.47  3084.59
eigval :     3085.73  3085.78  3087.69  3088.30  3088.48  3088.51
eigval :     3088.58  3092.80  3093.01  3093.38  3093.41  3096.70
eigval :     3097.20  3097.23  3097.25  3097.35  3100.10  3100.25
eigval :     3100.49  3101.13  3103.58  3104.20  3110.64  3111.41

   temp. (K)  partition function   enthalpy   heat capacity  entropy
                                   cal/mol     cal/K/mol   cal/K/mol   J/K/mol
 298.15  VIB  0.166E+24            30907.704    197.860    189.967
         ROT  0.614E+08              888.752      2.981     38.619
         INT  0.102E+32            31796.456    200.840    228.586
         TR   0.254E+29             1481.254      4.968     46.193
         TOT                       33277.7099   205.8086   274.7786  1149.6739

       T/K    H(0)-H(T)+PV         H(T)/Eh          T*S/Eh         G(T)/Eh
   ------------------------------------------------------------------------
    298.15    0.530314E-01    0.850422E+00    0.130556E+00    0.719866E+00
   ------------------------------------------------------------------------

         :::::::::::::::::::::::::::::::::::::::::::::::::::::
         ::                  THERMODYNAMIC                  ::
         :::::::::::::::::::::::::::::::::::::::::::::::::::::
         :: total free energy        -173.872534324302 Eh   ::
         ::.................................................::
         :: total energy             -174.592400435314 Eh   ::
         :: zero point energy           0.797390907016 Eh   ::
         :: G(RRHO) w/o ZPVE           -0.077524796004 Eh   ::
         :: G(RRHO) contrib.            0.719866111012 Eh   ::
         :::::::::::::::::::::::::::::::::::::::::::::::::::::

           -------------------------------------------------
          | TOTAL ENERGY             -174.592400435314 Eh   |
          | TOTAL ENTHALPY           -173.741978121963 Eh   |
          | TOTAL FREE ENERGY        -173.872534324302 Eh   |
          | GRADIENT NORM               0.000076557008 Eh/α |
          | HOMO-LUMO GAP               1.433730550961 eV   |
           -------------------------------------------------

 * finished run on 2025/07/20 at 09:29:55.342
