   * xtb version 6.7.1 (edcfbbe) compiled by 'albert@albert-system' on 2024-07-22

   ID    Z sym.   atoms
    1    8 O      1, 62
    2    6 C      2-5, 7-19, 21-33, 35-47, 49-61, 64-69
    3    7 N      6, 20, 34, 48, 63
    4    1 H      70-106

          program call               : xtb data2507/gas/AI-4Cz/AI-4Cz_gas_T1_crest.xyz --gfn 2 --spinpol --tblite --uhf 2 --ohess vtight --parallel 40 --molden --ceasefiles --namespace data2507/gas/AI-4Cz/AI-4Cz_gas_T1_finalOpt
 * total energy  :  -174.5273776 Eh     change        0.2253984E-08 Eh
 * total energy  :  -174.5273856 Eh     change       -0.8041087E-05 Eh
 * total energy  :  -174.5273904 Eh     change       -0.4766235E-05 Eh
 * total energy  :  -174.5273917 Eh     change       -0.1358951E-05 Eh
 * total energy  :  -174.5273939 Eh     change       -0.2204488E-05 Eh
 * total energy  :  -174.5273961 Eh     change       -0.2116025E-05 Eh
 * total energy  :  -174.5273981 Eh     change       -0.2070953E-05 Eh
 * total energy  :  -174.5273998 Eh     change       -0.1711253E-05 Eh
 * total energy  :  -174.5274008 Eh     change       -0.9322316E-06 Eh
 * total energy  :  -174.5274015 Eh     change       -0.7252036E-06 Eh
 * total energy  :  -174.5274095 Eh     change       -0.3140884E-06 Eh
 * total energy  :  -174.5274094 Eh     change        0.5450624E-07 Eh
 * total energy  :  -174.5274096 Eh     change       -0.1224610E-06 Eh
 * total energy  :  -174.5274100 Eh     change       -0.4181562E-06 Eh
 * total energy  :  -174.5274101 Eh     change       -0.1521915E-06 Eh
 * total energy  :  -174.5274105 Eh     change       -0.3319112E-06 Eh
 * total energy  :  -174.5274107 Eh     change       -0.2446766E-06 Eh
 * total energy  :  -174.5274109 Eh     change       -0.1698565E-06 Eh
 * total energy  :  -174.5274110 Eh     change       -0.9889902E-07 Eh
   *** GEOMETRY OPTIMIZATION CONVERGED AFTER 29 ITERATIONS ***

 final structure:
================
106
 xtb: 6.7.1 (edcfbbe)
O            2.29535879479732        3.71911762763237       -0.44393553402487
C            1.17316490417412        3.28259642815869       -0.20637726740764
C            0.72069546121555        1.92351100642418       -0.09505236903708
C           -0.69781206856923        1.93239947702355        0.08017363233028
C           -1.41359338085481        0.73295697220650        0.15707142293908
N           -2.80305549983481        0.74259482550929        0.30548170104423
C           -3.51408971838427        0.05399767665072        1.26383249145770
C           -3.05401695052726       -0.59593185347913        2.39982517316236
C           -3.98564908180250       -1.23358215320837        3.19776253693885
C           -5.34232771934637       -1.20054183651064        2.89148037339409
C           -5.81132095609206       -0.50026755782569        1.79223051510142
C           -4.89519414249704        0.13925702897369        0.97417647098501
C           -5.01073805816789        0.94903774007346       -0.21073577028355
C           -6.08541214645364        1.37068676431266       -0.97602862759915
C           -5.83567536285685        2.14040496276511       -2.09933806099943
C           -4.53523664725470        2.47269537136404       -2.46783086342149
C           -3.44728888723216        2.05617555288566       -1.72418218956414
C           -3.69484117534065        1.30795512906979       -0.58206695270053
C           -0.71318814833391       -0.47214488628077        0.07902904759373
N           -1.40142618392133       -1.69334886141327        0.15917281922807
C           -1.23009328139369       -2.66988910634971        1.12088450091566
C           -0.33256478263065       -2.72245887607697        2.17702869241355
C           -0.37857617262212       -3.82387842205730        3.00961881471299
C           -1.30769890693831       -4.84209675823271        2.81459064147801
C           -2.22986034719082       -4.77583430998051        1.78738529313231
C           -2.19750911144260       -3.68278079726883        0.93433383891524
C           -2.99810674465366       -3.28249150962573       -0.18945902847443
C           -4.08811079960904       -3.84336645922451       -0.83770669280477
C           -4.62433070451115       -3.18124086182304       -1.92620782391688
C           -4.06663911454330       -1.99261609129498       -2.38969021335826
C           -2.97641235180887       -1.41960051012529       -1.76481360424895
C           -2.46769821838648       -2.05287056197778       -0.63930013358751
C            0.70705886241581       -0.48108117164392       -0.07581527094551
N            1.38153827997352       -1.71063298396470       -0.14402698771208
C            1.19899017488632       -2.69606177136663       -1.09453986501926
C            0.29975788290888       -2.75148980447202       -2.14910000537243
C            0.33277504993503       -3.86318226120309       -2.96854257384572
C            1.25110829933870       -4.88899074939014       -2.76254641775736
C            2.17549871921390       -4.82026108617894       -1.73751388270193
C            2.15597378854966       -3.71688967940781       -0.89748338968863
C            2.96216549084616       -3.31228775501378        0.22074089741071
C            4.04743445268342       -3.87684818666728        0.87372542482626
C            4.59175433685097       -3.20815524508794        1.95417136654674
C            4.04626132962664       -2.00926066073545        2.40552826084667
C            2.96090703818860       -1.43235950375905        1.77575043703326
C            2.44481584048244       -2.07247923488692        0.65751108948378
C            1.42165878289779        0.71497365509278       -0.16509310223649
N            2.81056178178446        0.70575073881504       -0.31914037201837
C            3.50738600112751        0.00091836261514       -1.27626266501946
C            3.03257356000680       -0.65141708511476       -2.40476627983078
C            3.95147578756824       -1.30625823692176       -3.20354973662526
C            5.31024305955599       -1.28789648439327       -2.90542127052761
C            5.79433940964868       -0.58581686716161       -1.81391115248376
C            4.89105399986382        0.07087662335730       -0.99512389687891
C            5.02355620382754        0.88786646410578        0.18302480924643
C            6.10787283706326        1.30136449916737        0.93910580537556
C            5.87438663681432        2.08253251109957        2.05797785648793
C            4.58040144440544        2.43425151298538        2.43120539394212
C            3.48301067091919        2.02627092249718        1.69680405972266
C            3.71444030326772        1.26633405160531        0.55901675026344
C           -1.13436396437012        3.29719653465491        0.18462904065155
O           -2.25147389780456        3.74787901229310        0.41960850122015
N            0.02414803295131        4.07657542101900       -0.01226545942660
C            0.03287554061921        5.47589807588824       -0.01246400888306
C            1.17359434195557        6.17379899240629        0.38614590652587
C            1.17649026032713        7.55444175856691        0.37924398536012
C            0.04967748332946        8.25978998960789       -0.01077008801221
C           -1.08547203374157        7.56855533999276       -0.40184979327784
C           -1.09923202158935        6.18796941653929       -0.41050036764174
H           -2.00810061491250       -0.59379230195075        2.66368037010834
H           -3.65121063993839       -1.76256085184332        4.07734503063837
H           -6.04088657734334       -1.71380940154278        3.53495131235687
H           -6.86782661791959       -0.45005661923381        1.57797802296872
H           -7.09395148866608        1.10195353602700       -0.70115418373878
H           -6.66032974295924        2.48572029818848       -2.70481862203248
H           -4.37239681873249        3.06706462861332       -3.35445472187588
H           -2.44169849991432        2.31111629609695       -2.02151793972773
H            0.37390966923733       -1.92809508441965        2.35933029254716
H            0.31831322187617       -3.89059196990234        3.83166699009441
H           -1.31270945930614       -5.68766526437970        3.48586689155908
H           -2.96466434691198       -5.55440564846463        1.65033401602286
H           -4.50492002858157       -4.77894706094783       -0.49747295484253
H           -5.47946541596006       -3.59659782004159       -2.43773965386883
H           -4.49080547069603       -1.50809548665401       -3.25625269623151
H           -2.53776709966157       -0.51090655403021       -2.14909979271652
H           -0.39838021566128       -1.95186194008371       -2.34016773662433
H           -0.36600119577653       -3.93218671258716       -3.78879730727153
H            1.24594214365534       -5.74263253488830       -3.42352331597775
H            2.90215366737205       -5.60494094442164       -1.59210013234894
H            4.45449109493326       -4.82018124713056        0.54322944981155
H            5.44360398442195       -3.62620862550048        2.46897484049164
H            4.47625303189257       -1.51958779028438        3.26630002493562
H            2.53146064556236       -0.51550227254038        2.15087724834666
H            1.98521614895694       -0.63810662740756       -2.66252220774924
H            3.60530487071078       -1.83724548714020       -4.07736502007695
H            5.99857037794755       -1.81428218866745       -3.54931944663687
H            6.85263418535623       -0.54722448540372       -1.60618812393360
H            7.11130280766364        1.01765629972203        0.66059885751605
H            6.70682211644245        2.42169788257544        2.65624176812785
H            4.43026296321631        3.03724340007382        3.31424009618856
H            2.48249385342343        2.29634676578073        1.99782093830873
H            2.05097643280028        5.62954359852836        0.69543771890289
H            2.06459888596085        8.08381339551370        0.69181497936289
H            0.05614473686101        9.33966486508627       -0.00994992191362
H           -1.96713392906771        8.10899345080735       -0.71372140267706
H           -1.98307352009918        5.65469548961917       -0.72049780680539

 projected vibrational frequencies (cm⁻¹)
eigval :       -0.00    -0.00     0.00     0.00     0.00     0.00
eigval :       13.28    14.21    15.22    19.52    23.09    25.01
eigval :       28.60    34.14    39.07    40.61    44.71    48.15
eigval :       61.39    62.40    77.56    95.57    97.25   106.57
eigval :      111.05   113.89   116.90   118.22   123.60   126.51
eigval :      138.59   141.59   154.89   155.41   165.88   170.80
eigval :      176.11   177.24   187.55   190.38   201.79   220.93
eigval :      242.49   260.85   262.58   269.27   271.25   272.01
eigval :      274.40   278.98   304.08   307.81   322.60   336.03
eigval :      349.04   362.44   369.31   375.59   385.67   386.16
eigval :      399.53   402.74   404.35   407.18   421.25   422.14
eigval :      425.26   425.39   433.71   434.73   437.20   439.13
eigval :      464.78   467.61   486.94   510.87   513.18   514.16
eigval :      516.55   517.00   518.81   533.46   537.38   537.44
eigval :      540.15   541.33   542.14   544.05   549.75   559.70
eigval :      582.70   582.82   584.83   586.57   587.52   590.37
eigval :      594.65   598.18   615.59   631.56   636.94   644.08
eigval :      650.61   655.15   655.68   671.18   672.26   672.41
eigval :      673.79   675.16   688.62   705.29   705.76   708.62
eigval :      709.39   717.70   730.25   751.69   752.87   754.46
eigval :      756.32   757.97   764.83   768.48   769.36   770.70
eigval :      771.52   777.95   778.03   780.87   781.80   782.14
eigval :      851.70   852.45   866.71   870.19   870.59   872.91
eigval :      872.93   874.69   874.85   878.30   878.58   881.33
eigval :      892.55   893.86   894.01   902.33   903.20   903.30
eigval :      903.78   903.93   904.63   904.94   906.41   906.90
eigval :      918.48   920.25   920.29   921.27   921.32   921.62
eigval :      922.50   922.64   925.05   925.13   962.53   997.83
eigval :      997.95  1011.43  1012.54  1015.17  1016.61  1033.00
eigval :     1066.21  1067.00  1067.41  1068.84  1069.66  1070.28
eigval :     1070.97  1072.57  1074.35  1074.42  1085.86  1113.17
eigval :     1123.74  1130.88  1137.94  1140.16  1142.27  1147.78
eigval :     1149.03  1156.54  1165.03  1175.77  1177.42  1177.60
eigval :     1178.64  1178.90  1178.91  1179.50  1179.64  1179.86
eigval :     1190.86  1192.66  1212.71  1226.00  1227.10  1228.68
eigval :     1230.34  1232.42  1235.60  1243.19  1251.13  1264.15
eigval :     1276.44  1279.53  1281.84  1288.10  1289.34  1292.33
eigval :     1292.62  1295.73  1297.71  1304.13  1317.90  1319.50
eigval :     1336.11  1337.27  1346.39  1351.91  1354.57  1355.20
eigval :     1362.33  1362.44  1365.09  1365.34  1369.12  1376.39
eigval :     1398.73  1409.92  1411.19  1415.69  1420.28  1420.92
eigval :     1421.86  1423.86  1434.53  1443.31  1451.23  1455.15
eigval :     1461.43  1461.61  1466.13  1468.98  1480.76  1481.92
eigval :     1482.26  1486.58  1486.79  1562.24  1566.79  1566.87
eigval :     1570.86  1571.36  1577.82  1578.62  1581.79  1582.76
eigval :     1583.48  1585.33  1586.94  1589.04  1589.16  1598.66
eigval :     1602.37  1602.92  1605.84  1609.20  1657.05  3075.78
eigval :     3080.34  3080.47  3080.94  3081.21  3081.22  3081.55
eigval :     3081.62  3083.66  3083.68  3084.52  3084.72  3086.69
eigval :     3086.72  3087.99  3088.36  3090.23  3090.24  3091.76
eigval :     3092.29  3092.47  3093.78  3093.84  3096.79  3096.94
eigval :     3097.57  3097.62  3098.86  3099.18  3099.60  3100.24
eigval :     3102.27  3102.83  3104.22  3104.53  3115.22  3115.70

   temp. (K)  partition function   enthalpy   heat capacity  entropy
                                   cal/mol     cal/K/mol   cal/K/mol   J/K/mol
 298.15  VIB  0.479E+24            31168.897    198.990    191.791
         ROT  0.615E+08              888.752      2.981     38.620
         INT  0.294E+32            32057.649    201.971    230.411
         TR   0.254E+29             1481.254      4.968     46.193
         TOT                       33538.9032   206.9394   276.6044  1157.3127

       T/K    H(0)-H(T)+PV         H(T)/Eh          T*S/Eh         G(T)/Eh
   ------------------------------------------------------------------------
    298.15    0.534476E-01    0.846714E+00    0.131424E+00    0.715291E+00
   ------------------------------------------------------------------------

         :::::::::::::::::::::::::::::::::::::::::::::::::::::
         ::                  THERMODYNAMIC                  ::
         :::::::::::::::::::::::::::::::::::::::::::::::::::::
         :: total free energy        -173.812120221234 Eh   ::
         ::.................................................::
         :: total energy             -174.527410992520 Eh   ::
         :: zero point energy           0.793266792751 Eh   ::
         :: G(RRHO) w/o ZPVE           -0.077976021465 Eh   ::
         :: G(RRHO) contrib.            0.715290771286 Eh   ::
         :::::::::::::::::::::::::::::::::::::::::::::::::::::

           -------------------------------------------------
          | TOTAL ENERGY             -174.527410992520 Eh   |
          | TOTAL ENTHALPY           -173.680696555403 Eh   |
          | TOTAL FREE ENERGY        -173.812120221234 Eh   |
          | GRADIENT NORM               0.000090619456 Eh/α |
           -------------------------------------------------

 * finished run on 2025/07/20 at 09:48:01.390
