   * xtb version 6.7.1 (edcfbbe) compiled by 'albert@albert-system' on 2024-07-22

   ID    Z sym.   atoms
    1    8 O      1, 62
    2    6 C      2-5, 7-19, 21-33, 35-47, 49-61, 64-69
    3    7 N      6, 20, 34, 48, 63
    4    1 H      70-106

          program call               : xtb data2507/gas/AI-4Cz/AI-4Cz_gas_S0_crest.xyz --gfn 2 --ohess vtight --parallel 40 --molden --ceasefiles --namespace data2507/gas/AI-4Cz/AI-4Cz_gas_S0_finalOpt
          :  Hamiltonian                  GFN2-xTB          :
 * total energy  :  -174.5923964 Eh     change       -0.4226763E-08 Eh
 * total energy  :  -174.5923972 Eh     change       -0.7893048E-06 Eh
 * total energy  :  -174.5923977 Eh     change       -0.5866689E-06 Eh
 * total energy  :  -174.5923987 Eh     change       -0.9132215E-06 Eh
 * total energy  :  -174.5923989 Eh     change       -0.2668567E-06 Eh
 * total energy  :  -174.5923994 Eh     change       -0.4773373E-06 Eh
 * total energy  :  -174.5923998 Eh     change       -0.3801462E-06 Eh
 * total energy  :  -174.5923999 Eh     change       -0.1469864E-06 Eh
 * total energy  :  -174.5924000 Eh     change       -0.1096309E-06 Eh
 * total energy  :  -174.5924001 Eh     change       -0.9533528E-07 Eh
   *** GEOMETRY OPTIMIZATION CONVERGED AFTER 10 ITERATIONS ***

 final structure:
================
106
 xtb: 6.7.1 (edcfbbe)
O            2.20004661064878        3.75729960934520       -0.52591336045448
C            1.11460632238386        3.32382424143803       -0.23666314463761
C            0.67786743388611        1.91679022995188       -0.10008259849403
C           -0.70502346007931        1.90697978150112        0.10090541394395
C           -1.42371717395203        0.72371164281602        0.18196292137825
N           -2.80218798996466        0.71662092039489        0.34718139466239
C           -3.50489509164638       -0.04041653518341        1.27023726915971
C           -3.03767869914094       -0.71763315405928        2.38450289181403
C           -3.95850207599799       -1.40662404129875        3.15125810056607
C           -5.31411832333637       -1.39477574530934        2.83753971999370
C           -5.79074655451465       -0.66458849338347        1.76581617903085
C           -4.88292330170424        0.02689129161274        0.97691139554157
C           -5.01611399158938        0.88244175113993       -0.17099326683427
C           -6.10395508515151        1.30327427584285       -0.92239592783675
C           -5.87858142237251        2.12016248282483       -2.01287116979480
C           -4.58774406555663        2.50088630708076       -2.36711595851289
C           -3.48909962686057        2.08949439437176       -1.63586628701385
C           -3.71390940943631        1.29524381232116       -0.52370291778685
C           -0.69342493132581       -0.48925345387630        0.07780682153145
N           -1.37795357653545       -1.70421066383235        0.14109704074661
C           -1.17900229496328       -2.71829025204459        1.06441707216890
C           -0.26251046527197       -2.80366922922950        2.09988060284963
C           -0.29287460431180       -3.93193216328761        2.89772552615908
C           -1.22805322804739       -4.94130939229022        2.69146008008722
C           -2.17360414013325       -4.83807138692033        1.69011363630711
C           -2.15513704981686       -3.71878459914817        0.87064199036531
C           -2.98425020145895       -3.28305257804512       -0.21905119563085
C           -4.08679480416713       -3.83014391655001       -0.85938198394282
C           -4.64603821036760       -3.14196087591634       -1.91838365384559
C           -4.09640827491796       -1.94401683555096       -2.36456310212652
C           -2.99338189853448       -1.38579355129827       -1.74705706022259
C           -2.46945315404873       -2.04126245576176       -0.64404194578398
C            0.70086555154138       -0.47932405499668       -0.07973337377691
N            1.40191658447657       -1.68460935600603       -0.14710927507887
C            1.21676621975019       -2.69727813312231       -1.07481617639653
C            0.30177132009198       -2.79033091597265       -2.11093972167307
C            0.34727336498332       -3.91470596930073       -2.91355559021884
C            1.29569201635519       -4.91246834712368       -2.71127218784634
C            2.23965169807947       -4.80089702150559       -1.70930187986882
C            2.20620963574148       -3.68541313519813       -0.88512839751686
C            3.02930539432308       -3.24314441272530        0.20650115086083
C            4.13950321588811       -3.77765385082654        0.84421209062312
C            4.68956593870733       -3.08625095776782        1.90592364464783
C            4.12353464526207       -1.89797497975043        2.35741105778655
C            3.01272371502616       -1.35240352455093        1.74256745154641
C            2.49772988966571       -2.01024774102588        0.63676259455070
C            1.41381794533743        0.74414000841005       -0.18052417500042
N            2.79284874576801        0.75829088832685       -0.34059970250760
C            3.51192898847332        0.01315634896227       -1.26064714630551
C            3.06116648779167       -0.66958722533741       -2.37832079919796
C            3.99650612587902       -1.34393867469325       -3.14050644475749
C            5.34999662148894       -1.31235715657387       -2.81902645955456
C            5.80962549651918       -0.57646136128939       -1.74379687463362
C            4.88714121049123        0.10053186069437       -0.95937058199277
C            5.00111974487499        0.95608680855337        0.19058809211027
C            6.07819465340041        1.39134483301855        0.94926617376917
C            5.83440333136430        2.20246714752638        2.04009931112320
C            4.53604841209366        2.56353940091743        2.38738009432134
C            3.44793497683191        2.13768881126239        1.64867913445168
C            3.69094234895204        1.34898886777067        0.53639894263469
C           -1.16165148583428        3.30780348863968        0.23603535556936
O           -2.25269396352845        3.72633792041356        0.52622921521522
N           -0.02924576622585        4.08980928223444       -0.00181696454038
C           -0.04007077445843        5.50576153069993       -0.00500830581743
C            1.01689836450055        6.20609929465686        0.56278097301460
C            1.00291247259525        7.58883073534414        0.55021200981956
C           -0.06144051612868        8.27304770675999       -0.01191932922235
C           -1.11506481303776        7.56971139710772       -0.57066892460791
C           -1.10765887930450        6.18690476488667       -0.57633708884111
H           -1.99347268380492       -0.70440615640413        2.65719961409380
H           -3.61580819481851       -1.96012516212290        4.01261799014542
H           -6.00316602433610       -1.94908795104592        3.45689230217307
H           -6.84665804838843       -0.62641994801433        1.54597505053921
H           -7.10308919197923        0.99201097558843       -0.65828305905788
H           -6.71167833757600        2.46428994050123       -2.60739727825838
H           -4.43971514580934        3.12844451029944       -3.23359848497968
H           -2.49116983128260        2.37762355579260       -1.93356428727828
H            0.44807818168911       -2.01693631199267        2.29882427963617
H            0.42204051476433       -4.02475392152097        3.70156828089713
H           -1.22047939374822       -5.80779992521718        3.33547020324807
H           -2.91772030864507       -5.60652795153444        1.54712004748103
H           -4.49308385181059       -4.77584556257175       -0.53508830291138
H           -5.51142000138493       -3.54474936737876       -2.42264349901289
H           -4.53510151024577       -1.43885347893396       -3.21184045914748
H           -2.56059024231717       -0.47072253421806       -2.12322232271641
H           -0.41905551695683       -2.01216877687404       -2.30677720625701
H           -0.36609663370509       -4.01353705461403       -3.71805635518375
H            1.29966290955880       -5.77630574572030       -3.35886993067463
H            2.99378326240302       -5.56008361411987       -1.56929403081453
H            4.55884407968014       -4.71616634058467        0.51567619228148
H            5.56072557846966       -3.47910840037816        2.40806580483415
H            4.55541324509822       -1.39046248749542        3.20678274215103
H            2.56744841732932       -0.44498391661492        2.12269617393598
H            2.01841515856748       -0.67170024700825       -2.65685007954980
H            3.66703055961557       -1.90149743724039       -4.00440278324216
H            6.05071414355927       -1.85571233111695       -3.43498607468083
H            6.86357184830444       -0.52296991654576       -1.51779993358364
H            7.08335282984726        1.09535440562704        0.69051208280147
H            6.65882117870386        2.55737435838007        2.64036206666090
H            4.37363690774032        3.18692420815656        3.25430057762106
H            2.44413602434898        2.41066571744322        1.94092906894894
H            1.84609881195352        5.67308999197045        1.00006397847571
H            1.82676633135309        8.13265144152718        0.98744836855133
H           -0.06979995083963        9.35268721743312       -0.01456692554313
H           -1.94719292846063        8.09855325210808       -1.01060549373051
H           -1.92845664572719        5.63901759246609       -1.01110056173034

          :  Hamiltonian                  GFN2-xTB          :
         :: gradient norm              0.000055443470 Eh/a0 ::
         :: HOMO-LUMO gap              1.434528264918 eV    ::
         :: SCC energy              -177.756150073264 Eh    ::
         :: -> dispersion             -0.197724615650 Eh    ::
         :: repulsion energy           3.163749939483 Eh    ::

    * Orbital Energies and Occupations

         #    Occupation            Energy/Eh            Energy/eV
      -------------------------------------------------------------
         1        2.0000           -0.7313293             -19.9005
       ...           ...                  ...                  ...
       149        2.0000           -0.4116133             -11.2006
       150        2.0000           -0.4102595             -11.1637
       151        2.0000           -0.4078813             -11.0990
       152        2.0000           -0.4074297             -11.0867
       153        2.0000           -0.3989992             -10.8573
       154        2.0000           -0.3887936             -10.5796
       155        2.0000           -0.3874542             -10.5432
       156        2.0000           -0.3820365             -10.3957
       157        2.0000           -0.3813010             -10.3757
       158        2.0000           -0.3769708             -10.2579
       159        2.0000           -0.3766772             -10.2499
       160        2.0000           -0.3735775             -10.1656
       161        2.0000           -0.3693015             -10.0492 (HOMO)
       162                         -0.3165835              -8.6147 (LUMO)
       163                         -0.2808627              -7.6427
       164                         -0.2543092              -6.9201
       165                         -0.2524857              -6.8705
       166                         -0.2487833              -6.7697
       167                         -0.2476962              -6.7402
       168                         -0.2347962              -6.3891
       169                         -0.2330663              -6.3421
       170                         -0.2330509              -6.3416
       171                         -0.2309183              -6.2836
       172                         -0.2288302              -6.2268
       ...                                ...                  ...
       313                          0.7462279              20.3059
      -------------------------------------------------------------
                  HL-Gap            0.0527180 Eh            1.4345 eV

     #   Z          covCN         q      C6AA      α(0)
     1   8 O        0.857    -0.370    21.096     6.158
     2   6 C        2.830     0.282    22.234     7.727
     3   6 C        3.039    -0.048    29.162     8.857
     4   6 C        3.039    -0.048    29.163     8.858
     5   6 C        2.906     0.064    26.574     8.453
     6   7 N        2.801    -0.032    21.854     6.943
     7   6 C        3.073     0.050    26.812     8.490
     8   6 C        2.911    -0.046    29.153     8.854
     9   6 C        2.925    -0.031    28.779     8.798
    10   6 C        2.921    -0.038    28.937     8.821
    11   6 C        2.913    -0.031    28.772     8.796
    12   6 C        3.066    -0.012    28.238     8.714
    13   6 C        3.069    -0.010    28.200     8.707
    14   6 C        2.913    -0.030    28.744     8.791
    15   6 C        2.920    -0.037    28.923     8.819
    16   6 C        2.925    -0.030    28.743     8.792
    17   6 C        2.910    -0.038    28.951     8.823
    18   6 C        3.070     0.058    26.625     8.461
    19   6 C        2.913     0.042    27.048     8.528
    20   7 N        2.802    -0.039    21.989     6.965
    21   6 C        3.069     0.050    26.801     8.489
    22   6 C        2.911    -0.048    29.188     8.859
    23   6 C        2.925    -0.031    28.781     8.798
    24   6 C        2.920    -0.038    28.937     8.821
    25   6 C        2.913    -0.031    28.765     8.795
    26   6 C        3.070    -0.013    28.270     8.718
    27   6 C        3.067    -0.013    28.277     8.720
    28   6 C        2.914    -0.031    28.765     8.795
    29   6 C        2.921    -0.037    28.929     8.820
    30   6 C        2.925    -0.031    28.772     8.797
    31   6 C        2.911    -0.047    29.159     8.855
    32   6 C        3.074     0.050    26.808     8.489
    33   6 C        2.913     0.042    27.048     8.528
    34   7 N        2.802    -0.039    21.990     6.965
    35   6 C        3.069     0.050    26.801     8.489
    36   6 C        2.911    -0.048    29.189     8.859
    37   6 C        2.925    -0.031    28.781     8.798
    38   6 C        2.920    -0.038    28.937     8.821
    39   6 C        2.913    -0.031    28.765     8.795
    40   6 C        3.070    -0.013    28.269     8.718
    41   6 C        3.067    -0.013    28.277     8.720
    42   6 C        2.914    -0.031    28.765     8.795
    43   6 C        2.921    -0.037    28.929     8.820
    44   6 C        2.925    -0.031    28.772     8.796
    45   6 C        2.911    -0.047    29.159     8.855
    46   6 C        3.074     0.050    26.807     8.489
    47   6 C        2.906     0.064    26.574     8.453
    48   7 N        2.801    -0.032    21.854     6.943
    49   6 C        3.073     0.050    26.811     8.490
    50   6 C        2.911    -0.046    29.152     8.854
    51   6 C        2.925    -0.031    28.779     8.798
    52   6 C        2.921    -0.038    28.938     8.821
    53   6 C        2.913    -0.031    28.772     8.796
    54   6 C        3.066    -0.012    28.238     8.714
    55   6 C        3.069    -0.010    28.199     8.707
    56   6 C        2.913    -0.030    28.743     8.791
    57   6 C        2.920    -0.037    28.923     8.819
    58   6 C        2.925    -0.030    28.744     8.792
    59   6 C        2.910    -0.038    28.954     8.823
    60   6 C        3.071     0.058    26.625     8.461
    61   6 C        2.830     0.282    22.234     7.727
    62   8 O        0.857    -0.370    21.095     6.158
    63   7 N        2.795    -0.109    23.379     7.181
    64   6 C        2.916     0.078    26.263     8.404
    65   6 C        2.921    -0.034    28.855     8.809
    66   6 C        2.922    -0.026    28.650     8.778
    67   6 C        2.919    -0.030    28.748     8.792
    68   6 C        2.922    -0.026    28.650     8.778
    69   6 C        2.921    -0.034    28.855     8.809
    70   1 H        0.926     0.023     2.690     2.565
    71   1 H        0.926     0.032     2.561     2.502
    72   1 H        0.926     0.033     2.548     2.496
    73   1 H        0.926     0.036     2.506     2.475
    74   1 H        0.926     0.036     2.508     2.477
    75   1 H        0.926     0.033     2.543     2.494
    76   1 H        0.926     0.033     2.543     2.494
    77   1 H        0.926     0.017     2.775     2.605
    78   1 H        0.926     0.025     2.660     2.550
    79   1 H        0.926     0.033     2.543     2.494
    80   1 H        0.926     0.033     2.540     2.492
    81   1 H        0.926     0.036     2.506     2.475
    82   1 H        0.926     0.036     2.504     2.475
    83   1 H        0.926     0.034     2.533     2.489
    84   1 H        0.926     0.033     2.539     2.492
    85   1 H        0.926     0.021     2.716     2.577
    86   1 H        0.926     0.025     2.660     2.551
    87   1 H        0.926     0.033     2.543     2.494
    88   1 H        0.926     0.033     2.540     2.492
    89   1 H        0.926     0.036     2.506     2.475
    90   1 H        0.926     0.036     2.504     2.475
    91   1 H        0.926     0.034     2.533     2.489
    92   1 H        0.926     0.033     2.539     2.492
    93   1 H        0.926     0.021     2.716     2.577
    94   1 H        0.926     0.023     2.690     2.565
    95   1 H        0.926     0.032     2.561     2.502
    96   1 H        0.926     0.033     2.548     2.496
    97   1 H        0.926     0.036     2.506     2.475
    98   1 H        0.926     0.036     2.508     2.476
    99   1 H        0.926     0.033     2.543     2.494
   100   1 H        0.926     0.033     2.543     2.494
   101   1 H        0.926     0.017     2.776     2.606
   102   1 H        0.926     0.053     2.282     2.362
   103   1 H        0.926     0.041     2.434     2.440
   104   1 H        0.926     0.039     2.467     2.456
   105   1 H        0.926     0.041     2.434     2.440
   106   1 H        0.926     0.053     2.284     2.363

molecular dipole:
                 x           y           z       tot (Debye)
 q only:        0.006      -1.062      -0.002
   full:        0.006      -0.974      -0.002       2.477

 projected vibrational frequencies (cm⁻¹)
eigval :       -0.00    -0.00     0.00     0.00     0.00     0.00
eigval :       14.56    16.31    16.47    20.48    24.57    25.63
eigval :       31.09    34.58    42.49    42.87    48.06    49.69
eigval :       64.56    65.76    73.11    96.78    99.38   107.21
eigval :      115.04   116.66   118.92   121.95   128.33   128.80
eigval :      137.42   143.90   157.14   158.39   159.83   167.90
eigval :      172.93   177.91   189.56   195.45   207.74   217.56
eigval :      243.31   257.77   262.25   263.36   275.74   275.83
eigval :      277.06   280.00   303.69   306.09   326.42   339.86
eigval :      353.86   365.57   371.18   375.82   393.11   399.62
eigval :      403.76   406.92   407.64   410.49   422.84   423.29
eigval :      424.50   426.48   437.99   438.97   442.67   445.87
eigval :      477.34   490.54   498.67   514.34   514.85   517.55
eigval :      518.91   519.39   523.58   531.49   540.91   542.17
eigval :      542.25   542.99   543.67   544.03   554.36   560.03
eigval :      584.36   585.32   587.11   589.04   590.68   594.78
eigval :      598.04   602.99   621.43   640.50   655.06   656.54
eigval :      657.61   671.28   672.06   673.91   674.46   690.11
eigval :      692.86   703.96   705.34   705.83   708.09   709.00
eigval :      720.50   726.62   730.49   752.36   754.51   756.09
eigval :      757.22   758.90   769.64   771.29   772.46   773.09
eigval :      775.21   782.92   782.94   783.57   784.02   787.97
eigval :      851.77   865.57   868.39   874.81   875.08   876.35
eigval :      876.38   878.15   878.22   880.50   880.54   892.95
eigval :      894.49   895.57   896.28   903.83   904.36   904.40
eigval :      904.91   905.14   906.01   906.22   907.87   908.10
eigval :      923.54   923.58   924.07   924.08   924.42   924.51
eigval :      924.60   926.67   926.74   930.75   965.37   993.36
eigval :      998.04  1013.37  1013.94  1016.03  1016.60  1061.93
eigval :     1069.83  1070.96  1071.34  1072.72  1073.24  1074.88
eigval :     1076.70  1076.85  1077.52  1085.03  1113.96  1120.99
eigval :     1123.22  1135.54  1147.25  1152.10  1152.21  1153.12
eigval :     1153.62  1156.26  1166.86  1177.43  1179.69  1180.36
eigval :     1180.46  1180.91  1181.03  1181.65  1182.00  1183.60
eigval :     1193.22  1200.80  1209.40  1227.81  1232.23  1234.86
eigval :     1235.24  1235.88  1237.62  1247.09  1253.77  1284.41
eigval :     1286.06  1290.97  1296.08  1296.97  1297.87  1298.36
eigval :     1299.86  1300.31  1313.71  1318.08  1321.43  1325.48
eigval :     1335.90  1359.70  1360.38  1360.66  1361.18  1361.81
eigval :     1362.14  1363.09  1364.07  1369.97  1389.86  1411.65
eigval :     1412.64  1422.28  1425.56  1427.86  1428.80  1428.90
eigval :     1429.11  1434.80  1439.03  1466.65  1472.92  1473.45
eigval :     1474.41  1474.67  1474.89  1487.25  1487.27  1487.87
eigval :     1488.24  1528.63  1563.28  1579.09  1579.26  1579.59
eigval :     1580.15  1589.58  1593.20  1593.39  1593.43  1594.14
eigval :     1595.73  1600.76  1600.98  1601.40  1601.48  1614.18
eigval :     1614.53  1615.09  1616.81  1751.11  1760.90  3068.98
eigval :     3069.09  3079.05  3079.14  3080.43  3080.46  3080.84
eigval :     3080.85  3081.63  3081.66  3081.70  3084.47  3084.58
eigval :     3085.73  3085.79  3087.67  3088.36  3088.49  3088.53
eigval :     3088.62  3092.80  3093.01  3093.38  3093.42  3096.69
eigval :     3097.23  3097.27  3097.29  3097.42  3100.10  3100.25
eigval :     3100.51  3101.15  3103.73  3104.34  3110.56  3111.35

   temp. (K)  partition function   enthalpy   heat capacity  entropy
                                   cal/mol     cal/K/mol   cal/K/mol   J/K/mol
 298.15  VIB  0.158E+24            30906.622    197.853    189.921
         ROT  0.614E+08              888.752      2.981     38.619
         INT  0.969E+31            31795.375    200.833    228.540
         TR   0.254E+29             1481.254      4.968     46.193
         TOT                       33276.6284   205.8016   274.7332  1149.4839

       T/K    H(0)-H(T)+PV         H(T)/Eh          T*S/Eh         G(T)/Eh
   ------------------------------------------------------------------------
    298.15    0.530297E-01    0.850422E+00    0.130535E+00    0.719888E+00
   ------------------------------------------------------------------------

         :::::::::::::::::::::::::::::::::::::::::::::::::::::
         ::                  THERMODYNAMIC                  ::
         :::::::::::::::::::::::::::::::::::::::::::::::::::::
         :: total free energy        -173.872512562664 Eh   ::
         ::.................................................::
         :: total energy             -174.592400133778 Eh   ::
         :: zero point energy           0.797392514133 Eh   ::
         :: G(RRHO) w/o ZPVE           -0.077504943019 Eh   ::
         :: G(RRHO) contrib.            0.719887571114 Eh   ::
         :::::::::::::::::::::::::::::::::::::::::::::::::::::

           -------------------------------------------------
          | TOTAL ENERGY             -174.592400133778 Eh   |
          | TOTAL ENTHALPY           -173.741977936727 Eh   |
          | TOTAL FREE ENERGY        -173.872512562664 Eh   |
          | GRADIENT NORM               0.000055359390 Eh/α |
          | HOMO-LUMO GAP               1.434530030835 eV   |
           -------------------------------------------------

 * finished run on 2025/07/20 at 09:36:32.464
