   * xtb version 6.7.1 (edcfbbe) compiled by 'albert@albert-system' on 2024-07-22

   ID    Z sym.   atoms
    1    6 C      1-4, 6-9, 11-25, 27-30, 32
    2    7 N      5, 10, 26, 31
    3    1 H      33-50

          program call               : xtb data2507/toluene/CzCbPy/CzCbPy.xyz --gfn 2 --gbsa toluene --ohess vtight --parallel 40 --molden --ceasefiles --namespace data2507/toluene/CzCbPy/CzCbPy_toluene_S0_preOpt
      * Solvation model:               GBSA
        Solvent                        toluene
        Solvent mass                       9.2140E+01 g/mol
          :  Hamiltonian                  GFN2-xTB          :
 * total energy  :   -80.9112804 Eh     change       -0.2759919E-08 Eh
 * total energy  :   -80.9242167 Eh     change       -0.1293633E-01 Eh
 * total energy  :   -80.9270064 Eh     change       -0.2789683E-02 Eh
 * total energy  :   -80.9274108 Eh     change       -0.4043955E-03 Eh
 * total energy  :   -80.9277026 Eh     change       -0.2917884E-03 Eh
 * total energy  :   -80.9277989 Eh     change       -0.9624227E-04 Eh
 * total energy  :   -80.9278850 Eh     change       -0.8615935E-04 Eh
 * total energy  :   -80.9279501 Eh     change       -0.6508665E-04 Eh
 * total energy  :   -80.9280052 Eh     change       -0.5509735E-04 Eh
 * total energy  :   -80.9280691 Eh     change       -0.6389440E-04 Eh
 * total energy  :   -80.9285196 Eh     change       -0.7419670E-06 Eh
 * total energy  :   -80.9285202 Eh     change       -0.6574856E-06 Eh
 * total energy  :   -80.9285208 Eh     change       -0.6054736E-06 Eh
 * total energy  :   -80.9285214 Eh     change       -0.5761328E-06 Eh
 * total energy  :   -80.9285220 Eh     change       -0.5489412E-06 Eh
 * total energy  :   -80.9285224 Eh     change       -0.4904258E-06 Eh
 * total energy  :   -80.9285229 Eh     change       -0.4156422E-06 Eh
 * total energy  :   -80.9285232 Eh     change       -0.3570833E-06 Eh
 * total energy  :   -80.9285232 Eh     change       -0.4992941E-08 Eh
   *** GEOMETRY OPTIMIZATION CONVERGED AFTER 44 ITERATIONS ***

 final structure:
================
50
 xtb: 6.7.1 (edcfbbe)
C            5.96411154640455        2.62157035811490       -1.15007062797396
C            6.18764936361534        1.85561653932672       -0.01356159369602
C            5.22995553229884        0.94132417791590        0.38360584240908
C            4.07378711252113        0.81754909803751       -0.39183228669501
N            3.07501730286615       -0.09366890774065       -0.05025324160556
C            1.70849186339069        0.13244869111634       -0.15553759504922
C            1.02983298806481        1.24676728963927       -0.62681994777206
C           -0.34953517004973        1.22841252099094       -0.59179515252566
C           -1.05784931667766        0.13182345904890       -0.08121475722979
N           -2.46193108306582        0.16582099845648       -0.06407992968141
C           -3.29941488641536       -0.80733614134359       -0.57174937939605
C           -2.98587738754180       -1.98699908628737       -1.23259433417165
C           -4.03041419290133       -2.78092843317124       -1.66620523954862
C           -5.35894734640565       -2.41488467169463       -1.45694668703525
C           -5.67731577584531       -1.23290009865158       -0.81837828419509
C           -4.64442466758433       -0.41647521295295       -0.37478743098627
C           -4.60611122414738        0.85532545872608        0.29150908559406
C           -5.58751417123032        1.72209499217519        0.75581330592977
C           -5.19795899054923        2.88504896649131        1.39008194346188
C           -3.84903400192744        3.18208626635932        1.57623672564116
C           -2.85466252902824        2.33700746301847        1.12174237818599
C           -3.23937592584039        1.17725344766380        0.46289554087524
C           -0.38374712739364       -0.98056494473900        0.40016515678890
C            1.00312255658152       -0.97967358635371        0.35362872494360
C            1.99295379444712       -1.93980408022053        0.75442824350345
N            1.83298729242497       -3.15399914863846        1.26000625052547
C            2.93416727952161       -3.84419034398026        1.49551234333732
C            4.21921507827520       -3.38274905163436        1.21617484996602
C            4.40222850718083       -2.11392120446702        0.68943241203456
C            3.25945882618882       -1.35612783859026        0.47921813981829
N            3.84922521471667        1.56704239586637       -1.46438382857974
C            4.76901778991578        2.44406719699649       -1.82704505761362
H            6.68894672574179        3.34337813676498       -1.48988697751339
H            7.09160924094126        1.97900647853686        0.56456775513389
H            5.35173876730398        0.36236944302025        1.28474862218858
H            1.56621538265711        2.09055542366029       -1.02846518143230
H           -0.90444633385314        2.07044431127813       -0.97678423606233
H           -1.96013466074071       -2.27396344335653       -1.40877421016586
H           -3.81212170254430       -3.70580929828611       -2.18026148282745
H           -6.14738973942042       -3.06491389813792       -1.80750606389810
H           -6.70672321967080       -0.94312076897380       -0.66819764150386
H           -6.63293106345809        1.48494932168507        0.62528085017875
H           -5.94576805445190        3.57296455210294        1.75699414146271
H           -3.57484878986626        4.09232190545340        2.08978296540478
H           -1.81267198651088        2.56841915124975        1.28381272196323
H           -0.91453597469481       -1.82423350029478        0.81130430727055
H            2.78163230174950       -4.82954837143575        1.91517584937786
H            5.06940799309551       -4.01993365463750        1.40294322868937
H            5.38942113788998       -1.75549273054789        0.43883501607312
H            4.52549272402595        3.02557237243760       -2.70676323359540

          :  Hamiltonian                  GFN2-xTB          :
         :: gradient norm              0.000051711701 Eh/a0 ::
         :: HOMO-LUMO gap              2.377378442401 eV    ::
         :: SCC energy               -82.392485488179 Eh    ::
         :: -> dispersion             -0.067481390892 Eh    ::
         :: -> Gsolv                  -0.034202700629 Eh    ::
         :: repulsion energy           1.463962266941 Eh    ::

    * Orbital Energies and Occupations

         #    Occupation            Energy/Eh            Energy/eV
      -------------------------------------------------------------
         1        2.0000           -0.6935080             -18.8713
       ...           ...                  ...                  ...
        63        2.0000           -0.4318936             -11.7524
        64        2.0000           -0.4304851             -11.7141
        65        2.0000           -0.4235442             -11.5252
        66        2.0000           -0.4192661             -11.4088
        67        2.0000           -0.4159740             -11.3192
        68        2.0000           -0.4148796             -11.2894
        69        2.0000           -0.4023186             -10.9476
        70        2.0000           -0.3987290             -10.8500
        71        2.0000           -0.3896097             -10.6018
        72        2.0000           -0.3816674             -10.3857
        73        2.0000           -0.3756226             -10.2212
        74        2.0000           -0.3753141             -10.2128
        75        2.0000           -0.3583957              -9.7524 (HOMO)
        76                         -0.2710287              -7.3751 (LUMO)
        77                         -0.2626221              -7.1463
        78                         -0.2542667              -6.9189
        79                         -0.2447175              -6.6591
        80                         -0.2397328              -6.5235
        81                         -0.2190021              -5.9594
        82                         -0.2124243              -5.7804
        83                         -0.2046817              -5.5697
        84                         -0.1849533              -5.0328
        85                         -0.1831129              -4.9828
        86                         -0.1281100              -3.4861
       ...                                ...                  ...
       146                          0.7474730              20.3398
      -------------------------------------------------------------
                  HL-Gap            0.0873670 Eh            2.3774 eV

     #   Z          covCN         q      C6AA      α(0)
     1   6 C        2.913    -0.045    29.116     8.848
     2   6 C        2.929    -0.010    28.274     8.720
     3   6 C        2.916    -0.058    29.439     8.897
     4   6 C        2.900     0.150    24.737     8.155
     5   7 N        2.800    -0.046    22.121     6.985
     6   6 C        3.075     0.051    26.789     8.486
     7   6 C        2.909    -0.045    29.107     8.847
     8   6 C        2.927    -0.042    29.052     8.839
     9   6 C        2.913     0.058    26.699     8.473
    10   7 N        2.802    -0.044    22.084     6.980
    11   6 C        3.076     0.047    26.873     8.499
    12   6 C        2.909    -0.051    29.277     8.872
    13   6 C        2.924    -0.035    28.864     8.810
    14   6 C        2.920    -0.043    29.065     8.841
    15   6 C        2.912    -0.035    28.871     8.811
    16   6 C        3.067    -0.019    28.402     8.739
    17   6 C        3.067    -0.018    28.399     8.738
    18   6 C        2.912    -0.035    28.869     8.811
    19   6 C        2.919    -0.043    29.072     8.842
    20   6 C        2.924    -0.035    28.879     8.813
    21   6 C        2.909    -0.052    29.302     8.876
    22   6 C        3.076     0.046    26.881     8.501
    23   6 C        2.915    -0.042    29.032     8.835
    24   6 C        3.061    -0.021    28.468     8.750
    25   6 C        3.071     0.076    26.241     8.399
    26   7 N        1.832    -0.248    27.307     7.744
    27   6 C        2.922     0.051    26.857     8.498
    28   6 C        2.920    -0.046    29.143     8.853
    29   6 C        2.915    -0.036    28.898     8.815
    30   6 C        3.065     0.037    27.098     8.536
    31   7 N        1.844    -0.251    27.387     7.756
    32   6 C        2.907     0.061    26.623     8.461
    33   1 H        0.926     0.050     2.315     2.380
    34   1 H        0.926     0.052     2.301     2.372
    35   1 H        0.926     0.048     2.344     2.394
    36   1 H        0.926     0.059     2.215     2.327
    37   1 H        0.926     0.053     2.284     2.363
    38   1 H        0.926     0.030     2.592     2.517
    39   1 H        0.926     0.030     2.586     2.515
    40   1 H        0.926     0.028     2.617     2.530
    41   1 H        0.926     0.030     2.581     2.512
    42   1 H        0.926     0.030     2.583     2.513
    43   1 H        0.926     0.028     2.622     2.532
    44   1 H        0.926     0.030     2.592     2.518
    45   1 H        0.926     0.029     2.598     2.521
    46   1 H        0.926     0.056     2.241     2.341
    47   1 H        0.925     0.038     2.470     2.458
    48   1 H        0.926     0.045     2.388     2.417
    49   1 H        0.926     0.040     2.442     2.444
    50   1 H        0.925     0.046     2.365     2.405

molecular dipole:
                 x           y           z       tot (Debye)
 q only:        1.536       0.711      -0.038
   full:        2.369       0.892       0.059       6.436

 projected vibrational frequencies (cm⁻¹)
eigval :       -0.00    -0.00     0.00     0.00     0.00     0.00
eigval :       21.84    27.39    33.81    56.76    62.30    71.59
eigval :      102.70   107.39   129.90   143.86   149.99   159.18
eigval :      202.74   230.85   243.99   271.60   273.24   287.90
eigval :      316.26   349.50   378.83   384.93   393.74   397.96
eigval :      407.19   422.94   428.62   435.55   464.55   482.60
eigval :      517.55   528.74   540.64   542.40   546.12   561.81
eigval :      587.70   591.21   606.71   619.56   624.99   632.55
eigval :      673.36   685.26   688.42   707.02   708.29   725.00
eigval :      731.66   754.86   767.22   771.84   778.71   796.53
eigval :      802.03   825.57   865.30   870.81   885.30   887.21
eigval :      897.07   899.36   899.96   901.67   902.61   912.55
eigval :      914.84   916.42   919.96   922.50   937.37   944.32
eigval :      973.80  1009.10  1011.38  1031.83  1068.67  1072.20
eigval :     1087.08  1095.74  1106.52  1120.21  1132.43  1142.73
eigval :     1150.34  1160.32  1169.08  1178.76  1180.56  1181.37
eigval :     1214.14  1226.11  1235.42  1240.61  1244.21  1267.93
eigval :     1286.64  1289.54  1300.80  1303.23  1328.86  1335.07
eigval :     1338.40  1355.28  1361.50  1369.58  1385.15  1412.80
eigval :     1419.12  1426.73  1434.95  1436.82  1468.92  1473.30
eigval :     1484.41  1486.85  1552.81  1557.58  1567.92  1572.89
eigval :     1575.64  1582.35  1587.11  1596.98  1604.60  1612.90
eigval :     3056.83  3060.75  3070.00  3070.40  3075.64  3076.38
eigval :     3077.65  3080.42  3083.24  3084.31  3090.06  3092.41
eigval :     3095.61  3098.22  3105.34  3107.70  3111.62  3116.56

   temp. (K)  partition function   enthalpy   heat capacity  entropy
                                   cal/mol     cal/K/mol   cal/K/mol   J/K/mol
 298.15  VIB  0.761E+09            13039.454     88.177     78.281
         ROT  0.244E+08              888.752      2.981     36.787
         INT  0.186E+17            13928.206     91.158    115.068
         TR   0.805E+28             1481.254      4.968     43.907
         TOT                       15409.4598    96.1257   158.9757   665.1542

       T/K    H(0)-H(T)+PV         H(T)/Eh          T*S/Eh         G(T)/Eh
   ------------------------------------------------------------------------
    298.15    0.245565E-01    0.401810E+00    0.755345E-01    0.326275E+00
   ------------------------------------------------------------------------

         :::::::::::::::::::::::::::::::::::::::::::::::::::::
         ::                  THERMODYNAMIC                  ::
         :::::::::::::::::::::::::::::::::::::::::::::::::::::
         :: total free energy         -80.602247735288 Eh   ::
         ::.................................................::
         :: total energy              -80.928523221885 Eh   ::
         :: zero point energy           0.377253423491 Eh   ::
         :: G(RRHO) w/o ZPVE           -0.050977936894 Eh   ::
         :: G(RRHO) contrib.            0.326275486598 Eh   ::
         :::::::::::::::::::::::::::::::::::::::::::::::::::::

           -------------------------------------------------
          | TOTAL ENERGY              -80.928523221885 Eh   |
          | TOTAL ENTHALPY            -80.526713261035 Eh   |
          | TOTAL FREE ENERGY         -80.602247735288 Eh   |
          | GRADIENT NORM               0.000051708674 Eh/α |
          | HOMO-LUMO GAP               2.377378187760 eV   |
           -------------------------------------------------

 * finished run on 2025/09/13 at 01:47:48.756
