   * xtb version 6.7.1 (edcfbbe) compiled by 'albert@albert-system' on 2024-07-22

   ID    Z sym.   atoms
    1    6 C      1-4, 6-9, 11-25, 27-30, 32
    2    7 N      5, 10, 26, 31
    3    1 H      33-50

          program call               : xtb data2507/toluene/CzCbPy/CzCbPy_toluene_S0_finalOpt.xtbopt.xyz --gfn 2 --uhf 2 --gbsa toluene --ohess vtight --parallel 40 --molden --ceasefiles --namespace data2507/toluene/CzCbPy/CzCbPy_toluene_T1_preOpt
      * Solvation model:               GBSA
        Solvent                        toluene
        Solvent mass                       9.2140E+01 g/mol
          :  Hamiltonian                  GFN2-xTB          :
 * total energy  :   -80.8267261 Eh     change       -0.1901526E-07 Eh
 * total energy  :   -80.8295804 Eh     change       -0.2854308E-02 Eh
 * total energy  :   -80.8304941 Eh     change       -0.9136643E-03 Eh
 * total energy  :   -80.8305832 Eh     change       -0.8911045E-04 Eh
 * total energy  :   -80.8306316 Eh     change       -0.4844107E-04 Eh
 * total energy  :   -80.8306461 Eh     change       -0.1450951E-04 Eh
 * total energy  :   -80.8306695 Eh     change       -0.2335959E-04 Eh
 * total energy  :   -80.8306804 Eh     change       -0.1092888E-04 Eh
 * total energy  :   -80.8307024 Eh     change       -0.2192586E-04 Eh
 * total energy  :   -80.8307121 Eh     change       -0.9747843E-05 Eh
 * total energy  :   -80.8307311 Eh     change       -0.5320569E-06 Eh
 * total energy  :   -80.8307313 Eh     change       -0.2004197E-06 Eh
 * total energy  :   -80.8307317 Eh     change       -0.3597986E-06 Eh
 * total energy  :   -80.8307318 Eh     change       -0.1125316E-06 Eh
 * total energy  :   -80.8307319 Eh     change       -0.1271297E-06 Eh
 * total energy  :   -80.8307321 Eh     change       -0.1605001E-06 Eh
 * total energy  :   -80.8307322 Eh     change       -0.1283331E-06 Eh
 * total energy  :   -80.8307323 Eh     change       -0.1018765E-06 Eh
 * total energy  :   -80.8307324 Eh     change       -0.9926930E-07 Eh
   *** GEOMETRY OPTIMIZATION CONVERGED AFTER 29 ITERATIONS ***

 final structure:
================
50
 xtb: 6.7.1 (edcfbbe)
C            6.12302304468874        2.60301214380365        1.02640973532221
C            4.95103168420917        2.66474220738489        1.78854741486687
C            3.89767810661817        1.83642861427975        1.47080181508611
C            4.02994246782096        0.96242193250634        0.38205179422271
N            3.01068732735730        0.09890414928326        0.02474450887028
C            1.64868633008749        0.32183341770761        0.10611515952748
C            0.94055545626631        1.46460397436506        0.42215466678847
C           -0.44949684667360        1.42345542345497        0.39813114106914
C           -1.12872789304712        0.23039270652548        0.06700845107678
N           -2.52210437376530        0.21665971408942        0.07066283112316
C           -3.31413683818582       -0.76337742353523        0.63849331423956
C           -2.94446558515128       -1.88322407691050        1.37216767291261
C           -3.95230884121732       -2.69397433178806        1.86490996992214
C           -5.29477327612487       -2.39571642679345        1.64849117358516
C           -5.67034742821032       -1.26196231704516        0.94680000908090
C           -4.67745711262711       -0.43771701339409        0.44096714645189
C           -4.69834748617858        0.79990048018646       -0.29568844514767
C           -5.71905772184040        1.59064077012014       -0.79939972981913
C           -5.38313739110720        2.73174973368762       -1.50924724869382
C           -4.05185743183662        3.06906476994717       -1.73641162506183
C           -3.01670789807798        2.29264580296582       -1.24503066761740
C           -3.34652172052028        1.16695226909397       -0.50126291631264
C           -0.43507085232461       -0.91925525521573       -0.28579482721391
C            0.96366187444307       -0.87801997694707       -0.30933427692103
C            1.94840609667664       -1.81064907330340       -0.67754453647447
N            1.85340385469637       -3.06983317279955       -1.14110202294351
C            2.97640712460740       -3.72761586699201       -1.37612520769408
C            4.23965344949602       -3.18651569352666       -1.23201240415341
C            4.37663884306664       -1.86586048706965       -0.74579371806625
C            3.22189907080094       -1.18789751969423       -0.46908683433908
N            5.17201918657355        0.87964128990496       -0.31833308181600
C            6.17555161389213        1.67440346668136        0.00385785719277
H            6.96264565179213        3.24478557351196        1.23660001840187
H            4.87903377338699        3.33949846999100        2.62841060886622
H            3.00638919705893        1.81066428379411        2.07660856490501
H            1.43530535912160        2.38873681923846        0.67505419919865
H           -1.01646463741976        2.29293176161158        0.68600128477923
H           -1.90713601905080       -2.11181190528083        1.56085308149304
H           -3.68971544405686       -3.57417554945253        2.43240953678026
H           -6.05310852441301       -3.05344700520889        2.04624760218080
H           -6.71200541140919       -1.02136904832395        0.79974546365117
H           -6.75181849048257        1.31807001280100       -0.64564832516737
H           -6.16380692681347        3.36314519576198       -1.90648140972237
H           -3.82008531424338        3.95207187782806       -2.31301315768764
H           -1.98837528282427        2.54746155354799       -1.44796449283093
H           -0.95287339940582       -1.80831292077075       -0.60712249191026
H            2.84925087649763       -4.74852931371178       -1.71359488489357
H            5.11165079526337       -3.77428422418508       -1.46692398862243
H            5.34694183677895       -1.42318754435955       -0.58193324028246
H            7.06288605800311        1.55734371098047       -0.60570853335799

          :  Hamiltonian                  GFN2-xTB          :
         :: gradient norm              0.000049864270 Eh/a0 ::
         :: HOMO-LUMO gap              0.222576725702 eV    ::
         :: SCC energy               -82.280803727354 Eh    ::
         :: -> dispersion             -0.067555875967 Eh    ::
         :: -> Gsolv                  -0.035608289720 Eh    ::
         :: repulsion energy           1.450071321795 Eh    ::

    * Orbital Energies and Occupations

         #    Occupation            Energy/Eh            Energy/eV
      -------------------------------------------------------------
         1        2.0000           -0.6889262             -18.7466
       ...           ...                  ...                  ...
        64        2.0000           -0.4272957             -11.6273
        65        2.0000           -0.4255974             -11.5811
        66        2.0000           -0.4243728             -11.5478
        67        2.0000           -0.4234623             -11.5230
        68        2.0000           -0.4177692             -11.3681
        69        2.0000           -0.4155595             -11.3079
        70        2.0000           -0.3895826             -10.6011
        71        2.0000           -0.3876482             -10.5484
        72        2.0000           -0.3821547             -10.3990
        73        2.0000           -0.3768007             -10.2533
        74        1.9033           -0.3677735             -10.0076
        75        1.0967           -0.3635280              -9.8921
        76        0.9863           -0.2634965              -7.1701 (HOMO)
        77        0.0130           -0.2553168              -6.9475 (LUMO)
        78        0.0007           -0.2525804              -6.8731
        79                         -0.2429235              -6.6103
        80                         -0.2334651              -6.3529
        81                         -0.2327849              -6.3344
        82                         -0.2112777              -5.7492
        83                         -0.1964885              -5.3467
        84                         -0.1918586              -5.2207
        85                         -0.1876918              -5.1074
        86                         -0.1201765              -3.2702
        87                         -0.1042021              -2.8355
       ...                                ...                  ...
       146                          0.7333856              19.9564
      -------------------------------------------------------------
                  HL-Gap            0.0081797 Eh            0.2226 eV

     #   Z          covCN         q      C6AA      α(0)
     1   6 C        2.912    -0.055    29.356     8.885
     2   6 C        2.926    -0.021    28.534     8.760
     3   6 C        2.915    -0.056    29.390     8.890
     4   6 C        2.891     0.139    24.968     8.192
     5   7 N        2.795    -0.030    21.829     6.939
     6   6 C        3.048     0.035    27.164     8.548
     7   6 C        2.905    -0.050    29.245     8.867
     8   6 C        2.920    -0.074    29.843     8.958
     9   6 C        2.909     0.058    26.692     8.472
    10   7 N        2.802    -0.004    21.334     6.860
    11   6 C        3.071     0.047    26.875     8.500
    12   6 C        2.909    -0.040    29.005     8.831
    13   6 C        2.922    -0.031    28.771     8.796
    14   6 C        2.920    -0.032    28.794     8.800
    15   6 C        2.912    -0.029    28.735     8.790
    16   6 C        3.064    -0.010    28.213     8.710
    17   6 C        3.064    -0.010    28.210     8.710
    18   6 C        2.912    -0.029    28.734     8.790
    19   6 C        2.920    -0.032    28.801     8.801
    20   6 C        2.922    -0.031    28.783     8.798
    21   6 C        2.909    -0.041    29.023     8.834
    22   6 C        3.070     0.047    26.875     8.500
    23   6 C        2.910    -0.053    29.325     8.880
    24   6 C        3.057    -0.032    28.743     8.792
    25   6 C        3.032     0.054    26.758     8.485
    26   7 N        1.833    -0.247    27.290     7.741
    27   6 C        2.894     0.052    26.825     8.492
    28   6 C        2.918    -0.068    29.704     8.937
    29   6 C        2.912    -0.046    29.142     8.852
    30   6 C        3.057     0.048    26.864     8.500
    31   7 N        1.842    -0.260    27.618     7.788
    32   6 C        2.897     0.061    26.623     8.460
    33   1 H        0.926     0.041     2.442     2.444
    34   1 H        0.926     0.044     2.395     2.420
    35   1 H        0.926     0.046     2.371     2.408
    36   1 H        0.926     0.035     2.510     2.477
    37   1 H        0.926     0.038     2.473     2.459
    38   1 H        0.926     0.044     2.402     2.423
    39   1 H        0.926     0.042     2.423     2.434
    40   1 H        0.926     0.042     2.420     2.433
    41   1 H        0.926     0.044     2.390     2.418
    42   1 H        0.926     0.044     2.393     2.419
    43   1 H        0.926     0.042     2.425     2.435
    44   1 H        0.926     0.042     2.425     2.435
    45   1 H        0.926     0.045     2.388     2.417
    46   1 H        0.926     0.045     2.387     2.416
    47   1 H        0.925     0.033     2.543     2.494
    48   1 H        0.926     0.030     2.584     2.514
    49   1 H        0.926     0.047     2.359     2.402
    50   1 H        0.925     0.039     2.468     2.457

molecular dipole:
                 x           y           z       tot (Debye)
 q only:       -1.840       1.018       0.671
   full:       -1.353       1.352       0.976       5.458

 projected vibrational frequencies (cm⁻¹)
eigval :       -0.00    -0.00    -0.00    -0.00     0.00     0.00
eigval :       19.72    27.92    36.04    56.14    61.90    75.27
eigval :       97.09    99.37   131.92   143.02   155.85   162.83
eigval :      192.43   224.12   244.75   253.17   272.76   289.28
eigval :      312.45   348.74   358.67   373.34   380.49   381.70
eigval :      399.39   414.68   418.44   433.21   444.28   460.46
eigval :      512.24   514.30   531.13   535.87   536.76   552.16
eigval :      575.31   583.24   585.24   606.58   612.54   623.51
eigval :      646.38   660.38   671.02   672.93   687.66   710.14
eigval :      712.98   718.06   743.62   752.49   765.99   773.17
eigval :      781.37   790.50   813.39   833.21   849.75   864.26
eigval :      866.86   871.63   874.57   881.09   894.77   900.90
eigval :      904.51   906.30   907.31   912.83   921.12   923.56
eigval :      960.09   977.02  1009.18  1016.10  1059.71  1066.26
eigval :     1068.19  1072.09  1092.08  1108.70  1117.28  1130.52
eigval :     1138.84  1148.60  1157.72  1163.86  1175.14  1177.91
eigval :     1197.17  1208.12  1220.01  1224.72  1226.59  1248.81
eigval :     1258.76  1272.36  1278.89  1286.93  1304.55  1311.98
eigval :     1333.15  1341.66  1352.93  1358.62  1362.07  1364.87
eigval :     1387.69  1398.48  1407.67  1416.19  1425.51  1429.93
eigval :     1444.90  1456.28  1467.07  1476.52  1496.45  1509.92
eigval :     1536.39  1545.44  1560.75  1572.46  1578.83  1592.40
eigval :     3042.87  3046.78  3079.02  3080.51  3080.77  3080.98
eigval :     3087.04  3087.94  3094.78  3095.93  3096.70  3100.19
eigval :     3100.89  3103.05  3104.17  3106.69  3108.69  3114.85

   temp. (K)  partition function   enthalpy   heat capacity  entropy
                                   cal/mol     cal/K/mol   cal/K/mol   J/K/mol
 298.15  VIB  0.110E+10            13360.004     90.496     80.094
         ROT  0.245E+08              888.752      2.981     36.790
         INT  0.268E+17            14248.756     93.476    116.884
         TR   0.805E+28             1481.254      4.968     43.907
         TOT                       15730.0100    98.4446   160.7913   672.7509

       T/K    H(0)-H(T)+PV         H(T)/Eh          T*S/Eh         G(T)/Eh
   ------------------------------------------------------------------------
    298.15    0.250674E-01    0.397223E+00    0.763971E-01    0.320825E+00
   ------------------------------------------------------------------------

         :::::::::::::::::::::::::::::::::::::::::::::::::::::
         ::                  THERMODYNAMIC                  ::
         :::::::::::::::::::::::::::::::::::::::::::::::::::::
         :: total free energy         -80.509906940331 Eh   ::
         ::.................................................::
         :: total energy              -80.830732404544 Eh   ::
         :: zero point energy           0.372155243364 Eh   ::
         :: G(RRHO) w/o ZPVE           -0.051329779150 Eh   ::
         :: G(RRHO) contrib.            0.320825464213 Eh   ::
         :::::::::::::::::::::::::::::::::::::::::::::::::::::

           -------------------------------------------------
          | TOTAL ENERGY              -80.830732404544 Eh   |
          | TOTAL ENTHALPY            -80.433509794602 Eh   |
          | TOTAL FREE ENERGY         -80.509906940331 Eh   |
          | GRADIENT NORM               0.000047300131 Eh/α |
          | HOMO-LUMO GAP               0.222582246943 eV   |
           -------------------------------------------------

 * finished run on 2025/09/13 at 01:49:00.875
