   * xtb version 6.7.1 (edcfbbe) compiled by 'albert@albert-system' on 2024-07-22

   ID    Z sym.   atoms
    1    6 C      1-4, 6-9, 11-25, 27-30, 32
    2    7 N      5, 10, 26, 31
    3    1 H      33-50

          program call               : xtb data2507/toluene/CzCbPy/CzCbPy_toluene_T1_crest.xyz --gfn 2 --uhf 2 --gbsa toluene --ohess vtight --parallel 40 --molden --ceasefiles --namespace data2507/toluene/CzCbPy/CzCbPy_toluene_T1_finalOpt
      * Solvation model:               GBSA
        Solvent                        toluene
        Solvent mass                       9.2140E+01 g/mol
          :  Hamiltonian                  GFN2-xTB          :
 * total energy  :   -80.8307424 Eh     change       -0.2789591E-09 Eh
 * total energy  :   -80.8308023 Eh     change       -0.5998136E-04 Eh
 * total energy  :   -80.8308277 Eh     change       -0.2539786E-04 Eh
 * total energy  :   -80.8308365 Eh     change       -0.8742609E-05 Eh
 * total energy  :   -80.8308456 Eh     change       -0.9124507E-05 Eh
 * total energy  :   -80.8308522 Eh     change       -0.6649593E-05 Eh
 * total energy  :   -80.8308579 Eh     change       -0.5642717E-05 Eh
 * total energy  :   -80.8308611 Eh     change       -0.3182669E-05 Eh
 * total energy  :   -80.8308624 Eh     change       -0.1297650E-05 Eh
 * total energy  :   -80.8308621 Eh     change        0.2383500E-06 Eh
 * total energy  :   -80.8308631 Eh     change       -0.9287692E-06 Eh
 * total energy  :   -80.8308629 Eh     change        0.1427115E-06 Eh
 * total energy  :   -80.8308635 Eh     change       -0.5548967E-06 Eh
 * total energy  :   -80.8308635 Eh     change       -0.1447410E-07 Eh
 * total energy  :   -80.8308638 Eh     change       -0.3034839E-06 Eh
 * total energy  :   -80.8308640 Eh     change       -0.2301728E-06 Eh
 * total energy  :   -80.8308641 Eh     change       -0.1207596E-06 Eh
 * total energy  :   -80.8308642 Eh     change       -0.1063996E-06 Eh
 * total energy  :   -80.8308643 Eh     change       -0.8298956E-07 Eh
   *** GEOMETRY OPTIMIZATION CONVERGED AFTER 19 ITERATIONS ***

 final structure:
================
50
 xtb: 6.7.1 (edcfbbe)
C            6.06216655342584        2.73447094148389       -0.78646507377181
C            4.86106361681317        3.21962778002423       -0.25951415642139
C            3.83041642243510        2.33753541702007       -0.01840941568727
C            4.02034226839018        0.98148216624778       -0.31898193135974
N            3.01784494790690        0.04992362479983       -0.11296840292590
C            1.65642045312611        0.27245136341613       -0.18479920122276
C            0.94962863039603        1.33827661867646       -0.70641670022467
C           -0.43981372894501        1.30600162647891       -0.66983891074844
C           -1.11965788000309        0.18824091062998       -0.13438486194545
N           -2.51132669447391        0.19349733726329       -0.10557924613288
C           -3.30786025677409        1.23719982492850        0.32677631989328
C           -2.94273391474555        2.46131890922861        0.87163655237550
C           -3.95354780283957        3.32382045451712        1.25992374366564
C           -5.29470140602894        2.97577970883204        1.12724165977681
C           -5.66505785144629        1.74256365313197        0.61597794927553
C           -4.66931107310380        0.86494240660249        0.21713539524794
C           -4.68457355154934       -0.47187485297680       -0.31939434028304
C           -5.70198465269708       -1.34564221533548       -0.66911969557873
C           -5.36131796172251       -2.57750013753942       -1.20379037768283
C           -4.02979775436508       -2.92691465531540       -1.40958547921153
C           -2.99764622159263       -2.06913771096713       -1.06955951937268
C           -3.33157891406973       -0.84767580733945       -0.49909563177347
C           -0.42632064695344       -0.91587559787012        0.34440165978326
C            0.97287952714919       -0.89559719489754        0.31381907628066
C            1.96081266501357       -1.83829068275431        0.64767459596871
N            1.86352315091262       -3.08603350616234        1.13985923127193
C            2.98515134727025       -3.75899104323582        1.34216267571710
C            4.24677019891106       -3.25768289018773        1.08990291677032
C            4.38540990283071       -1.95755375112823        0.54983178312076
C            3.23240988227991       -1.25154562205636        0.34079164450058
N            5.18956773008528        0.51343476708754       -0.78266809391058
C            6.16667579423586        1.37259007415590       -1.00573264229133
H            6.88788014863384        3.39426620094185       -0.99672752640430
H            4.74793846547444        4.26815596560841       -0.02756572263532
H            2.91063488082241        2.66554535991995        0.43868426712256
H            1.44940717266629        2.17165280722287       -1.17551558615392
H           -1.00839752540887        2.10399597078675       -1.11752914092542
H           -1.90571670444025        2.72827317274459        1.00129139447795
H           -3.69447887388231        4.28373454965234        1.68088727902127
H           -6.05597278220492        3.67468308816320        1.44008991124444
H           -6.70517708259695        1.46680678811858        0.53510363046820
H           -6.73588026539764       -1.06803088311363       -0.53326459305937
H           -6.13933955507510       -3.27358995991182       -1.47941699585516
H           -3.79466064035058       -3.88475286838501       -1.84873803372003
H           -1.96969070173209       -2.33939987401346       -1.25422070140499
H           -0.94299911622920       -1.75464782451362        0.78146920182614
H            2.85585137656435       -4.76126200026604        1.73075389741372
H            5.11848871554327       -3.86030850244248        1.28530468058987
H            5.35270658102086       -1.55463321407943        0.29733700184369
H            7.08083587792103        0.93383548680871       -1.38619858915275

          :  Hamiltonian                  GFN2-xTB          :
         :: gradient norm              0.000053839475 Eh/a0 ::
         :: HOMO-LUMO gap              0.205383388501 eV    ::
         :: SCC energy               -82.280070334318 Eh    ::
         :: -> dispersion             -0.067649039878 Eh    ::
         :: -> Gsolv                  -0.035772981537 Eh    ::
         :: repulsion energy           1.449206000940 Eh    ::

    * Orbital Energies and Occupations

         #    Occupation            Energy/Eh            Energy/eV
      -------------------------------------------------------------
         1        2.0000           -0.6897880             -18.7701
       ...           ...                  ...                  ...
        64        2.0000           -0.4278250             -11.6417
        65        2.0000           -0.4267240             -11.6118
        66        2.0000           -0.4242362             -11.5441
        67        2.0000           -0.4221569             -11.4875
        68        2.0000           -0.4181015             -11.3771
        69        2.0000           -0.4160761             -11.3220
        70        2.0000           -0.3902118             -10.6182
        71        2.0000           -0.3878366             -10.5536
        72        2.0000           -0.3816509             -10.3852
        73        2.0000           -0.3770518             -10.2601
        74        1.7844           -0.3664819              -9.9725
        75        1.2156           -0.3640282              -9.9057
        76        0.9814           -0.2635402              -7.1713 (HOMO)
        77        0.0184           -0.2559927              -6.9659 (LUMO)
        78        0.0002           -0.2517597              -6.8507
        79                         -0.2426356              -6.6025
        80                         -0.2341251              -6.3709
        81                         -0.2330711              -6.3422
        82                         -0.2117605              -5.7623
        83                         -0.1971057              -5.3635
        84                         -0.1921151              -5.2277
        85                         -0.1882616              -5.1229
        86                         -0.1199168              -3.2631
        87                         -0.1047393              -2.8501
       ...                                ...                  ...
       146                          0.7326614              19.9367
      -------------------------------------------------------------
                  HL-Gap            0.0075475 Eh            0.2054 eV

     #   Z          covCN         q      C6AA      α(0)
     1   6 C        2.912    -0.054    29.339     8.882
     2   6 C        2.926    -0.021    28.524     8.759
     3   6 C        2.915    -0.056    29.396     8.891
     4   6 C        2.894     0.140    24.950     8.190
     5   7 N        2.796    -0.030    21.821     6.938
     6   6 C        3.051     0.036    27.155     8.546
     7   6 C        2.905    -0.049    29.222     8.864
     8   6 C        2.920    -0.074    29.851     8.960
     9   6 C        2.909     0.059    26.680     8.470
    10   7 N        2.802    -0.002    21.298     6.854
    11   6 C        3.070     0.047    26.880     8.501
    12   6 C        2.909    -0.041    29.017     8.833
    13   6 C        2.922    -0.031    28.784     8.798
    14   6 C        2.920    -0.032    28.791     8.799
    15   6 C        2.912    -0.029    28.731     8.789
    16   6 C        3.063    -0.010    28.201     8.708
    17   6 C        3.064    -0.010    28.205     8.709
    18   6 C        2.912    -0.029    28.731     8.789
    19   6 C        2.920    -0.031    28.780     8.797
    20   6 C        2.922    -0.031    28.765     8.795
    21   6 C        2.909    -0.040    28.993     8.829
    22   6 C        3.070     0.047    26.881     8.501
    23   6 C        2.910    -0.053    29.321     8.879
    24   6 C        3.055    -0.033    28.760     8.795
    25   6 C        3.034     0.054    26.748     8.483
    26   7 N        1.833    -0.249    27.327     7.747
    27   6 C        2.894     0.052    26.830     8.492
    28   6 C        2.918    -0.069    29.709     8.938
    29   6 C        2.912    -0.047    29.177     8.857
    30   6 C        3.055     0.048    26.869     8.501
    31   7 N        1.842    -0.267    27.795     7.813
    32   6 C        2.900     0.062    26.603     8.457
    33   1 H        0.926     0.040     2.450     2.448
    34   1 H        0.926     0.043     2.412     2.429
    35   1 H        0.926     0.045     2.382     2.414
    36   1 H        0.926     0.036     2.505     2.475
    37   1 H        0.926     0.039     2.468     2.457
    38   1 H        0.926     0.045     2.385     2.415
    39   1 H        0.926     0.042     2.420     2.433
    40   1 H        0.926     0.042     2.419     2.432
    41   1 H        0.926     0.045     2.388     2.416
    42   1 H        0.926     0.045     2.382     2.414
    43   1 H        0.926     0.043     2.411     2.428
    44   1 H        0.926     0.043     2.414     2.430
    45   1 H        0.926     0.045     2.388     2.416
    46   1 H        0.926     0.046     2.372     2.408
    47   1 H        0.925     0.032     2.558     2.501
    48   1 H        0.926     0.030     2.589     2.516
    49   1 H        0.926     0.048     2.347     2.396
    50   1 H        0.925     0.037     2.490     2.468

molecular dipole:
                 x           y           z       tot (Debye)
 q only:       -2.035       1.195      -0.180
   full:       -1.569       1.648      -0.199       5.806

 projected vibrational frequencies (cm⁻¹)
eigval :       -0.00    -0.00     0.00     0.00     0.00     0.00
eigval :       21.38    29.62    34.34    56.81    63.40    73.78
eigval :       94.55   100.69   131.20   145.80   149.83   171.02
eigval :      188.22   222.08   243.71   260.67   269.36   280.86
eigval :      323.28   328.18   344.62   365.92   377.92   383.54
eigval :      399.65   412.03   416.52   430.62   435.84   461.08
eigval :      507.09   513.25   528.67   532.60   535.63   551.24
eigval :      575.47   581.95   584.41   612.22   614.03   615.03
eigval :      646.57   659.39   672.84   674.82   687.95   708.40
eigval :      711.31   715.21   750.58   752.53   764.32   770.97
eigval :      780.13   789.75   805.00   820.91   851.97   869.56
eigval :      870.38   874.99   876.47   882.44   895.17   902.16
eigval :      904.17   904.98   914.32   916.06   919.67   920.75
eigval :      958.31   979.06  1009.34  1014.52  1057.67  1066.48
eigval :     1069.03  1074.57  1091.53  1107.43  1119.92  1129.57
eigval :     1137.85  1153.27  1158.25  1163.83  1174.75  1176.42
eigval :     1195.40  1205.08  1223.61  1225.90  1226.38  1246.39
eigval :     1257.05  1271.32  1277.12  1285.87  1304.26  1307.52
eigval :     1332.11  1339.93  1354.25  1358.79  1364.10  1365.21
eigval :     1388.86  1401.22  1407.05  1414.90  1425.50  1429.05
eigval :     1449.02  1455.27  1463.79  1475.50  1498.82  1507.59
eigval :     1532.44  1543.62  1559.26  1571.37  1577.64  1592.49
eigval :     3043.16  3044.52  3078.40  3081.33  3081.70  3087.66
eigval :     3088.13  3088.74  3093.76  3095.68  3097.06  3099.97
eigval :     3101.05  3101.85  3103.61  3106.77  3108.60  3112.59

   temp. (K)  partition function   enthalpy   heat capacity  entropy
                                   cal/mol     cal/K/mol   cal/K/mol   J/K/mol
 298.15  VIB  0.106E+10            13402.090     90.670     80.304
         ROT  0.244E+08              888.752      2.981     36.784
         INT  0.260E+17            14290.842     93.651    117.088
         TR   0.805E+28             1481.254      4.968     43.907
         TOT                       15772.0961    98.6191   160.9951   673.6034

       T/K    H(0)-H(T)+PV         H(T)/Eh          T*S/Eh         G(T)/Eh
   ------------------------------------------------------------------------
    298.15    0.251344E-01    0.397095E+00    0.764940E-01    0.320601E+00
   ------------------------------------------------------------------------

         :::::::::::::::::::::::::::::::::::::::::::::::::::::
         ::                  THERMODYNAMIC                  ::
         :::::::::::::::::::::::::::::::::::::::::::::::::::::
         :: total free energy         -80.510263099281 Eh   ::
         ::.................................................::
         :: total energy              -80.830864336371 Eh   ::
         :: zero point energy           0.371960762196 Eh   ::
         :: G(RRHO) w/o ZPVE           -0.051359525107 Eh   ::
         :: G(RRHO) contrib.            0.320601237089 Eh   ::
         :::::::::::::::::::::::::::::::::::::::::::::::::::::

           -------------------------------------------------
          | TOTAL ENERGY              -80.830864336371 Eh   |
          | TOTAL ENTHALPY            -80.433769139170 Eh   |
          | TOTAL FREE ENERGY         -80.510263099281 Eh   |
          | GRADIENT NORM               0.000053901689 Eh/α |
          | HOMO-LUMO GAP               0.205378595672 eV   |
           -------------------------------------------------

 * finished run on 2025/09/13 at 01:50:41.211
