   * xtb version 6.7.1 (edcfbbe) compiled by 'albert@albert-system' on 2024-07-22

   ID    Z sym.   atoms
    1    6 C      1-4, 6-9, 11-25, 27-30, 32
    2    7 N      5, 10, 26, 31
    3    1 H      33-50

          program call               : xtb data2507/toluene/CzCbPy/CzCbPy_toluene_S0_crest.xyz --gfn 2 --gbsa toluene --ohess vtight --parallel 40 --molden --ceasefiles --namespace data2507/toluene/CzCbPy/CzCbPy_toluene_S0_finalOpt
      * Solvation model:               GBSA
        Solvent                        toluene
        Solvent mass                       9.2140E+01 g/mol
          :  Hamiltonian                  GFN2-xTB          :
 * total energy  :   -80.9287480 Eh     change       -0.2461647E-08 Eh
 * total energy  :   -80.9287724 Eh     change       -0.2439804E-04 Eh
 * total energy  :   -80.9287816 Eh     change       -0.9185297E-05 Eh
 * total energy  :   -80.9287858 Eh     change       -0.4175439E-05 Eh
 * total energy  :   -80.9287917 Eh     change       -0.5935613E-05 Eh
 * total energy  :   -80.9287952 Eh     change       -0.3488594E-05 Eh
 * total energy  :   -80.9287978 Eh     change       -0.2650938E-05 Eh
 * total energy  :   -80.9287992 Eh     change       -0.1382642E-05 Eh
 * total energy  :   -80.9287999 Eh     change       -0.6487076E-06 Eh
 * total energy  :   -80.9288004 Eh     change       -0.4838333E-06 Eh
 * total energy  :   -80.9288013 Eh     change       -0.2454909E-06 Eh
 * total energy  :   -80.9288015 Eh     change       -0.2149406E-06 Eh
 * total energy  :   -80.9288017 Eh     change       -0.2144532E-06 Eh
 * total energy  :   -80.9288019 Eh     change       -0.2051519E-06 Eh
 * total energy  :   -80.9288021 Eh     change       -0.1679411E-06 Eh
 * total energy  :   -80.9288022 Eh     change       -0.1630998E-06 Eh
 * total energy  :   -80.9288024 Eh     change       -0.1838989E-06 Eh
 * total energy  :   -80.9288027 Eh     change       -0.2443642E-06 Eh
 * total energy  :   -80.9288027 Eh     change       -0.2371792E-08 Eh
   *** GEOMETRY OPTIMIZATION CONVERGED AFTER 22 ITERATIONS ***

 final structure:
================
50
 xtb: 6.7.1 (edcfbbe)
C            6.08166178126451        2.63184700334130        1.05738236572040
C            4.95047610526947        2.60919524738121        1.86258898575888
C            3.90993074615699        1.75750929740038        1.54216313294731
C            4.03771354623391        0.96073093350458        0.40123139592839
N            3.02538832151991        0.08328967646393        0.01472026816284
C            1.65610942462796        0.29213101907464        0.10366582329382
C            0.94412696044403        1.43127215929619        0.45606096793472
C           -0.43521243867716        1.37363499626716        0.43698092753404
C           -1.11766232985404        0.21397802039520        0.04772001679858
N           -2.52141774698136        0.20366068835839        0.05221916409816
C           -3.31658785295418       -0.74997502677488        0.65682799209838
C           -2.95139888828737       -1.86401435584730        1.39982924109735
C           -3.96045668318928       -2.65182747839709        1.92013473500091
C           -5.30408570343464       -2.34194276371265        1.71723498366781
C           -5.67363153095259       -1.22313298927219        0.99747512016898
C           -4.67709183912350       -0.41592320996845        0.46308222107698
C           -4.69374024489455        0.79727114486013       -0.30575698640634
C           -5.71268328631016        1.59165571479734       -0.81632401981937
C           -5.37504315768487        2.70935872266264       -1.55342278945481
C           -4.04093314510001        3.02933788934922       -1.79834961764540
C           -3.00996617788783        2.25497568807694       -1.30111803643930
C           -3.34217953782005        1.14427302780367       -0.53752509657220
C           -0.41392849436142       -0.91376150186832       -0.34932416875965
C            0.97189270863270       -0.87121132228434       -0.31941156851402
C            1.98120691518185       -1.82140327616935       -0.69624803506333
N            1.84885603081068       -3.06049705327119       -1.14954920073104
C            2.96784867586859       -3.70804337306865       -1.41936914575025
C            4.24440629130738       -3.17247644439196       -1.25017182603179
C            4.39791925414450       -1.88021922797109       -0.77510899917096
C            3.23218587343449       -1.18484460927959       -0.49584465538856
N            5.13064794347111        0.96181384594112       -0.35309808659822
C            6.12219710028900        1.77329277778037       -0.02844085207127
H            6.91093191365645        3.28488758421432        1.27572252220915
H            4.88591750452711        3.23811226598534        2.73830852315155
H            3.03706523291643        1.68158161771615        2.16973722288290
H            1.44058387257285        2.34947721999401        0.72662841074991
H           -1.00766530660938        2.23953002340860        0.73287920835285
H           -1.91358821761376       -2.10684684611988        1.57158778095163
H           -3.70172165719840       -3.52740887150526        2.49779901976212
H           -6.06355222516249       -2.98485856035065        2.13777114978211
H           -6.71471608088129       -0.97594882178003        0.85191183695165
H           -6.74672299252823        1.33420118390952       -0.64144181888089
H           -6.15245961771949        3.34163838674493       -1.95693773619179
H           -3.80750838826162        3.90076671478274       -2.39298502516892
H           -1.98029559694495        2.50162676325879       -1.51209203578299
H           -0.92274380893645       -1.80037768942235       -0.69204375978219
H            2.83869178795164       -4.71563506486040       -1.79200279550672
H            5.11005937718758       -3.76922264368876       -1.49190542387089
H            5.36946080429448       -1.43164795605403       -0.63948689408503
H            6.98512341490535        1.72557221578985       -0.68002221349576

          :  Hamiltonian                  GFN2-xTB          :
         :: gradient norm              0.000035190754 Eh/a0 ::
         :: HOMO-LUMO gap              2.433714008248 eV    ::
         :: SCC energy               -82.392703555807 Eh    ::
         :: -> dispersion             -0.067492449501 Eh    ::
         :: -> Gsolv                  -0.034358389339 Eh    ::
         :: repulsion energy           1.463900877595 Eh    ::

    * Orbital Energies and Occupations

         #    Occupation            Energy/Eh            Energy/eV
      -------------------------------------------------------------
         1        2.0000           -0.6931015             -18.8603
       ...           ...                  ...                  ...
        63        2.0000           -0.4326671             -11.7735
        64        2.0000           -0.4320065             -11.7555
        65        2.0000           -0.4253589             -11.5746
        66        2.0000           -0.4205373             -11.4434
        67        2.0000           -0.4172287             -11.3534
        68        2.0000           -0.4161431             -11.3238
        69        2.0000           -0.4035849             -10.9821
        70        2.0000           -0.3987336             -10.8501
        71        2.0000           -0.3907678             -10.6333
        72        2.0000           -0.3822568             -10.4017
        73        2.0000           -0.3769068             -10.2562
        74        2.0000           -0.3725437             -10.1374
        75        2.0000           -0.3598159              -9.7911 (HOMO)
        76                         -0.2703786              -7.3574 (LUMO)
        77                         -0.2621443              -7.1333
        78                         -0.2532056              -6.8901
        79                         -0.2457215              -6.6864
        80                         -0.2408042              -6.5526
        81                         -0.2202898              -5.9944
        82                         -0.2131773              -5.8008
        83                         -0.2044444              -5.5632
        84                         -0.1862057              -5.0669
        85                         -0.1843952              -5.0176
        86                         -0.1277018              -3.4749
       ...                                ...                  ...
       146                          0.7460779              20.3018
      -------------------------------------------------------------
                  HL-Gap            0.0894373 Eh            2.4337 eV

     #   Z          covCN         q      C6AA      α(0)
     1   6 C        2.913    -0.045    29.120     8.849
     2   6 C        2.929    -0.010    28.270     8.720
     3   6 C        2.916    -0.058    29.450     8.899
     4   6 C        2.900     0.151    24.730     8.154
     5   7 N        2.801    -0.047    22.139     6.988
     6   6 C        3.070     0.043    26.957     8.513
     7   6 C        2.910    -0.049    29.219     8.864
     8   6 C        2.926    -0.044    29.091     8.845
     9   6 C        2.912     0.058    26.701     8.473
    10   7 N        2.802    -0.044    22.088     6.980
    11   6 C        3.075     0.047    26.877     8.500
    12   6 C        2.909    -0.052    29.281     8.873
    13   6 C        2.924    -0.035    28.862     8.810
    14   6 C        2.920    -0.043    29.059     8.840
    15   6 C        2.912    -0.035    28.868     8.810
    16   6 C        3.067    -0.018    28.398     8.738
    17   6 C        3.067    -0.018    28.395     8.738
    18   6 C        2.912    -0.035    28.866     8.810
    19   6 C        2.919    -0.043    29.066     8.841
    20   6 C        2.923    -0.035    28.877     8.812
    21   6 C        2.910    -0.052    29.303     8.876
    22   6 C        3.075     0.046    26.884     8.501
    23   6 C        2.915    -0.041    29.011     8.832
    24   6 C        3.063    -0.020    28.436     8.744
    25   6 C        3.070     0.074    26.285     8.406
    26   7 N        1.832    -0.250    27.360     7.751
    27   6 C        2.923     0.051    26.850     8.497
    28   6 C        2.922    -0.045    29.126     8.850
    29   6 C        2.915    -0.031    28.770     8.796
    30   6 C        3.071     0.046    26.894     8.503
    31   7 N        1.845    -0.254    27.455     7.765
    32   6 C        2.907     0.062    26.621     8.460
    33   1 H        0.926     0.050     2.320     2.382
    34   1 H        0.926     0.052     2.294     2.369
    35   1 H        0.926     0.051     2.305     2.374
    36   1 H        0.926     0.047     2.362     2.404
    37   1 H        0.926     0.053     2.288     2.365
    38   1 H        0.926     0.030     2.592     2.517
    39   1 H        0.926     0.030     2.581     2.512
    40   1 H        0.926     0.028     2.612     2.527
    41   1 H        0.926     0.031     2.577     2.510
    42   1 H        0.926     0.031     2.578     2.511
    43   1 H        0.926     0.028     2.617     2.530
    44   1 H        0.926     0.030     2.588     2.516
    45   1 H        0.926     0.029     2.598     2.521
    46   1 H        0.926     0.057     2.232     2.336
    47   1 H        0.925     0.038     2.474     2.460
    48   1 H        0.926     0.045     2.385     2.415
    49   1 H        0.926     0.052     2.298     2.371
    50   1 H        0.925     0.045     2.382     2.414

molecular dipole:
                 x           y           z       tot (Debye)
 q only:        1.122       0.886       0.660
   full:        1.615       1.284       0.980       5.806

 projected vibrational frequencies (cm⁻¹)
eigval :       -0.00    -0.00    -0.00     0.00     0.00     0.00
eigval :       16.33    27.76    33.85    59.63    65.55    73.95
eigval :       92.92    98.08   135.34   143.34   153.75   159.21
eigval :      197.16   226.34   244.12   266.69   272.91   285.17
eigval :      320.88   353.76   379.12   381.65   390.53   399.03
eigval :      404.76   419.98   430.13   433.95   467.13   481.96
eigval :      517.27   527.90   537.77   541.51   546.27   561.63
eigval :      587.59   590.74   607.75   619.55   623.59   634.53
eigval :      671.99   685.02   687.43   704.97   709.26   726.48
eigval :      731.00   754.57   767.69   771.95   778.96   796.40
eigval :      802.12   829.79   865.93   870.95   882.12   893.30
eigval :      896.36   897.04   900.84   902.08   904.36   914.62
eigval :      916.58   918.48   920.89   925.02   938.77   940.06
eigval :      975.86  1009.35  1011.20  1030.71  1068.02  1071.55
eigval :     1085.13  1091.58  1106.93  1119.72  1131.12  1147.65
eigval :     1150.42  1159.54  1168.18  1178.78  1179.62  1183.78
eigval :     1213.78  1228.87  1234.67  1240.44  1245.19  1271.77
eigval :     1287.93  1289.15  1300.37  1302.39  1326.35  1335.75
eigval :     1338.91  1355.38  1361.24  1372.06  1384.68  1409.00
eigval :     1423.30  1426.40  1430.30  1439.35  1469.51  1473.73
eigval :     1484.78  1486.62  1553.16  1558.39  1565.15  1573.01
eigval :     1577.24  1583.42  1587.09  1596.91  1604.57  1612.64
eigval :     3056.01  3058.24  3069.93  3070.64  3075.64  3076.63
eigval :     3081.03  3083.22  3084.50  3089.99  3091.08  3092.49
eigval :     3093.81  3101.82  3105.04  3106.63  3111.32  3112.17

   temp. (K)  partition function   enthalpy   heat capacity  entropy
                                   cal/mol     cal/K/mol   cal/K/mol   J/K/mol
 298.15  VIB  0.102E+10            13064.483     88.247     78.749
         ROT  0.245E+08              888.752      2.981     36.790
         INT  0.250E+17            13953.236     91.228    115.539
         TR   0.805E+28             1481.254      4.968     43.907
         TOT                       15434.4897    96.1959   159.4466   667.1244

       T/K    H(0)-H(T)+PV         H(T)/Eh          T*S/Eh         G(T)/Eh
   ------------------------------------------------------------------------
    298.15    0.245964E-01    0.401836E+00    0.757582E-01    0.326078E+00
   ------------------------------------------------------------------------

         :::::::::::::::::::::::::::::::::::::::::::::::::::::
         ::                  THERMODYNAMIC                  ::
         :::::::::::::::::::::::::::::::::::::::::::::::::::::
         :: total free energy         -80.602725103675 Eh   ::
         ::.................................................::
         :: total energy              -80.928802677643 Eh   ::
         :: zero point energy           0.377239356001 Eh   ::
         :: G(RRHO) w/o ZPVE           -0.051161782033 Eh   ::
         :: G(RRHO) contrib.            0.326077573968 Eh   ::
         :::::::::::::::::::::::::::::::::::::::::::::::::::::

           -------------------------------------------------
          | TOTAL ENERGY              -80.928802677643 Eh   |
          | TOTAL ENTHALPY            -80.526966896660 Eh   |
          | TOTAL FREE ENERGY         -80.602725103675 Eh   |
          | GRADIENT NORM               0.000035192425 Eh/α |
          | HOMO-LUMO GAP               2.433714087122 eV   |
           -------------------------------------------------

 * finished run on 2025/09/13 at 01:48:58.111
