   * xtb version 6.7.1 (edcfbbe) compiled by 'albert@albert-system' on 2024-07-22

   ID    Z sym.   atoms
    1    6 C      1-9, 11-23, 25-28, 30, 31, 33, 34, 36-42
    2    7 N      10, 24, 29, 32, 35
    3    1 H      43-65

          program call               : xtb data2507/gas/3-AcBPdCN/3-AcBPdCN_gas_S0_crest.xyz --gfn 2 --ohess vtight --parallel 40 --molden --ceasefiles --namespace data2507/gas/3-AcBPdCN/3-AcBPdCN_gas_S0_finalOpt
          :  Hamiltonian                  GFN2-xTB          :
 * total energy  :  -105.5636872 Eh     change       -0.3151641E-08 Eh
 * total energy  :  -105.5636873 Eh     change       -0.1880832E-06 Eh
 * total energy  :  -105.5636874 Eh     change       -0.9408220E-07 Eh
 * total energy  :  -105.5636880 Eh     change       -0.6024268E-06 Eh
 * total energy  :  -105.5636877 Eh     change        0.3131902E-06 Eh
 * total energy  :  -105.5636884 Eh     change       -0.7132512E-06 Eh
 * total energy  :  -105.5636886 Eh     change       -0.2029502E-06 Eh
 * total energy  :  -105.5636888 Eh     change       -0.1870280E-06 Eh
 * total energy  :  -105.5636893 Eh     change       -0.4266866E-06 Eh
 * total energy  :  -105.5636896 Eh     change       -0.3828078E-06 Eh
 * total energy  :  -105.5636885 Eh     change        0.7464068E-06 Eh
 * total energy  :  -105.5636874 Eh     change        0.1136406E-05 Eh
 * total energy  :  -105.5636897 Eh     change       -0.2365950E-05 Eh
 * total energy  :  -105.5636896 Eh     change        0.1490741E-06 Eh
 * total energy  :  -105.5636898 Eh     change       -0.2465116E-06 Eh
 * total energy  :  -105.5636898 Eh     change        0.6855639E-07 Eh
 * total energy  :  -105.5636899 Eh     change       -0.1343407E-06 Eh
 * total energy  :  -105.5636899 Eh     change        0.2120873E-07 Eh
 * total energy  :  -105.5636900 Eh     change       -0.8334023E-07 Eh
   *** GEOMETRY OPTIMIZATION CONVERGED AFTER 21 ITERATIONS ***

 final structure:
================
65
 xtb: 6.7.1 (edcfbbe)
C           -4.35969918654780        0.61949283545625       -2.40730420443103
C           -5.44314021860172        0.73131697555412       -1.31550382557315
C           -6.79890835578662        0.87391936640008       -2.00621330403887
C           -5.12139848942302        1.91332808491642       -0.41711390859164
C           -5.81216940269641        3.11492566603428       -0.42289875841858
C           -5.46301003995064        4.13951051548695        0.44097389321455
C           -4.43456455694097        3.96519407552811        1.34955796939257
C           -3.73992563754576        2.77053506340067        1.38001062552585
C           -4.05950196222111        1.76167762532027        0.48012527825583
N           -3.39930856913763        0.51508673745849        0.51743232662838
C           -2.03589471074174        0.37081399051945        0.39417643164778
C           -1.19004617228104        1.49184019953208        0.30379778474421
C            0.16372872193477        1.32543870351613        0.19338710702666
C            0.74620636909301        0.05267890304773        0.15085888849685
C           -0.08702584872174       -1.08590239394512        0.16312908806538
C           -1.46005592631656       -0.89586693974519        0.27153695754218
C            0.50394317174799       -2.41561173602284        0.06373727129298
C           -0.26358767543946       -3.58536866771762        0.05311648055345
C            0.32204360198797       -4.83009376460156       -0.03650673365259
C            1.70378693450917       -4.95589178301143       -0.11733572070427
C            2.48497548115838       -3.82391273925115       -0.10857444810960
C            1.90365546397833       -2.55574277514583       -0.01969548601506
C            2.75775477004837       -1.38876443077159       -0.01372241206809
N            4.06169387577839       -1.55172191236954       -0.08389943503853
C            4.83598776124990       -0.45403803361811       -0.08089768251125
C            6.23443719653442       -0.59120043709942       -0.15163125682850
C            7.03501277008434        0.52728981946737       -0.15061772967424
C            8.44145038488423        0.39645881419847       -0.22047844290504
N            9.57940306552685        0.27411535280264       -0.27720738101656
C            6.45479535325207        1.82911654790093       -0.07893993383077
C            7.29824961947930        2.96515677972917       -0.07959370564834
N            7.96793252378612        3.89482527176423       -0.07915847761463
C            5.09071921487820        1.98186502676020       -0.00913637635333
C            4.25444282441773        0.84756117449378       -0.00745106547468
N            2.92591899969264        1.00531535610575        0.06587910855181
C            2.17194067457991       -0.08063653744531        0.06635353696966
C           -4.30399431683448       -0.56665506183664        0.47700950269534
C           -4.19878044015580       -1.62377259753949        1.37286613708554
C           -5.12327537327996       -2.65067987073485        1.33770828214229
C           -6.16525996231480       -2.60652839419496        0.42859808941804
C           -6.29639130248531       -1.52843823269327       -0.43073304078588
C           -5.37354904114928       -0.49413581855309       -0.42081715851074
H           -3.36503649090972        0.51420674697173       -1.98299160202085
H           -4.37182299731503        1.51126931604073       -3.03040274092887
H           -4.55676085520326       -0.24740039552610       -3.03464007863855
H           -6.80423268238979        1.75538577943525       -2.64239252214533
H           -6.98620448977286        0.01454307505695       -2.64517530290657
H           -7.60229587231561        0.95677724429507       -1.27762900070718
H           -6.63308170833788        3.26816855080617       -1.10416852246000
H           -6.00848343604008        5.07056885872491        0.41328448321074
H           -4.18075484910814        4.75144710626449        2.04416233371345
H           -2.96340553938099        2.60812196209150        2.11232102792772
H           -1.60589423040480        2.48603019760830        0.29549425340608
H            0.81833178309819        2.18032316254139        0.13213695713281
H           -2.11442331086738       -1.74916980106241        0.23859820568792
H           -1.33892994932516       -3.53163335297738        0.11406769643798
H           -0.30058980162769       -5.71274679088569       -0.04316510992813
H            2.15729911521579       -5.93303408117191       -0.18626879037703
H            3.56020541740505       -3.88256884584128       -0.16973108202277
H            6.65986655169935       -1.58171876205231       -0.20598739855448
H            4.64038490729556        2.96120615363309        0.04621292299193
H           -3.40490034614514       -1.62704551189775        2.10502421701500
H           -5.03634404134584       -3.47522196622348        2.02908697010193
H           -6.88990761083021       -3.40599334554953        0.39724384935664
H           -7.13094390382428       -1.50723852217856       -1.11231903784656

          :  Hamiltonian                  GFN2-xTB          :
         :: gradient norm              0.000034247152 Eh/a0 ::
         :: HOMO-LUMO gap              1.175855958210 eV    ::
         :: SCC energy              -107.540417607581 Eh    ::
         :: -> dispersion             -0.094526885134 Eh    ::
         :: repulsion energy           1.976727640156 Eh    ::

    * Orbital Energies and Occupations

         #    Occupation            Energy/Eh            Energy/eV
      -------------------------------------------------------------
         1        2.0000           -0.6885900             -18.7375
       ...           ...                  ...                  ...
        86        2.0000           -0.4305318             -11.7154
        87        2.0000           -0.4281600             -11.6508
        88        2.0000           -0.4264425             -11.6041
        89        2.0000           -0.4249128             -11.5625
        90        2.0000           -0.4211521             -11.4601
        91        2.0000           -0.4166599             -11.3379
        92        2.0000           -0.4149405             -11.2911
        93        2.0000           -0.4132813             -11.2460
        94        2.0000           -0.4118937             -11.2082
        95        2.0000           -0.4079204             -11.1001
        96        2.0000           -0.4002195             -10.8905
        97        2.0000           -0.3681693             -10.0184
        98        2.0000           -0.3615416              -9.8380 (HOMO)
        99                         -0.3183297              -8.6622 (LUMO)
       100                         -0.2930815              -7.9752
       101                         -0.2635734              -7.1722
       102                         -0.2600870              -7.0773
       103                         -0.2488741              -6.7722
       104                         -0.2423775              -6.5954
       105                         -0.2369105              -6.4467
       106                         -0.2361692              -6.4265
       107                         -0.2338477              -6.3633
       108                         -0.2142714              -5.8306
       109                         -0.2108230              -5.7368
       ...                                ...                  ...
       191                          1.1836570              32.2089
      -------------------------------------------------------------
                  HL-Gap            0.0432119 Eh            1.1759 eV

     #   Z          covCN         q      C6AA      α(0)
     1   6 C        3.762    -0.099    22.433     6.752
     2   6 C        3.911     0.023    20.130     6.377
     3   6 C        3.759    -0.107    22.602     6.778
     4   6 C        2.988    -0.006    28.169     8.706
     5   6 C        2.923    -0.037    28.931     8.821
     6   6 C        2.919    -0.035    28.881     8.813
     7   6 C        2.920    -0.032    28.804     8.801
     8   6 C        2.920    -0.045    29.119     8.849
     9   6 C        2.952     0.055    26.756     8.484
    10   7 N        2.755    -0.064    22.479     7.042
    11   6 C        2.909     0.072    26.389     8.423
    12   6 C        2.920    -0.056    29.388     8.890
    13   6 C        2.921    -0.026    28.655     8.778
    14   6 C        2.987    -0.016    28.393     8.741
    15   6 C        2.975     0.008    27.839     8.655
    16   6 C        2.928    -0.065    29.620     8.925
    17   6 C        2.976     0.009    27.824     8.652
    18   6 C        2.922    -0.033    28.821     8.804
    19   6 C        2.918    -0.025    28.626     8.774
    20   6 C        2.917    -0.027    28.684     8.782
    21   6 C        2.924    -0.025    28.630     8.775
    22   6 C        2.988    -0.001    28.047     8.687
    23   6 C        2.962     0.089    26.012     8.366
    24   7 N        1.849    -0.239    27.097     7.715
    25   6 C        2.966     0.083    26.154     8.388
    26   6 C        2.927    -0.029    28.726     8.790
    27   6 C        2.974     0.022    27.510     8.603
    28   6 C        1.911     0.114    28.283     8.589
    29   7 N        0.911    -0.217    25.733     7.337
    30   6 C        2.974     0.024    27.473     8.598
    31   6 C        1.912     0.115    28.271     8.587
    32   7 N        0.911    -0.216    25.702     7.332
    33   6 C        2.927    -0.030    28.751     8.793
    34   6 C        2.965     0.086    26.091     8.378
    35   7 N        1.849    -0.245    27.241     7.735
    36   6 C        2.960     0.089    26.027     8.368
    37   6 C        2.952     0.055    26.759     8.484
    38   6 C        2.920    -0.046    29.134     8.851
    39   6 C        2.920    -0.033    28.825     8.804
    40   6 C        2.919    -0.036    28.891     8.814
    41   6 C        2.923    -0.037    28.931     8.821
    42   6 C        2.987    -0.006    28.163     8.705
    43   1 H        0.925     0.036     2.503     2.474
    44   1 H        0.925     0.040     2.447     2.446
    45   1 H        0.925     0.039     2.457     2.451
    46   1 H        0.925     0.042     2.420     2.433
    47   1 H        0.925     0.042     2.426     2.435
    48   1 H        0.925     0.039     2.457     2.451
    49   1 H        0.926     0.042     2.425     2.435
    50   1 H        0.926     0.036     2.502     2.474
    51   1 H        0.926     0.037     2.486     2.465
    52   1 H        0.926     0.041     2.439     2.442
    53   1 H        0.926     0.042     2.427     2.436
    54   1 H        0.926     0.060     2.199     2.319
    55   1 H        0.926     0.041     2.434     2.440
    56   1 H        0.926     0.037     2.486     2.466
    57   1 H        0.926     0.037     2.485     2.465
    58   1 H        0.926     0.040     2.455     2.450
    59   1 H        0.926     0.061     2.183     2.311
    60   1 H        0.926     0.063     2.166     2.301
    61   1 H        0.926     0.063     2.167     2.302
    62   1 H        0.926     0.040     2.455     2.450
    63   1 H        0.926     0.036     2.504     2.475
    64   1 H        0.926     0.036     2.509     2.477
    65   1 H        0.926     0.042     2.424     2.435

molecular dipole:
                 x           y           z       tot (Debye)
 q only:       -4.446      -1.016      -0.099
   full:       -5.134      -1.351      -0.060      13.494

 projected vibrational frequencies (cm⁻¹)
eigval :       -0.00    -0.00    -0.00     0.00     0.00     0.00
eigval :       11.98    18.07    27.97    37.86    42.04    62.28
eigval :       65.36    76.81    82.91    95.99    98.57   109.26
eigval :      129.64   133.63   140.64   152.74   168.80   181.08
eigval :      188.85   189.49   216.39   222.97   234.67   276.04
eigval :      284.75   289.65   304.66   309.21   321.98   330.47
eigval :      345.88   350.57   361.24   372.45   380.62   393.79
eigval :      398.16   405.07   408.78   422.73   430.13   436.84
eigval :      451.59   456.37   459.02   474.94   499.11   501.07
eigval :      510.53   534.79   541.44   553.96   562.08   567.06
eigval :      575.13   585.63   589.80   594.58   605.88   614.75
eigval :      645.63   646.72   669.21   673.34   682.32   693.46
eigval :      703.53   711.74   725.53   729.92   739.95   749.50
eigval :      766.83   778.59   780.71   784.41   794.82   810.60
eigval :      820.89   847.22   851.68   868.17   871.09   876.84
eigval :      887.40   890.94   908.24   914.65   918.67   920.87
eigval :      923.31   926.27   929.74   937.63   942.05   944.92
eigval :      967.11   981.76  1010.27  1043.76  1062.60  1074.09
eigval :     1082.82  1096.45  1100.23  1107.29  1121.01  1138.31
eigval :     1144.09  1152.57  1163.34  1174.76  1177.56  1182.65
eigval :     1183.60  1190.61  1191.69  1195.88  1230.28  1233.96
eigval :     1244.85  1257.06  1267.86  1272.11  1275.03  1277.55
eigval :     1285.64  1292.63  1297.22  1319.07  1327.04  1328.11
eigval :     1340.45  1347.86  1359.00  1383.38  1400.28  1412.02
eigval :     1417.31  1421.98  1427.64  1436.87  1439.36  1442.70
eigval :     1449.79  1454.40  1473.42  1474.38  1486.35  1492.05
eigval :     1493.18  1496.33  1507.63  1520.02  1523.78  1536.45
eigval :     1562.37  1575.12  1576.39  1582.11  1585.14  1589.11
eigval :     1594.95  1600.76  2373.07  2375.28  3028.09  3030.65
eigval :     3032.92  3035.75  3047.26  3054.66  3079.38  3081.48
eigval :     3083.53  3087.86  3089.54  3091.50  3097.13  3098.96
eigval :     3100.10  3100.61  3102.14  3106.49  3110.95  3113.63
eigval :     3114.04  3117.08  3136.00

   temp. (K)  partition function   enthalpy   heat capacity  entropy
                                   cal/mol     cal/K/mol   cal/K/mol   J/K/mol
 298.15  VIB  0.368E+14            19099.580    123.356    116.490
         ROT  0.590E+08              888.752      2.981     38.538
         INT  0.217E+22            19988.333    126.337    155.028
         TR   0.121E+29             1481.254      4.968     44.711
         TOT                       21469.5867   131.3054   199.7388   835.7072

       T/K    H(0)-H(T)+PV         H(T)/Eh          T*S/Eh         G(T)/Eh
   ------------------------------------------------------------------------
    298.15    0.342140E-01    0.521736E+00    0.949024E-01    0.426834E+00
   ------------------------------------------------------------------------

         :::::::::::::::::::::::::::::::::::::::::::::::::::::
         ::                  THERMODYNAMIC                  ::
         :::::::::::::::::::::::::::::::::::::::::::::::::::::
         :: total free energy        -105.136855970733 Eh   ::
         ::.................................................::
         :: total energy             -105.563689967434 Eh   ::
         :: zero point energy           0.487522385724 Eh   ::
         :: G(RRHO) w/o ZPVE           -0.060688389023 Eh   ::
         :: G(RRHO) contrib.            0.426833996701 Eh   ::
         :::::::::::::::::::::::::::::::::::::::::::::::::::::

           -------------------------------------------------
          | TOTAL ENERGY             -105.563689967434 Eh   |
          | TOTAL ENTHALPY           -105.041953617434 Eh   |
          | TOTAL FREE ENERGY        -105.136855970733 Eh   |
          | GRADIENT NORM               0.000034108163 Eh/α |
          | HOMO-LUMO GAP               1.175855231871 eV   |
           -------------------------------------------------

 * finished run on 2025/07/19 at 23:46:50.983
