   * xtb version 6.7.1 (edcfbbe) compiled by 'albert@albert-system' on 2024-07-22

   ID    Z sym.   atoms
    1    6 C      1-9, 11-23, 25-28, 30, 31, 33, 34, 36-42
    2    7 N      10, 24, 29, 32, 35
    3    1 H      43-65

          program call               : xtb data2507/gas/3-AcBPdCN/3-AcBPdCN_gas_S0_finalOpt.xtbopt.xyz --gfn 2 --spinpol --tblite --uhf 2 --ohess vtight --parallel 40 --molden --ceasefiles --namespace data2507/gas/3-AcBPdCN/3-AcBPdCN_gas_T1_preOpt
 * total energy  :  -105.5185495 Eh     change        0.6074146E-09 Eh
 * total energy  :  -105.5218992 Eh     change       -0.3349711E-02 Eh
 * total energy  :  -105.5231261 Eh     change       -0.1226877E-02 Eh
 * total energy  :  -105.5232458 Eh     change       -0.1196828E-03 Eh
 * total energy  :  -105.5231580 Eh     change        0.8782682E-04 Eh
 * total energy  :  -105.5233163 Eh     change       -0.1583821E-03 Eh
 * total energy  :  -105.5232112 Eh     change        0.1051552E-03 Eh
 * total energy  :  -105.5233298 Eh     change       -0.1186240E-03 Eh
 * total energy  :  -105.5233313 Eh     change       -0.1456796E-05 Eh
 * total energy  :  -105.5233330 Eh     change       -0.1731965E-05 Eh
 * total energy  :  -105.5233384 Eh     change       -0.1050091E-05 Eh
 * total energy  :  -105.5233392 Eh     change       -0.8349744E-06 Eh
 * total energy  :  -105.5233398 Eh     change       -0.6581261E-06 Eh
 * total energy  :  -105.5233403 Eh     change       -0.4821863E-06 Eh
 * total energy  :  -105.5233410 Eh     change       -0.6668613E-06 Eh
 * total energy  :  -105.5233413 Eh     change       -0.2633129E-06 Eh
 * total energy  :  -105.5233415 Eh     change       -0.2879748E-06 Eh
 * total energy  :  -105.5233420 Eh     change       -0.4459354E-06 Eh
 * total energy  :  -105.5233421 Eh     change       -0.9281693E-07 Eh
   *** GEOMETRY OPTIMIZATION CONVERGED AFTER 22 ITERATIONS ***

 final structure:
================
65
 xtb: 6.7.1 (edcfbbe)
C           -4.37427096828200        0.62025983081291       -2.41174601689366
C           -5.45450365406734        0.73976912907733       -1.31743403642858
C           -6.81053484530715        0.89528095042125       -2.00486723340000
C           -5.12044228596451        1.91735462204517       -0.41817662976592
C           -5.79820661660772        3.12615377013453       -0.42298636785678
C           -5.43712375367248        4.14725906892504        0.44031087181580
C           -4.40934951126639        3.96205148542964        1.34767352044455
C           -3.72686798516652        2.76054620716811        1.37683210753153
C           -4.05768410791924        1.75455939876547        0.47693029509575
N           -3.40966717300833        0.50325008395458        0.51189272764066
C           -2.04363942087721        0.34679438374145        0.39613936831953
C           -1.19083867092211        1.46724917247995        0.30839598526843
C            0.15976226628142        1.30010000923795        0.20070602712358
C            0.74131287298343        0.02113698429965        0.15771302019218
C           -0.09896065960894       -1.11568268323958        0.16968367446584
C           -1.47575188511973       -0.91839315875532        0.27472522324468
C            0.49275483216846       -2.43312353026693        0.07525659408861
C           -0.26372876293221       -3.61342866323686        0.07095443222940
C            0.33231252059955       -4.84945846290522       -0.01524633634594
C            1.71986053677048       -4.95981730077855       -0.09940989579451
C            2.49114314448216       -3.82689768035477       -0.09641693370102
C            1.89871464674341       -2.55561988466859       -0.00998224274182
C            2.73982060481120       -1.40194984119770       -0.00899100598120
N            4.06003908382052       -1.50404019098379       -0.08564790018737
C            4.86673459201893       -0.45436349764258       -0.08760630112822
C            6.25262278772318       -0.56488889796512       -0.16858406611204
C            7.06344583115253        0.56627169242525       -0.16599938004034
C            8.46496716090114        0.42519003753452       -0.24944973355202
N            9.60212642192466        0.29285576124175       -0.31744436164061
C            6.48617216315303        1.84801130639590       -0.08047690454023
C            7.30621041665450        2.99588853284568       -0.07554927903812
N            7.95751816396989        3.94001693376299       -0.06986064253656
C            5.10286148962652        1.98516945888295       -0.00020609943741
C            4.27019135827090        0.86991498203961       -0.00203333342139
N            2.95034522880696        0.95707868556069        0.07017512995821
C            2.15561990780193       -0.10467671895052        0.07306414840228
C           -4.32106410140371       -0.57124136028193        0.46931585097917
C           -4.22145518458457       -1.63283868964658        1.36110238723491
C           -5.15386270682323       -2.65229619468475        1.32492745596246
C           -6.19782683934128       -2.59745614940644        0.41848946966200
C           -6.32296251399939       -1.51549574881745       -0.43695824230851
C           -5.39292222600279       -0.48786333306354       -0.42547921438042
H           -3.37987930014481        0.50499895401833       -1.98929215518112
H           -4.37960046453868        1.51315373722058       -3.03330761841405
H           -4.58039832329686       -0.24374131284383       -3.04006182261755
H           -6.80955266050229        1.77755280741742       -2.63990986621939
H           -7.00679844119117        0.03849310699694       -2.64453695976166
H           -7.61145677557118        0.98421908422508       -1.27430372908508
H           -6.61822584649779        3.28800830452523       -1.10329402039333
H           -5.97287610162534        5.08390367665497        0.41340517848211
H           -4.14690851900747        4.74524325552469        2.04248230482883
H           -2.95265306942767        2.58940268881295        2.10962817782539
H           -1.60348164183569        2.46271744670310        0.29667148811234
H            0.81376484451952        2.15628136555818        0.13819145333970
H           -2.12966886485866       -1.77188090953805        0.23900779753731
H           -1.33927875090901       -3.56612825922750        0.13482305235083
H           -0.27821396475138       -5.74016716747806       -0.01728603360922
H            2.18192629499659       -5.93317594817673       -0.16600936091439
H            3.56718853390412       -3.88144061426171       -0.15986778355766
H            6.69210903760976       -1.54806963408987       -0.23339751256943
H            4.65757731225491        2.96569842784084        0.06555288961080
H           -3.42687803727104       -1.64396471120119        2.09227999021438
H           -5.07162617357247       -3.47951924665219        2.01358311423041
H           -6.92855178730241       -3.39127409100990        0.38636548761638
H           -7.15877202752464       -1.48585322814738       -1.11665046724783

 projected vibrational frequencies (cm⁻¹)
eigval :       -0.00    -0.00    -0.00    -0.00     0.00     0.00
eigval :       12.03    18.15    31.59    37.67    41.62    62.17
eigval :       68.19    76.12    86.07    97.14    98.70   116.18
eigval :      127.76   134.78   138.20   152.98   161.30   180.18
eigval :      185.68   189.85   205.40   217.97   233.37   274.27
eigval :      278.40   285.55   297.47   305.69   314.55   328.79
eigval :      345.86   349.70   360.85   371.98   379.13   393.77
eigval :      396.38   404.55   410.09   415.15   425.21   429.02
eigval :      451.01   456.37   458.88   475.19   498.41   500.71
eigval :      516.54   533.52   535.48   551.71   559.28   564.83
eigval :      574.47   578.04   588.71   591.56   602.08   610.64
eigval :      613.39   640.27   645.30   665.55   670.85   672.26
eigval :      693.17   701.13   708.43   719.41   722.50   725.25
eigval :      728.84   772.35   778.23   783.11   794.34   802.57
eigval :      810.53   810.90   815.79   845.19   865.56   870.86
eigval :      886.02   890.38   905.98   908.80   911.15   911.85
eigval :      919.03   921.40   922.50   937.31   939.93   944.19
eigval :      963.57   971.66  1009.97  1035.22  1062.11  1074.02
eigval :     1082.32  1094.01  1099.89  1106.97  1119.25  1137.86
eigval :     1146.45  1152.27  1165.13  1174.56  1181.14  1183.00
eigval :     1188.12  1190.16  1193.72  1196.92  1223.39  1230.68
eigval :     1235.12  1251.54  1254.18  1260.05  1265.59  1269.04
eigval :     1274.41  1285.39  1291.26  1298.93  1319.80  1326.99
eigval :     1332.92  1337.33  1343.46  1361.30  1383.79  1393.64
eigval :     1399.87  1406.24  1416.43  1419.74  1427.55  1438.68
eigval :     1440.75  1452.64  1466.02  1469.50  1478.42  1485.63
eigval :     1492.42  1495.55  1499.15  1505.82  1506.93  1516.00
eigval :     1523.28  1548.19  1574.36  1577.46  1583.18  1587.42
eigval :     1589.62  1598.45  2359.83  2364.57  3028.55  3030.87
eigval :     3033.13  3035.92  3047.68  3054.09  3080.99  3082.51
eigval :     3083.96  3088.75  3089.17  3089.84  3095.84  3097.98
eigval :     3099.15  3099.33  3101.64  3101.98  3102.41  3114.12
eigval :     3114.30  3114.52  3136.31

   temp. (K)  partition function   enthalpy   heat capacity  entropy
                                   cal/mol     cal/K/mol   cal/K/mol   J/K/mol
 298.15  VIB  0.373E+14            19259.015    124.555    117.286
         ROT  0.593E+08              888.752      2.981     38.550
         INT  0.222E+22            20147.767    127.536    155.836
         TR   0.121E+29             1481.254      4.968     44.711
         TOT                       21629.0211   132.5044   200.5470   839.0886

       T/K    H(0)-H(T)+PV         H(T)/Eh          T*S/Eh         G(T)/Eh
   ------------------------------------------------------------------------
    298.15    0.344680E-01    0.519616E+00    0.952863E-01    0.424329E+00
   ------------------------------------------------------------------------

         :::::::::::::::::::::::::::::::::::::::::::::::::::::
         ::                  THERMODYNAMIC                  ::
         :::::::::::::::::::::::::::::::::::::::::::::::::::::
         :: total free energy        -105.099012859800 Eh   ::
         ::.................................................::
         :: total energy             -105.523342029455 Eh   ::
         :: zero point energy           0.485147473162 Eh   ::
         :: G(RRHO) w/o ZPVE           -0.060818303507 Eh   ::
         :: G(RRHO) contrib.            0.424329169654 Eh   ::
         :::::::::::::::::::::::::::::::::::::::::::::::::::::

           -------------------------------------------------
          | TOTAL ENERGY             -105.523342029455 Eh   |
          | TOTAL ENTHALPY           -105.003726517157 Eh   |
          | TOTAL FREE ENERGY        -105.099012859800 Eh   |
          | GRADIENT NORM               0.000163998361 Eh/α |
           -------------------------------------------------

 * finished run on 2025/07/19 at 23:46:56.506
