   * xtb version 6.7.1 (edcfbbe) compiled by 'albert@albert-system' on 2024-07-22

   ID    Z sym.   atoms
    1    6 C      1-9, 11-23, 25-28, 30, 31, 33, 34, 36-42
    2    7 N      10, 24, 29, 32, 35
    3    1 H      43-65

          program call               : xtb data2507/gas/3-AcBPdCN/3-AcBPdCN_gas_T1_crest.xyz --gfn 2 --spinpol --tblite --uhf 2 --ohess vtight --parallel 40 --molden --ceasefiles --namespace data2507/gas/3-AcBPdCN/3-AcBPdCN_gas_T1_finalOpt
 * total energy  :  -105.5271744 Eh     change       -0.1206971E-07 Eh
 * total energy  :  -105.5271905 Eh     change       -0.1606518E-04 Eh
 * total energy  :  -105.5271851 Eh     change        0.5358070E-05 Eh
 * total energy  :  -105.5271918 Eh     change       -0.6644643E-05 Eh
 * total energy  :  -105.5271947 Eh     change       -0.2942912E-05 Eh
 * total energy  :  -105.5271936 Eh     change        0.1130276E-05 Eh
 * total energy  :  -105.5271949 Eh     change       -0.1317183E-05 Eh
 * total energy  :  -105.5271949 Eh     change       -0.3086063E-07 Eh
 * total energy  :  -105.5271951 Eh     change       -0.1924206E-06 Eh
 * total energy  :  -105.5271954 Eh     change       -0.2447269E-06 Eh
 * total energy  :  -105.5271972 Eh     change       -0.4259058E-06 Eh
 * total energy  :  -105.5271975 Eh     change       -0.2679653E-06 Eh
 * total energy  :  -105.5271978 Eh     change       -0.3123696E-06 Eh
 * total energy  :  -105.5271993 Eh     change       -0.1545378E-05 Eh
 * total energy  :  -105.5271999 Eh     change       -0.5661634E-06 Eh
 * total energy  :  -105.5272001 Eh     change       -0.2456432E-06 Eh
 * total energy  :  -105.5272003 Eh     change       -0.1855617E-06 Eh
 * total energy  :  -105.5272005 Eh     change       -0.1195361E-06 Eh
 * total energy  :  -105.5272005 Eh     change       -0.5725326E-08 Eh
   *** GEOMETRY OPTIMIZATION CONVERGED AFTER 22 ITERATIONS ***

 final structure:
================
65
 xtb: 6.7.1 (edcfbbe)
C           -7.32425812600290       -0.36495001512882        0.18827080331883
C           -6.31239578683347        0.76673131367189       -0.07183583645001
C           -7.05206521457883        2.08865433156392       -0.35002199377368
C           -5.48612513730465        0.40921400914205       -1.29073112957352
C           -6.11358345524358        0.21617648710058       -2.51369718327714
C           -5.40600936048169       -0.10197856549241       -3.65823538357030
C           -4.02843020744997       -0.22923787103636       -3.59376504297384
C           -3.37846526956930       -0.04428884320331       -2.39349832880406
C           -4.09318495419551        0.26996926597761       -1.23127048973484
N           -3.41428663280331        0.44446778927862       -0.04042439706349
C           -1.99724356673412        0.29957920445538       -0.02659617395095
C           -1.18398483384791        1.43120208374576       -0.16516452477990
C            0.17645325437621        1.28144554003245       -0.15123565890138
C            0.76277634555726        0.01283854980380       -0.00309386030736
C           -0.05197182036105       -1.13555193268254        0.13633003629507
C           -1.44089800856123       -0.95225526009589        0.12183082566339
C            0.56480119221471       -2.43325514511178        0.28648944310256
C           -0.17382680846669       -3.61764624487526        0.42506978971395
C            0.44500846972356       -4.83670495036972        0.56575740702248
C            1.83693964442088       -4.92565763132019        0.57431390959555
C            2.58971920780017       -3.78777019857780        0.44048996503259
C            1.97481194807842       -2.53388848110910        0.29516498988808
C            2.79493702358070       -1.37026385096483        0.15542218960382
N            4.11865113326117       -1.46090110054897        0.16257447461910
C            4.90057831196411       -0.39392989848575        0.03301631999807
C            6.29066850179275       -0.48426981679754        0.03858496482332
C            7.08018267983108        0.65304403031142       -0.10012884943741
C            8.48637496502960        0.53724667083220       -0.09204260922453
N            9.62773523129467        0.42454192050844       -0.08334684724261
C            6.47630012969073        1.91784783441965       -0.24853081091246
C            7.27639471234726        3.07183746860423       -0.38936126397121
N            7.91000471737738        4.02070333701602       -0.50515079668215
C            5.09025563446780        2.03244323861956       -0.25701990557804
C            4.27910909165934        0.90706143563629       -0.12022552616257
N            2.95334314359493        0.98265147526977       -0.12647002254423
C            2.18639641942945       -0.09532209455251        0.00471105391818
C           -4.06307724203916        0.77319147279200        1.13441507379167
C           -3.32058686935978        0.93196249737570        2.31078082569092
C           -3.93880119929865        1.26211571681964        3.49658056512555
C           -5.31217162738598        1.43728016808438        3.53222313274653
C           -6.04881291761135        1.27340673087796        2.37359249597058
C           -5.45371146120190        0.94128099900273        1.16441746090324
H           -7.94889802686039       -0.13601630875191        1.04691055138822
H           -6.79670257405200       -1.29623214068895        0.38575908025013
H           -7.96996994722629       -0.51240679804286       -0.67264478369569
H           -7.69520580155903        1.99696148445477       -1.22052293901699
H           -7.66704475643795        2.37440413099332        0.49847922136270
H           -6.33280850934205        2.88388967184286       -0.53648257504634
H           -7.18592833405372        0.31657381563683       -2.58202627519114
H           -5.92575579631506       -0.24581979642482       -4.59277128226629
H           -3.45921197854349       -0.47143773044580       -4.47820371639742
H           -2.30483137996847       -0.14005110330903       -2.34778782036909
H           -1.64015246299981        2.40254179156115       -0.27991461876613
H            0.83268382830148        2.13155743940215       -0.25542185052792
H           -2.10881388461210       -1.79260398980392        0.22502775313753
H           -1.25160955208414       -3.58495215129212        0.42210012039890
H           -0.15043115361727       -5.73149802879201        0.67014104328501
H            2.31611717919200       -5.88651897265085        0.68535666010410
H            3.66821512347849       -3.82513369575129        0.44276855454005
H            6.74914584454726       -1.45422340303380        0.15260990724522
H            4.62464745787301        2.99912144546129       -0.37025220580241
H           -2.25100359138879        0.79265188752914        2.28713677071323
H           -3.34847943983589        1.38154167948279        4.39220302374709
H           -5.80693630934717        1.69691440807355        4.45525214181032
H           -7.11846299380940        1.40917417896129        2.41948544419078

 projected vibrational frequencies (cm⁻¹)
eigval :       -0.00    -0.00     0.00     0.00     0.00     0.00
eigval :        3.69    15.17    18.35    31.43    42.19    43.54
eigval :       75.21    77.52    80.91    96.36    97.26    98.92
eigval :      106.75   122.82   125.65   128.50   147.19   174.95
eigval :      176.57   191.44   209.66   217.91   228.32   239.35
eigval :      248.93   281.75   296.45   303.13   306.97   328.25
eigval :      330.39   342.74   361.53   368.39   379.02   381.63
eigval :      389.06   403.57   410.06   417.18   421.62   436.80
eigval :      449.50   454.74   457.50   476.61   503.58   509.55
eigval :      519.54   523.75   536.82   544.51   544.81   554.15
eigval :      563.88   585.33   590.78   601.47   608.25   619.25
eigval :      628.04   645.04   647.87   662.41   681.72   685.16
eigval :      686.65   697.27   702.61   709.34   725.96   726.68
eigval :      731.79   773.20   774.90   776.45   793.98   813.45
eigval :      818.44   819.07   828.36   860.22   866.87   867.72
eigval :      868.21   873.84   910.17   913.28   914.28   914.92
eigval :      915.66   915.98   922.60   922.79   924.48   937.92
eigval :      957.93   968.00  1013.72  1033.39  1062.22  1076.36
eigval :     1084.09  1094.04  1109.65  1115.72  1117.63  1139.72
eigval :     1141.82  1149.44  1155.22  1167.76  1179.61  1185.49
eigval :     1185.74  1187.90  1190.32  1195.39  1220.55  1233.35
eigval :     1243.25  1246.21  1247.58  1260.30  1263.16  1281.63
eigval :     1285.12  1294.17  1301.98  1314.37  1322.27  1323.38
eigval :     1333.95  1334.64  1338.27  1352.79  1375.06  1392.56
eigval :     1402.52  1407.45  1413.25  1418.38  1420.49  1432.17
eigval :     1433.56  1463.60  1464.02  1470.20  1481.82  1487.38
eigval :     1487.91  1488.81  1493.51  1498.75  1502.44  1507.89
eigval :     1521.22  1549.38  1563.24  1574.45  1579.75  1583.65
eigval :     1590.98  1595.20  2360.46  2364.75  3028.50  3030.47
eigval :     3043.88  3046.32  3052.20  3055.79  3081.79  3085.38
eigval :     3085.51  3089.68  3089.75  3090.50  3092.43  3099.46
eigval :     3099.49  3100.03  3101.49  3102.05  3102.58  3104.00
eigval :     3105.54  3105.72  3110.26

   temp. (K)  partition function   enthalpy   heat capacity  entropy
                                   cal/mol     cal/K/mol   cal/K/mol   J/K/mol
 298.15  VIB  0.824E+15            19543.974    124.287    121.391
         ROT  0.601E+08              888.752      2.981     38.575
         INT  0.495E+23            20432.726    127.267    159.966
         TR   0.121E+29             1481.254      4.968     44.711
         TOT                       21913.9802   132.2356   204.6775   856.3708

       T/K    H(0)-H(T)+PV         H(T)/Eh          T*S/Eh         G(T)/Eh
   ------------------------------------------------------------------------
    298.15    0.349222E-01    0.519248E+00    0.972489E-01    0.421999E+00
   ------------------------------------------------------------------------

         :::::::::::::::::::::::::::::::::::::::::::::::::::::
         ::                  THERMODYNAMIC                  ::
         :::::::::::::::::::::::::::::::::::::::::::::::::::::
         :: total free energy        -105.105201641524 Eh   ::
         ::.................................................::
         :: total energy             -105.527200421165 Eh   ::
         :: zero point energy           0.484325530089 Eh   ::
         :: G(RRHO) w/o ZPVE           -0.062326750449 Eh   ::
         :: G(RRHO) contrib.            0.421998779640 Eh   ::
         :::::::::::::::::::::::::::::::::::::::::::::::::::::

           -------------------------------------------------
          | TOTAL ENERGY             -105.527200421165 Eh   |
          | TOTAL ENTHALPY           -105.007952740722 Eh   |
          | TOTAL FREE ENERGY        -105.105201641524 Eh   |
          | GRADIENT NORM               0.000202201790 Eh/α |
           -------------------------------------------------

 * finished run on 2025/07/19 at 23:50:35.218
