   * xtb version 6.7.1 (edcfbbe) compiled by 'albert@albert-system' on 2024-07-22

   ID    Z sym.   atoms
    1    6 C      1-9, 11-23, 25-28, 30, 31, 33, 34, 36-42
    2    7 N      10, 24, 29, 32, 35
    3    1 H      43-65

          program call               : xtb data2507/gas/3-AcBPdCN/3-AcBPdCN.xyz --gfn 2 --ohess vtight --parallel 40 --molden --ceasefiles --namespace data2507/gas/3-AcBPdCN/3-AcBPdCN_gas_S0_preOpt
          :  Hamiltonian                  GFN2-xTB          :
 * total energy  :  -105.5368617 Eh     change       -0.4686086E-08 Eh
 * total energy  :  -105.5560763 Eh     change       -0.1921459E-01 Eh
 * total energy  :  -105.5615312 Eh     change       -0.5454973E-02 Eh
 * total energy  :  -105.5623742 Eh     change       -0.8429247E-03 Eh
 * total energy  :  -105.5628307 Eh     change       -0.4565341E-03 Eh
 * total energy  :  -105.5629232 Eh     change       -0.9246630E-04 Eh
 * total energy  :  -105.5629450 Eh     change       -0.2181061E-04 Eh
 * total energy  :  -105.5629134 Eh     change        0.3161038E-04 Eh
 * total energy  :  -105.5629629 Eh     change       -0.4956601E-04 Eh
 * total energy  :  -105.5629590 Eh     change        0.3977985E-05 Eh
 * total energy  :  -105.5629649 Eh     change       -0.5898705E-05 Eh
 * total energy  :  -105.5629571 Eh     change        0.7718766E-05 Eh
 * total energy  :  -105.5629674 Eh     change       -0.1023367E-04 Eh
 * total energy  :  -105.5629689 Eh     change       -0.1546443E-05 Eh
 * total energy  :  -105.5629695 Eh     change       -0.5586512E-06 Eh
 * total energy  :  -105.5629697 Eh     change       -0.1952885E-06 Eh
 * total energy  :  -105.5629698 Eh     change       -0.1445407E-06 Eh
 * total energy  :  -105.5629699 Eh     change       -0.7478245E-07 Eh
   *** GEOMETRY OPTIMIZATION CONVERGED AFTER 18 ITERATIONS ***

 final structure:
================
65
 xtb: 6.7.1 (edcfbbe)
C           -6.24936745045441       -0.76666110431067       -0.00012423049390
C           -5.32968451102356        0.46806104644963        0.00006012734369
C           -6.16969453565146        1.75812754071458        0.00027639755352
C           -4.48127353944839        0.44132032095552       -1.25751703120574
C           -5.09777493653094        0.46430932207989       -2.50089010272721
C           -4.37512457235523        0.44190648553256       -3.67956295456746
C           -2.99402044639390        0.39509083336565       -3.62633004064053
C           -2.35497436743985        0.37092710874041       -2.40449529559699
C           -3.08445207279360        0.39370187743546       -1.21268947545054
N           -2.41397881244496        0.36608572419412       -0.00000340830671
C           -0.99379850845238        0.33130989834163       -0.00002329243818
C           -0.26813729979169        1.52320578190974        0.00009783646911
C            1.10470734230394        1.47187402341663        0.00009465498802
C            1.77617755481505        0.24489960251859       -0.00002687568883
C            1.05484724844998       -0.96636005486090       -0.00013768392282
C           -0.34064406977735       -0.88760002241951       -0.00013892010784
C            1.76422765908596       -2.23879463277671       -0.00022511604719
C            1.09945393086461       -3.46984271175578       -0.00028146873275
C            1.79363484363236       -4.66084747481259       -0.00035427548329
C            3.18376659220147       -4.66808764803197       -0.00036490340112
C            3.86526871382801       -3.47326408897474       -0.00030490957783
C            3.17358344168204       -2.25834911988192       -0.00023681733107
C            3.91906514209617       -1.02058904353133       -0.00015043949349
N            5.23625520680721       -1.06547760233090       -0.00016791911876
C            5.90789515046090        0.09475506343549       -0.00004760085417
C            7.31693842564211        0.08366684454670       -0.00002961050753
C            8.01042163801305        1.26976432906623        0.00012811429811
C            9.42599288469794        1.26768389600348        0.00008627748604
N           10.57127806510457        1.25097972352759        0.00026981377471
C            7.31381727739682        2.51632965646995        0.00025921905864
C            8.05391972849671        3.72304910980740        0.00046224167260
N            8.64039544938666        4.70695958213090        0.00050879669428
C            5.94027508230912        2.54708762894791        0.00023190246007
C            5.21162860565250        1.34099765728170        0.00008424154165
N            3.87156733416990        1.37682385742655        0.00008215540416
C            3.22040349863266        0.23084807986048       -0.00002960805444
C           -3.08441298268718        0.39330975896090        1.21271381500423
C           -2.35489711509069        0.37015148578821        2.40448912595634
C           -2.99390381120627        0.39391776162029        3.62635211677773
C           -4.37500597812996        0.44071533008918        3.67964434473969
C           -5.09769400558696        0.46350127603992        2.50100191595912
C           -4.48123305918500        0.44091772073757        1.25760144244963
H           -5.64969049895973       -1.67511336306375       -0.00025562748131
H           -6.88594822845926       -0.77629857299717       -0.88048455864850
H           -6.88595611350622       -0.77655694807429        0.88022751034413
H           -6.80457544055454        1.80824287080591       -0.87990672309242
H           -6.80449384666883        1.80800852263916        0.88053163190183
H           -5.51385052131365        2.62681077430627        0.00036150758448
H           -6.17511442505125        0.50105353402346       -2.55828909372328
H           -4.88725362396793        0.46129964524807       -4.62933507113418
H           -2.41032702209747        0.37747475049033       -4.53459726468244
H           -1.27646241022341        0.33520612223588       -2.36928329843845
H           -0.79353374109593        2.46591909780455        0.00019694425085
H            1.69792788475155        2.37246220909933        0.00019207683264
H           -0.94792700230853       -1.77844380545157       -0.00022391293185
H            0.02217731532062       -3.50530259653546       -0.00026158974540
H            1.25047085953082       -5.59421422631680       -0.00040154417619
H            3.72166315166841       -5.60378993146079       -0.00040537803647
H            4.94327923568458       -3.44083411888267       -0.00029393102578
H            7.83139432439624       -0.86510233486419       -0.00013506490093
H            5.40146972791840        3.48225353612400        0.00033367399918
H           -1.27638632002508        0.33444499372566        2.36923441132724
H           -2.41017960354782        0.37601935847217        4.53459394323226
H           -4.88710307134170        0.45981792169487        4.62943965630628
H           -6.17503137143551        0.50023773726903        2.55844714235538

          :  Hamiltonian                  GFN2-xTB          :
         :: gradient norm              0.000109354167 Eh/a0 ::
         :: HOMO-LUMO gap              0.508152786460 eV    ::
         :: SCC energy              -107.540785965020 Eh    ::
         :: -> dispersion             -0.093400227019 Eh    ::
         :: repulsion energy           1.977816071849 Eh    ::

    * Orbital Energies and Occupations

         #    Occupation            Energy/Eh            Energy/eV
      -------------------------------------------------------------
         1        2.0000           -0.7026770             -19.1208
       ...           ...                  ...                  ...
        86        2.0000           -0.4367173             -11.8837
        87        2.0000           -0.4324176             -11.7667
        88        2.0000           -0.4309314             -11.7262
        89        2.0000           -0.4260116             -11.5924
        90        2.0000           -0.4171814             -11.3521
        91        2.0000           -0.4134297             -11.2500
        92        2.0000           -0.4114646             -11.1965
        93        2.0000           -0.4108912             -11.1809
        94        2.0000           -0.4072765             -11.0826
        95        2.0000           -0.4019315             -10.9371
        96        2.0000           -0.3966643             -10.7938
        97        2.0000           -0.3755484             -10.2192
        98        1.9999           -0.3512351              -9.5576 (HOMO)
        99        0.0001           -0.3325608              -9.0494 (LUMO)
       100                         -0.3057771              -8.3206
       101                         -0.2771238              -7.5409
       102                         -0.2729342              -7.4269
       103                         -0.2608491              -7.0981
       104                         -0.2298958              -6.2558
       105                         -0.2279887              -6.2039
       106                         -0.2241409              -6.0992
       107                         -0.2230506              -6.0695
       108                         -0.2224501              -6.0532
       109                         -0.2193320              -5.9683
       ...                                ...                  ...
       191                          1.1744349              31.9580
      -------------------------------------------------------------
                  HL-Gap            0.0186743 Eh            0.5082 eV

     #   Z          covCN         q      C6AA      α(0)
     1   6 C        3.761    -0.103    22.513     6.764
     2   6 C        3.909     0.021    20.156     6.381
     3   6 C        3.761    -0.103    22.517     6.764
     4   6 C        2.979    -0.014    28.354     8.735
     5   6 C        2.928    -0.036    28.889     8.814
     6   6 C        2.917    -0.044    29.102     8.846
     7   6 C        2.920    -0.033    28.815     8.803
     8   6 C        2.924    -0.059    29.476     8.903
     9   6 C        2.929     0.058    26.702     8.474
    10   7 N        2.756    -0.075    22.686     7.074
    11   6 C        2.927     0.078    26.254     8.403
    12   6 C        2.918    -0.036    28.888     8.814
    13   6 C        2.924    -0.025    28.621     8.773
    14   6 C        2.988    -0.003    28.092     8.694
    15   6 C        2.975     0.010    27.778     8.645
    16   6 C        2.925    -0.042    29.048     8.839
    17   6 C        2.976     0.010    27.788     8.647
    18   6 C        2.922    -0.031    28.770     8.796
    19   6 C        2.918    -0.023    28.569     8.765
    20   6 C        2.917    -0.025    28.628     8.774
    21   6 C        2.924    -0.024    28.600     8.770
    22   6 C        2.988     0.000    28.020     8.683
    23   6 C        2.961     0.090    25.992     8.362
    24   7 N        1.849    -0.233    26.953     7.694
    25   6 C        2.966     0.086    26.084     8.377
    26   6 C        2.927    -0.028    28.693     8.785
    27   6 C        2.974     0.026    27.410     8.588
    28   6 C        1.911     0.115    28.265     8.586
    29   7 N        0.911    -0.208    25.521     7.306
    30   6 C        2.974     0.026    27.410     8.588
    31   6 C        1.911     0.115    28.265     8.586
    32   7 N        0.911    -0.208    25.520     7.306
    33   6 C        2.926    -0.028    28.694     8.785
    34   6 C        2.966     0.086    26.084     8.377
    35   7 N        1.849    -0.234    26.969     7.697
    36   6 C        2.962     0.090    25.988     8.362
    37   6 C        2.929     0.058    26.702     8.474
    38   6 C        2.924    -0.059    29.476     8.903
    39   6 C        2.920    -0.033    28.815     8.803
    40   6 C        2.917    -0.044    29.102     8.846
    41   6 C        2.928    -0.036    28.889     8.814
    42   6 C        2.979    -0.014    28.354     8.735
    43   1 H        0.925     0.030     2.580     2.512
    44   1 H        0.925     0.040     2.454     2.450
    45   1 H        0.925     0.040     2.454     2.450
    46   1 H        0.925     0.040     2.453     2.449
    47   1 H        0.925     0.040     2.453     2.449
    48   1 H        0.925     0.031     2.566     2.505
    49   1 H        0.926     0.031     2.575     2.509
    50   1 H        0.926     0.027     2.628     2.535
    51   1 H        0.926     0.027     2.625     2.534
    52   1 H        0.926     0.020     2.738     2.588
    53   1 H        0.926     0.051     2.303     2.373
    54   1 H        0.926     0.068     2.105     2.269
    55   1 H        0.926     0.050     2.322     2.383
    56   1 H        0.926     0.043     2.412     2.428
    57   1 H        0.926     0.042     2.416     2.431
    58   1 H        0.926     0.044     2.399     2.422
    59   1 H        0.926     0.064     2.157     2.296
    60   1 H        0.926     0.067     2.116     2.275
    61   1 H        0.926     0.067     2.116     2.275
    62   1 H        0.926     0.020     2.738     2.588
    63   1 H        0.926     0.027     2.625     2.534
    64   1 H        0.926     0.027     2.628     2.535
    65   1 H        0.926     0.031     2.575     2.509

molecular dipole:
                 x           y           z       tot (Debye)
 q only:       -2.341      -1.525      -0.000
   full:       -2.970      -1.903      -0.000       8.967

 projected vibrational frequencies (cm⁻¹)
eigval :       -0.00    -0.00    -0.00     0.00     0.00     0.00
eigval :      -13.85    12.93    17.47    26.35    39.67    42.59
eigval :       71.11    72.63    75.74    96.83    97.92    99.59
eigval :      107.30   110.41   127.01   128.62   148.20   179.48
eigval :      182.04   190.56   214.09   219.48   226.86   237.61
eigval :      249.97   288.95   292.71   304.62   309.54   330.41
eigval :      333.69   344.55   361.61   368.11   373.91   380.93
eigval :      387.48   393.42   408.67   418.75   428.71   438.69
eigval :      447.71   455.66   457.45   475.41   491.53   512.80
eigval :      515.35   523.62   542.07   546.48   547.45   556.57
eigval :      566.24   586.67   593.53   603.57   612.54   631.95
eigval :      647.50   647.75   664.63   678.33   681.41   692.76
eigval :      695.47   702.30   714.21   733.30   739.72   749.37
eigval :      770.11   776.22   777.47   781.43   794.83   820.67
eigval :      831.60   848.69   864.24   864.46   866.21   867.80
eigval :      873.12   878.87   912.97   913.80   917.20   921.20
eigval :      921.23   921.40   924.82   925.12   930.75   938.86
eigval :      957.23   981.96  1014.26  1042.15  1060.23  1077.30
eigval :     1085.10  1096.27  1113.07  1119.06  1119.81  1137.43
eigval :     1140.97  1148.14  1160.79  1170.40  1173.91  1180.43
eigval :     1186.98  1187.55  1189.92  1193.03  1227.60  1236.88
eigval :     1244.93  1249.61  1264.29  1269.00  1274.21  1281.98
eigval :     1286.66  1294.45  1317.05  1319.17  1325.78  1334.19
eigval :     1337.22  1345.96  1351.28  1375.27  1402.89  1407.79
eigval :     1415.00  1421.01  1426.75  1431.77  1437.23  1444.45
eigval :     1448.36  1469.90  1475.55  1482.19  1489.89  1490.79
eigval :     1497.16  1498.77  1500.56  1505.40  1523.51  1544.31
eigval :     1563.09  1576.33  1577.46  1580.42  1591.40  1593.33
eigval :     1594.63  1602.98  2375.85  2376.90  3026.12  3028.53
eigval :     3040.04  3042.74  3048.79  3052.75  3078.43  3078.55
eigval :     3083.05  3083.17  3083.96  3091.35  3091.62  3094.97
eigval :     3097.32  3098.45  3099.22  3102.01  3102.13  3105.52
eigval :     3112.13  3113.03  3115.64

   temp. (K)  partition function   enthalpy   heat capacity  entropy
                                   cal/mol     cal/K/mol   cal/K/mol   J/K/mol
 298.15  VIB  0.385E+15            19467.189    123.212    120.173
         ROT  0.599E+08              888.752      2.981     38.568
         INT  0.230E+23            20355.942    126.193    158.740
         TR   0.121E+29             1481.254      4.968     44.711
         TOT                       21837.1955   131.1608   203.4514   851.2407

       T/K    H(0)-H(T)+PV         H(T)/Eh          T*S/Eh         G(T)/Eh
   ------------------------------------------------------------------------
    298.15    0.347998E-01    0.521180E+00    0.966663E-01    0.424514E+00
   ------------------------------------------------------------------------

         :::::::::::::::::::::::::::::::::::::::::::::::::::::
         ::                  THERMODYNAMIC                  ::
         :::::::::::::::::::::::::::::::::::::::::::::::::::::
         :: total free energy        -105.138456270092 Eh   ::
         ::.................................................::
         :: total energy             -105.562969893162 Eh   ::
         :: zero point energy           0.486380165916 Eh   ::
         :: G(RRHO) w/o ZPVE           -0.061866542847 Eh   ::
         :: G(RRHO) contrib.            0.424513623069 Eh   ::
         :::::::::::::::::::::::::::::::::::::::::::::::::::::

           -------------------------------------------------
          | TOTAL ENERGY             -105.562969893162 Eh   |
          | TOTAL ENTHALPY           -105.041789941074 Eh   |
          | TOTAL FREE ENERGY        -105.138456270092 Eh   |
          | GRADIENT NORM               0.000108945780 Eh/α |
          | HOMO-LUMO GAP               0.508153078874 eV   |
           -------------------------------------------------

 * finished run on 2025/07/19 at 23:43:55.785
