   * xtb version 6.7.1 (edcfbbe) compiled by 'albert@albert-system' on 2024-07-22

   ID    Z sym.   atoms
    1    6 C      1-7, 9-17, 19-25
    2    7 N      8, 18
    3    1 H      26-47

          program call               : xtb data2507/gas/ICZ/ICZ.xyz --gfn 2 --ohess vtight --parallel 40 --molden --ceasefiles --namespace data2507/gas/ICZ/ICZ_gas_S0_preOpt
          :  Hamiltonian                  GFN2-xTB          :
 * total energy  :   -66.3795979 Eh     change       -0.9791563E-09 Eh
 * total energy  :   -66.3884293 Eh     change       -0.8831433E-02 Eh
 * total energy  :   -66.3899968 Eh     change       -0.1567541E-02 Eh
 * total energy  :   -66.3901147 Eh     change       -0.1178873E-03 Eh
 * total energy  :   -66.3901533 Eh     change       -0.3858200E-04 Eh
 * total energy  :   -66.3901650 Eh     change       -0.1174945E-04 Eh
 * total energy  :   -66.3901715 Eh     change       -0.6452014E-05 Eh
 * total energy  :   -66.3901750 Eh     change       -0.3529343E-05 Eh
 * total energy  :   -66.3901768 Eh     change       -0.1807075E-05 Eh
 * total energy  :   -66.3901787 Eh     change       -0.1876153E-05 Eh
 * total energy  :   -66.3901817 Eh     change       -0.7572972E-07 Eh
 * total energy  :   -66.3901820 Eh     change       -0.3103234E-06 Eh
 * total energy  :   -66.3901824 Eh     change       -0.4112831E-06 Eh
 * total energy  :   -66.3901826 Eh     change       -0.2718946E-06 Eh
 * total energy  :   -66.3901830 Eh     change       -0.3067990E-06 Eh
 * total energy  :   -66.3901832 Eh     change       -0.2925669E-06 Eh
 * total energy  :   -66.3901835 Eh     change       -0.2889690E-06 Eh
 * total energy  :   -66.3901838 Eh     change       -0.2709252E-06 Eh
 * total energy  :   -66.3901839 Eh     change       -0.6146205E-07 Eh
   *** GEOMETRY OPTIMIZATION CONVERGED AFTER 22 ITERATIONS ***

 final structure:
================
47
 xtb: 6.7.1 (edcfbbe)
C           -1.65586002551065        4.51342495343815        1.36637739985011
C           -2.67154273981787        3.76698525814317        0.50924123798658
C           -2.02672078712352        2.92253249192890       -0.59020586761143
C           -1.23632661819524        1.73311561489626       -0.05062189497320
C           -0.69011378695843        0.85431824177030       -1.18186563305739
C            0.06705900933536       -0.32022017060202       -0.63396989880406
C            1.44354692698629       -0.26781022707012       -0.45273777509100
N            2.30163760703582        0.77951930639299       -0.71699318465921
C            3.58257845822729        0.41431626553267       -0.40522334110940
C            4.76003799772180        1.14009232730045       -0.50529359231773
C            5.93256389240445        0.52084361489696       -0.11685715608254
C            5.93791796537027       -0.78810537119156        0.36085992227505
C            4.76787714234495       -1.51439451935127        0.46382795368287
C            3.57569796432651       -0.91485375753449        0.07951310193765
C            2.20852996860865       -1.35285260001105        0.05259568793893
C            1.59647372065599       -2.54566223171183        0.40815873092176
C            0.22539232581968       -2.59835401217853        0.25375010577951
N           -0.61444253596419       -3.64968186852212        0.53638528014711
C           -1.90364569543681       -3.29324986324661        0.25299365335031
C           -3.06307917603203       -4.03961621846937        0.39573676948019
C           -4.26042225475580       -3.44523231595892        0.04953376177009
C           -4.29773233794458       -2.13547934286333       -0.42007343722782
C           -3.14379597160821       -1.38940775995797       -0.56311747482508
C           -1.91912455676108       -1.96302039270452       -0.23605087317445
C           -0.54866098603062       -1.51264293038287       -0.24664800770589
H           -1.03035675325986        3.82119306383399        1.92384779969284
H           -1.01506254827837        5.13448793237617        0.74356465958184
H           -2.16551385073085        5.15696983472172        2.07989626412507
H           -3.27985049254487        3.12163308104584        1.14691311455521
H           -3.33979820744434        4.49457941089974        0.04201698438253
H           -2.81411356018873        2.54994513562666       -1.25090603913566
H           -1.36874456570384        3.55619329967346       -1.19088130780919
H           -1.87975184250768        1.12717746983000        0.59072887140833
H           -0.39997315160558        2.08301542120673        0.55731180677708
H           -1.51256864221122        0.50016815132469       -1.80422512368235
H           -0.03670168267333        1.45368843982426       -1.82130129731071
H            2.02844093544100        1.67940424664255       -1.06982122859316
H            4.75967157104432        2.15514312635889       -0.87526648870605
H            6.86517785661194        1.06174381024577       -0.18469885315429
H            6.87530627751112       -1.23724041740537        0.65422669578338
H            4.77657087522170       -2.52828266593856        0.83517876151708
H            2.16087253475705       -3.38374045060500        0.78629561848895
H           -0.32206368804611       -4.53895269036131        0.90178230253321
H           -3.02675245618813       -5.05275193308858        0.76896447378267
H           -5.18120853733945       -4.00086215071737        0.14956441331828
H           -5.25032856009056       -1.69414487487015       -0.67426485722774
H           -3.21110001847249       -0.37392873316676       -0.91824103880809

          :  Hamiltonian                  GFN2-xTB          :
         :: gradient norm              0.000092371089 Eh/a0 ::
         :: HOMO-LUMO gap              2.638922577959 eV    ::
         :: SCC energy               -67.568696501669 Eh    ::
         :: -> dispersion             -0.053813736176 Eh    ::
         :: repulsion energy           1.178512635666 Eh    ::

    * Orbital Energies and Occupations

         #    Occupation            Energy/Eh            Energy/eV
      -------------------------------------------------------------
         1        2.0000           -0.6676128             -18.1667
       ...           ...                  ...                  ...
        50        2.0000           -0.4313473             -11.7376
        51        2.0000           -0.4260654             -11.5938
        52        2.0000           -0.4251663             -11.5694
        53        2.0000           -0.4226590             -11.5011
        54        2.0000           -0.4182695             -11.3817
        55        2.0000           -0.4136097             -11.2549
        56        2.0000           -0.4114498             -11.1961
        57        2.0000           -0.4071876             -11.0801
        58        2.0000           -0.3969226             -10.8008
        59        2.0000           -0.3928188             -10.6891
        60        2.0000           -0.3748410             -10.1999
        61        2.0000           -0.3605990              -9.8124
        62        2.0000           -0.3439867              -9.3604 (HOMO)
        63                         -0.2470081              -6.7214 (LUMO)
        64                         -0.2144540              -5.8356
        65                         -0.2115394              -5.7563
        66                         -0.1931463              -5.2558
        67                         -0.1770333              -4.8173
        68                         -0.1594664              -4.3393
        69                         -0.0858623              -2.3364
        70                         -0.0644404              -1.7535
        71                         -0.0465551              -1.2668
        72                          0.0168920               0.4597
        73                          0.0264872               0.7208
       ...                                ...                  ...
       122                          0.7569064              20.5965
      -------------------------------------------------------------
                  HL-Gap            0.0969786 Eh            2.6389 eV

     #   Z          covCN         q      C6AA      α(0)
     1   6 C        3.751    -0.102    22.504     6.765
     2   6 C        3.800    -0.053    21.526     6.606
     3   6 C        3.802    -0.056    21.583     6.614
     4   6 C        3.803    -0.054    21.545     6.608
     5   6 C        3.807    -0.058    21.610     6.618
     6   6 C        2.957    -0.017    28.427     8.745
     7   6 C        3.065     0.036    27.124     8.540
     8   7 N        2.756    -0.125    23.708     7.232
     9   6 C        3.065     0.055    26.705     8.474
    10   6 C        2.910    -0.057    29.419     8.894
    11   6 C        2.924    -0.034    28.841     8.807
    12   6 C        2.920    -0.044    29.088     8.844
    13   6 C        2.912    -0.034    28.839     8.806
    14   6 C        3.069    -0.018    28.378     8.735
    15   6 C        3.077    -0.018    28.362     8.731
    16   6 C        2.905    -0.065    29.622     8.924
    17   6 C        3.070     0.045    26.913     8.506
    18   7 N        2.752    -0.126    23.723     7.234
    19   6 C        3.067     0.055    26.702     8.473
    20   6 C        2.910    -0.057    29.421     8.894
    21   6 C        2.923    -0.034    28.848     8.808
    22   6 C        2.919    -0.045    29.120     8.849
    23   6 C        2.914    -0.037    28.917     8.818
    24   6 C        3.064    -0.015    28.330     8.728
    25   6 C        3.068    -0.027    28.598     8.769
    26   1 H        0.925     0.035     2.520     2.482
    27   1 H        0.925     0.032     2.552     2.498
    28   1 H        0.925     0.032     2.560     2.502
    29   1 H        0.924     0.031     2.572     2.508
    30   1 H        0.924     0.029     2.605     2.524
    31   1 H        0.924     0.027     2.630     2.536
    32   1 H        0.924     0.027     2.624     2.533
    33   1 H        0.924     0.037     2.492     2.468
    34   1 H        0.924     0.030     2.583     2.513
    35   1 H        0.924     0.041     2.432     2.439
    36   1 H        0.924     0.024     2.672     2.556
    37   1 H        0.860     0.156     1.364     1.830
    38   1 H        0.926     0.021     2.717     2.578
    39   1 H        0.926     0.026     2.639     2.540
    40   1 H        0.926     0.025     2.663     2.552
    41   1 H        0.926     0.027     2.626     2.534
    42   1 H        0.926     0.026     2.641     2.541
    43   1 H        0.860     0.154     1.375     1.837
    44   1 H        0.926     0.021     2.719     2.579
    45   1 H        0.926     0.026     2.648     2.545
    46   1 H        0.926     0.024     2.679     2.559
    47   1 H        0.926     0.032     2.558     2.501

molecular dipole:
                 x           y           z       tot (Debye)
 q only:       -0.120       0.176      -0.025
   full:       -0.107       0.156      -0.014       0.482

 projected vibrational frequencies (cm⁻¹)
eigval :       -0.00    -0.00     0.00     0.00     0.00     0.00
eigval :       16.56    32.98    42.63    45.20    82.19    96.70
eigval :      110.22   118.57   128.87   147.96   201.87   216.81
eigval :      222.97   252.93   261.78   266.59   290.31   322.56
eigval :      340.79   344.30   377.95   403.72   416.05   427.06
eigval :      431.55   444.52   460.51   504.32   513.40   529.89
eigval :      544.45   554.44   573.87   592.21   597.80   641.51
eigval :      657.51   683.64   696.89   704.04   712.51   732.10
eigval :      769.75   771.70   774.49   806.24   827.89   833.02
eigval :      858.88   861.65   863.04   863.42   876.70   896.78
eigval :      898.64   918.53   918.89   927.21   936.91   989.33
eigval :     1009.26  1030.04  1058.67  1068.54  1078.58  1084.75
eigval :     1113.90  1121.56  1129.56  1136.01  1140.90  1152.52
eigval :     1172.33  1178.61  1185.80  1191.38  1213.79  1216.17
eigval :     1243.35  1246.60  1260.53  1265.35  1273.87  1283.21
eigval :     1289.28  1315.53  1325.11  1334.15  1348.43  1354.08
eigval :     1354.23  1369.88  1372.04  1373.67  1416.16  1422.56
eigval :     1430.94  1437.49  1488.47  1490.07  1491.40  1495.01
eigval :     1498.85  1502.08  1508.04  1511.26  1535.96  1569.05
eigval :     1584.79  1589.03  1611.67  1614.14  1618.82  2952.94
eigval :     2955.91  2962.57  2972.49  2977.96  2982.28  2989.56
eigval :     2998.99  3028.16  3035.03  3045.89  3070.33  3071.32
eigval :     3075.97  3077.13  3083.30  3089.28  3090.80  3093.24
eigval :     3109.54  3494.14  3498.64

   temp. (K)  partition function   enthalpy   heat capacity  entropy
                                   cal/mol     cal/K/mol   cal/K/mol   J/K/mol
 298.15  VIB  0.116E+09            11603.796     76.718     70.135
         ROT  0.130E+08              888.752      2.981     35.526
         INT  0.151E+16            12492.548     79.699    105.661
         TR   0.571E+28             1481.254      4.968     43.225
         TOT                       13973.8024    84.6669   148.8857   622.9377

       T/K    H(0)-H(T)+PV         H(T)/Eh          T*S/Eh         G(T)/Eh
   ------------------------------------------------------------------------
    298.15    0.222687E-01    0.407504E+00    0.707404E-01    0.336764E+00
   ------------------------------------------------------------------------

         :::::::::::::::::::::::::::::::::::::::::::::::::::::
         ::                  THERMODYNAMIC                  ::
         :::::::::::::::::::::::::::::::::::::::::::::::::::::
         :: total free energy         -66.053420345410 Eh   ::
         ::.................................................::
         :: total energy              -66.390183866003 Eh   ::
         :: zero point energy           0.385235238777 Eh   ::
         :: G(RRHO) w/o ZPVE           -0.048471718184 Eh   ::
         :: G(RRHO) contrib.            0.336763520593 Eh   ::
         :::::::::::::::::::::::::::::::::::::::::::::::::::::

           -------------------------------------------------
          | TOTAL ENERGY              -66.390183866003 Eh   |
          | TOTAL ENTHALPY            -65.982679955704 Eh   |
          | TOTAL FREE ENERGY         -66.053420345410 Eh   |
          | GRADIENT NORM               0.000092386143 Eh/α |
          | HOMO-LUMO GAP               2.638922796167 eV   |
           -------------------------------------------------

 * finished run on 2025/09/10 at 17:54:08.171
