   * xtb version 6.7.1 (edcfbbe) compiled by 'albert@albert-system' on 2024-07-22

   ID    Z sym.   atoms
    1    6 C      1-7, 9-17, 19-25
    2    7 N      8, 18
    3    1 H      26-47

          program call               : xtb data2507/gas/ICZ/ICZ_gas_T1_crest.xyz --gfn 2 --spinpol --tblite --uhf 2 --ohess vtight --parallel 40 --molden --ceasefiles --namespace data2507/gas/ICZ/ICZ_gas_T1_finalOpt
 * total energy  :   -66.2970022 Eh     change       -0.7017917E-08 Eh
 * total energy  :   -66.2970826 Eh     change       -0.8047878E-04 Eh
 * total energy  :   -66.2971157 Eh     change       -0.3309793E-04 Eh
 * total energy  :   -66.2971189 Eh     change       -0.3161868E-05 Eh
 * total energy  :   -66.2971205 Eh     change       -0.1596994E-05 Eh
 * total energy  :   -66.2971196 Eh     change        0.8692644E-06 Eh
 * total energy  :   -66.2971209 Eh     change       -0.1240316E-05 Eh
 * total energy  :   -66.2971211 Eh     change       -0.1908205E-06 Eh
 * total energy  :   -66.2971213 Eh     change       -0.2678608E-06 Eh
 * total energy  :   -66.2971215 Eh     change       -0.1812719E-06 Eh
 * total energy  :   -66.2971217 Eh     change       -0.2215084E-06 Eh
 * total energy  :   -66.2971219 Eh     change       -0.1321227E-06 Eh
 * total energy  :   -66.2971220 Eh     change       -0.1021381E-06 Eh
 * total energy  :   -66.2971220 Eh     change       -0.5545536E-07 Eh
   *** GEOMETRY OPTIMIZATION CONVERGED AFTER 14 ITERATIONS ***

 final structure:
================
47
 xtb: 6.7.1 (edcfbbe)
C            1.22072067821227        4.75394932196696        1.87460273406150
C           -0.01162543210471        4.31746942735341        1.09188315921225
C            0.30349312505996        3.16851769574397        0.13719477337576
C           -0.92419376965267        2.73327283297643       -0.65709983978682
C           -0.62255009130062        1.55417547837291       -1.59964929539137
C           -0.31207368362562        0.30457468730114       -0.84451355228605
C            0.99430796270198       -0.12693020150215       -0.60425550884354
N            2.16155399619474        0.47702701620048       -1.00760554265540
C            3.24000790898406       -0.24208285660281       -0.58045877465841
C            4.59032434642542       -0.00601158808688       -0.75201872027421
C            5.47888673695587       -0.91913772790055       -0.20245354387136
C            5.01459727009132       -2.03990707531652        0.50054253461740
C            3.67314911052183       -2.28636898414325        0.67927574872886
C            2.74599792248473       -1.38182200755192        0.13731050293848
C            1.34011621547964       -1.29660158623737        0.11555088199368
C            0.31198811800631       -2.12347061200750        0.65961046186012
C           -0.98811206776334       -1.69731800203148        0.43877350159885
N           -2.13802489820720       -2.31514783671835        0.86335997742987
C           -3.22779993254092       -1.60143482718038        0.46155332589321
C           -4.56805504472464       -1.86014097236160        0.67314645157672
C           -5.48983678763114       -0.96213966050953        0.15766587052272
C           -5.05801000967601        0.16709404289151       -0.55146473108020
C           -3.72719533187946        0.43489559184111       -0.76959608676621
C           -2.75684551016989       -0.45289349704426       -0.26586405271235
C           -1.34664761394124       -0.52560929944226       -0.27539727831079
H            0.97535739701338        5.56620063335827        2.55474208107836
H            1.61463732550853        3.92431330661815        2.45777269495098
H            2.00153099202851        5.09741551703161        1.19895979150903
H           -0.79137787180785        4.00128950935696        1.78812169980152
H           -0.40020095810941        5.16561702000461        0.52285950355434
H            1.09096627907074        3.48768627133591       -0.55198860721373
H            0.68207486706984        2.32045917321734        0.71228154274782
H           -1.29001840854469        3.57637455612386       -1.24861526884836
H           -1.71388409038690        2.43820270132375        0.03580688576696
H           -1.49199939908637        1.37922201758838       -2.23580741279710
H            0.21186360244671        1.82510708895221       -2.25185912969440
H            2.21549544770400        1.33823438600699       -1.52558183323676
H            4.94218337099085        0.85912466754181       -1.29508545260436
H            6.54098300381697       -0.76721372850193       -0.31621978149552
H            5.74030990350834       -2.72703479193858        0.91221441113930
H            3.33356128815321       -3.15428718127972        1.22333240308920
H            0.54265543354364       -3.01968073564542        1.21077732952957
H           -2.16747334308882       -3.17133303484423        1.39224131871307
H           -4.88421094250363       -2.73459928645326        1.22313347937160
H           -6.54560907033991       -1.13081135445783        0.30108777987364
H           -5.80253350772624        0.84842916392071       -0.93871331463737
H           -3.44200968536182        1.31910680662930       -1.31577134187049

 projected vibrational frequencies (cm⁻¹)
eigval :       -0.00    -0.00     0.00     0.00     0.00     0.00
eigval :       21.53    31.39    42.59    61.31    82.57    85.65
eigval :      113.46   122.82   130.45   134.00   181.11   197.43
eigval :      207.27   235.07   253.90   266.14   297.67   308.49
eigval :      325.60   358.06   391.09   401.23   412.48   416.27
eigval :      432.48   485.05   491.61   497.24   508.35   514.93
eigval :      520.21   526.32   564.87   566.66   581.02   613.46
eigval :      632.86   648.60   655.02   674.12   680.71   698.89
eigval :      713.64   740.48   742.39   778.28   804.82   827.80
eigval :      830.78   832.51   844.88   852.02   865.19   865.28
eigval :      884.75   901.66   902.60   910.52   947.55   957.54
eigval :      999.01  1019.24  1047.18  1055.25  1057.74  1091.42
eigval :     1099.71  1107.39  1111.05  1121.22  1129.75  1140.31
eigval :     1146.73  1165.65  1179.54  1180.61  1199.36  1213.31
eigval :     1220.99  1229.30  1238.21  1260.46  1268.27  1274.86
eigval :     1281.95  1288.15  1305.53  1315.78  1327.61  1340.88
eigval :     1343.87  1350.85  1372.79  1373.32  1376.93  1389.59
eigval :     1405.12  1416.35  1418.17  1422.49  1464.38  1484.32
eigval :     1488.82  1492.61  1496.36  1499.06  1500.90  1504.39
eigval :     1506.62  1534.10  1550.16  1574.80  1585.77  2945.97
eigval :     2954.26  2961.81  2966.38  2979.17  2981.62  2983.88
eigval :     2995.17  3027.95  3032.68  3038.58  3070.02  3070.22
eigval :     3071.19  3071.78  3088.69  3096.91  3097.70  3105.47
eigval :     3108.26  3465.71  3467.96

   temp. (K)  partition function   enthalpy   heat capacity  entropy
                                   cal/mol     cal/K/mol   cal/K/mol   J/K/mol
 298.15  VIB  0.112E+09            11851.820     78.768     71.566
         ROT  0.117E+08              888.752      2.981     35.324
         INT  0.131E+16            12740.572     81.749    106.890
         TR   0.571E+28             1481.254      4.968     43.225
         TOT                       14221.8259    86.7168   150.1152   628.0819

       T/K    H(0)-H(T)+PV         H(T)/Eh          T*S/Eh         G(T)/Eh
   ------------------------------------------------------------------------
    298.15    0.226639E-01    0.403397E+00    0.713246E-01    0.332072E+00
   ------------------------------------------------------------------------

         :::::::::::::::::::::::::::::::::::::::::::::::::::::
         ::                  THERMODYNAMIC                  ::
         :::::::::::::::::::::::::::::::::::::::::::::::::::::
         :: total free energy         -65.965050103194 Eh   ::
         ::.................................................::
         :: total energy              -66.297122036672 Eh   ::
         :: zero point energy           0.380732579647 Eh   ::
         :: G(RRHO) w/o ZPVE           -0.048660646169 Eh   ::
         :: G(RRHO) contrib.            0.332071933478 Eh   ::
         :::::::::::::::::::::::::::::::::::::::::::::::::::::

           -------------------------------------------------
          | TOTAL ENERGY              -66.297122036672 Eh   |
          | TOTAL ENTHALPY            -65.893725534809 Eh   |
          | TOTAL FREE ENERGY         -65.965050103194 Eh   |
          | GRADIENT NORM               0.000139755762 Eh/α |
           -------------------------------------------------

 * finished run on 2025/09/10 at 18:10:34.889
