   * xtb version 6.7.1 (edcfbbe) compiled by 'albert@albert-system' on 2024-07-22

   ID    Z sym.   atoms
    1    6 C      1-7, 9-17, 19-25
    2    7 N      8, 18
    3    1 H      26-47

          program call               : xtb data2507/gas/ICZ/ICZ_gas_S0_crest.xyz --gfn 2 --ohess vtight --parallel 40 --molden --ceasefiles --namespace data2507/gas/ICZ/ICZ_gas_S0_finalOpt
          :  Hamiltonian                  GFN2-xTB          :
 * total energy  :   -66.3914058 Eh     change       -0.2448218E-08 Eh
 * total energy  :   -66.3914064 Eh     change       -0.6159138E-06 Eh
 * total energy  :   -66.3914073 Eh     change       -0.8737598E-06 Eh
 * total energy  :   -66.3914084 Eh     change       -0.1148329E-05 Eh
 * total energy  :   -66.3914090 Eh     change       -0.5676297E-06 Eh
 * total energy  :   -66.3914092 Eh     change       -0.2313458E-06 Eh
 * total energy  :   -66.3914094 Eh     change       -0.1933010E-06 Eh
 * total energy  :   -66.3914095 Eh     change       -0.1496124E-06 Eh
 * total energy  :   -66.3914097 Eh     change       -0.1321781E-06 Eh
 * total energy  :   -66.3914098 Eh     change       -0.8348491E-07 Eh
   *** GEOMETRY OPTIMIZATION CONVERGED AFTER 10 ITERATIONS ***

 final structure:
================
47
 xtb: 6.7.1 (edcfbbe)
C            1.16890036493371        4.75548694914637        1.87763633536602
C           -0.05680597086423        4.31228734034642        1.08833871673075
C            0.26996899146684        3.16809581205984        0.13208987910469
C           -0.95343910161227        2.72080226655044       -0.66309034300708
C           -0.64599308543179        1.54066188555529       -1.59503588130884
C           -0.32626514311460        0.29180485333930       -0.82466454315126
C            0.98448131151117       -0.11086492507923       -0.59838009291469
N            2.15205876846462        0.49752274324061       -1.01092220296942
C            3.22770417882374       -0.22711809129162       -0.57713307568249
C            4.58317033851247        0.00788734789218       -0.75247206727541
C            5.46957327712865       -0.89894900282642       -0.20379367261651
C            5.02271822989002       -2.01347881642252        0.50323457102339
C            3.67411399733642       -2.25093463991324        0.68193113852002
C            2.76257281629496       -1.35413912034277        0.14033100961718
C            1.32864031485036       -1.28176481238639        0.12957657090165
C            0.34435390947291       -2.09674108564747        0.66822033278527
C           -0.96072026466893       -1.69882164351439        0.45702699908991
N           -2.10997924090224       -2.32424205455109        0.87920356625559
C           -3.19815481922234       -1.61021435655017        0.46083638312844
C           -4.54298856405288       -1.87824804049483        0.66384199916620
C           -5.46415314011519       -0.99334025510469        0.13938758041051
C           -5.05008744516353        0.13291016937823       -0.56583672285594
C           -3.71038589619818        0.40329726927217       -0.76822966382934
C           -2.75604170433626       -0.47236452106983       -0.25960121708075
C           -1.31405536427245       -0.52577325087069       -0.26899888943962
H            1.95051366897227        5.10527195252814        1.20620801022378
H            0.91526719731642        5.56471653040958        2.55843749425224
H            1.56552800982492        3.92710216409129        2.46077678446757
H           -0.83719758454550        3.98893012080526        1.78072212220026
H           -0.44918769012612        5.15920059231901        0.51999117413348
H            1.05390453709952        3.49543592382946       -0.55697309998329
H            0.65714536719350        2.32320306794660        0.70583729916956
H           -1.32260704458320        3.56003679711624       -1.25846482224917
H           -1.74249401281509        2.42830935555520        0.03218283816161
H           -1.50731417478261        1.35155907251303       -2.23744412823997
H            0.19109703169213        1.80519271551369       -2.24561476543822
H            2.20703076051612        1.35897950903939       -1.52413580772671
H            4.93317186436013        0.87082777071851       -1.30016908931541
H            6.53144110170568       -0.74178711972432       -0.32495382720019
H            5.74724181211509       -2.69960922260708        0.91650062037442
H            3.33230815176697       -3.11558329668879        1.23105971953333
H            0.58628041450953       -2.99132026387624        1.22060027358920
H           -2.14049898974545       -3.17779375285030        1.40864862848795
H           -4.85590465030566       -2.75249747866376        1.21595902299754
H           -6.51951477339265       -1.17469129159350        0.28028908941109
H           -5.79343231097100        0.80997910702800       -0.96049455031075
H           -3.42619326323598        1.28921117617502       -1.31256137710677

          :  Hamiltonian                  GFN2-xTB          :
         :: gradient norm              0.000030213582 Eh/a0 ::
         :: HOMO-LUMO gap              2.637902677893 eV    ::
         :: SCC energy               -67.569594876437 Eh    ::
         :: -> dispersion             -0.054608569421 Eh    ::
         :: repulsion energy           1.178185110627 Eh    ::

    * Orbital Energies and Occupations

         #    Occupation            Energy/Eh            Energy/eV
      -------------------------------------------------------------
         1        2.0000           -0.6677898             -18.1715
       ...           ...                  ...                  ...
        50        2.0000           -0.4308327             -11.7236
        51        2.0000           -0.4287144             -11.6659
        52        2.0000           -0.4249515             -11.5635
        53        2.0000           -0.4226267             -11.5003
        54        2.0000           -0.4178474             -11.3702
        55        2.0000           -0.4136894             -11.2571
        56        2.0000           -0.4116384             -11.2013
        57        2.0000           -0.4074158             -11.0863
        58        2.0000           -0.3970206             -10.8035
        59        2.0000           -0.3929916             -10.6938
        60        2.0000           -0.3748177             -10.1993
        61        2.0000           -0.3606835              -9.8147
        62        2.0000           -0.3440679              -9.3626 (HOMO)
        63                         -0.2471268              -6.7247 (LUMO)
        64                         -0.2145048              -5.8370
        65                         -0.2115964              -5.7578
        66                         -0.1931600              -5.2562
        67                         -0.1770665              -4.8182
        68                         -0.1596033              -4.3430
        69                         -0.0858785              -2.3369
        70                         -0.0645276              -1.7559
        71                         -0.0465796              -1.2675
        72                          0.0161560               0.4396
        73                          0.0267102               0.7268
       ...                                ...                  ...
       122                          0.7566205              20.5887
      -------------------------------------------------------------
                  HL-Gap            0.0969411 Eh            2.6379 eV

     #   Z          covCN         q      C6AA      α(0)
     1   6 C        3.752    -0.102    22.504     6.765
     2   6 C        3.801    -0.053    21.526     6.606
     3   6 C        3.803    -0.057    21.602     6.617
     4   6 C        3.803    -0.055    21.563     6.611
     5   6 C        3.806    -0.057    21.600     6.616
     6   6 C        2.956    -0.015    28.389     8.739
     7   6 C        3.063     0.037    27.112     8.539
     8   7 N        2.757    -0.125    23.706     7.231
     9   6 C        3.065     0.055    26.702     8.473
    10   6 C        2.910    -0.057    29.418     8.894
    11   6 C        2.924    -0.034    28.841     8.807
    12   6 C        2.920    -0.044    29.090     8.845
    13   6 C        2.912    -0.034    28.841     8.806
    14   6 C        3.069    -0.018    28.386     8.736
    15   6 C        3.078    -0.018    28.367     8.732
    16   6 C        2.905    -0.065    29.623     8.924
    17   6 C        3.071     0.045    26.911     8.506
    18   7 N        2.752    -0.126    23.725     7.234
    19   6 C        3.067     0.055    26.700     8.473
    20   6 C        2.910    -0.057    29.422     8.894
    21   6 C        2.923    -0.034    28.846     8.808
    22   6 C        2.919    -0.045    29.119     8.849
    23   6 C        2.914    -0.037    28.928     8.820
    24   6 C        3.064    -0.015    28.332     8.728
    25   6 C        3.067    -0.026    28.592     8.768
    26   1 H        0.925     0.032     2.556     2.500
    27   1 H        0.925     0.033     2.542     2.493
    28   1 H        0.925     0.034     2.527     2.486
    29   1 H        0.924     0.029     2.594     2.519
    30   1 H        0.924     0.028     2.616     2.530
    31   1 H        0.924     0.023     2.692     2.566
    32   1 H        0.924     0.034     2.527     2.486
    33   1 H        0.924     0.027     2.626     2.534
    34   1 H        0.924     0.039     2.467     2.456
    35   1 H        0.924     0.042     2.425     2.435
    36   1 H        0.924     0.025     2.658     2.549
    37   1 H        0.860     0.156     1.363     1.829
    38   1 H        0.926     0.021     2.717     2.578
    39   1 H        0.926     0.026     2.640     2.541
    40   1 H        0.926     0.025     2.665     2.553
    41   1 H        0.926     0.027     2.629     2.535
    42   1 H        0.926     0.026     2.644     2.543
    43   1 H        0.860     0.154     1.375     1.837
    44   1 H        0.926     0.021     2.718     2.578
    45   1 H        0.926     0.026     2.646     2.544
    46   1 H        0.926     0.024     2.677     2.559
    47   1 H        0.926     0.031     2.574     2.509

molecular dipole:
                 x           y           z       tot (Debye)
 q only:       -0.049       0.173      -0.048
   full:       -0.047       0.152      -0.034       0.414

 projected vibrational frequencies (cm⁻¹)
eigval :       -0.00    -0.00     0.00     0.00     0.00     0.00
eigval :       23.98    32.93    45.43    64.18    86.05    90.21
eigval :      115.62   125.85   132.74   135.51   185.27   214.19
eigval :      220.85   235.76   264.34   265.77   307.81   335.98
eigval :      337.87   378.08   398.37   405.85   409.51   419.06
eigval :      427.38   438.71   444.88   503.94   513.11   531.05
eigval :      543.36   544.42   573.22   590.63   598.23   641.54
eigval :      647.64   683.47   690.87   704.07   712.18   728.22
eigval :      770.54   771.59   780.11   820.40   828.12   839.98
eigval :      861.16   862.56   863.27   863.32   890.21   898.07
eigval :      898.61   918.88   918.90   922.44   950.24   963.28
eigval :     1011.67  1026.19  1065.98  1072.17  1079.87  1097.99
eigval :     1108.13  1120.53  1125.09  1130.10  1140.86  1152.29
eigval :     1172.08  1178.07  1186.83  1195.29  1214.53  1216.52
eigval :     1224.44  1251.43  1260.48  1274.93  1279.62  1284.61
eigval :     1289.42  1315.00  1324.27  1330.56  1345.85  1348.11
eigval :     1353.86  1371.80  1373.68  1376.88  1416.76  1421.93
eigval :     1430.99  1437.62  1487.77  1488.61  1490.17  1495.51
eigval :     1497.86  1500.24  1505.23  1507.69  1535.59  1568.45
eigval :     1584.34  1589.02  1611.66  1614.21  1618.57  2947.95
eigval :     2959.10  2962.97  2966.56  2979.66  2983.29  2990.52
eigval :     2992.08  3027.90  3032.47  3037.88  3070.47  3071.40
eigval :     3075.86  3077.41  3083.20  3089.53  3090.76  3093.14
eigval :     3109.74  3494.29  3500.64

   temp. (K)  partition function   enthalpy   heat capacity  entropy
                                   cal/mol     cal/K/mol   cal/K/mol   J/K/mol
 298.15  VIB  0.578E+08            11565.846     77.123     69.728
         ROT  0.116E+08              888.752      2.981     35.309
         INT  0.671E+15            12454.598     80.104    105.038
         TR   0.571E+28             1481.254      4.968     43.225
         TOT                       13935.8524    85.0722   148.2628   620.3314

       T/K    H(0)-H(T)+PV         H(T)/Eh          T*S/Eh         G(T)/Eh
   ------------------------------------------------------------------------
    298.15    0.222082E-01    0.407464E+00    0.704444E-01    0.337020E+00
   ------------------------------------------------------------------------

         :::::::::::::::::::::::::::::::::::::::::::::::::::::
         ::                  THERMODYNAMIC                  ::
         :::::::::::::::::::::::::::::::::::::::::::::::::::::
         :: total free energy         -66.054389765358 Eh   ::
         ::.................................................::
         :: total energy              -66.391409765812 Eh   ::
         :: zero point energy           0.385256231631 Eh   ::
         :: G(RRHO) w/o ZPVE           -0.048236231177 Eh   ::
         :: G(RRHO) contrib.            0.337020000454 Eh   ::
         :::::::::::::::::::::::::::::::::::::::::::::::::::::

           -------------------------------------------------
          | TOTAL ENERGY              -66.391409765812 Eh   |
          | TOTAL ENTHALPY            -65.983945339812 Eh   |
          | TOTAL FREE ENERGY         -66.054389765358 Eh   |
          | GRADIENT NORM               0.000030233535 Eh/α |
          | HOMO-LUMO GAP               2.637902808454 eV   |
           -------------------------------------------------

 * finished run on 2025/09/10 at 18:02:00.320
