   * xtb version 6.7.1 (edcfbbe) compiled by 'albert@albert-system' on 2024-07-22

   ID    Z sym.   atoms
    1    6 C      1-7, 9-17, 19-25
    2    7 N      8, 18
    3    1 H      26-47

          program call               : xtb data2507/gas/ICZ/ICZ_gas_S0_finalOpt.xtbopt.xyz --gfn 2 --spinpol --tblite --uhf 2 --ohess vtight --parallel 40 --molden --ceasefiles --namespace data2507/gas/ICZ/ICZ_gas_T1_preOpt
 * total energy  :   -66.2930153 Eh     change       -0.6015981E-08 Eh
 * total energy  :   -66.2960453 Eh     change       -0.3029993E-02 Eh
 * total energy  :   -66.2969566 Eh     change       -0.9112676E-03 Eh
 * total energy  :   -66.2970481 Eh     change       -0.9154573E-04 Eh
 * total energy  :   -66.2971085 Eh     change       -0.6041079E-04 Eh
 * total energy  :   -66.2971183 Eh     change       -0.9790654E-05 Eh
 * total energy  :   -66.2971220 Eh     change       -0.3719172E-05 Eh
 * total energy  :   -66.2971229 Eh     change       -0.8446815E-06 Eh
 * total energy  :   -66.2971231 Eh     change       -0.2263985E-06 Eh
 * total energy  :   -66.2971232 Eh     change       -0.1224618E-06 Eh
 * total energy  :   -66.2971234 Eh     change       -0.1508761E-06 Eh
 * total energy  :   -66.2971235 Eh     change       -0.9329592E-07 Eh
   *** GEOMETRY OPTIMIZATION CONVERGED AFTER 12 ITERATIONS ***

 final structure:
================
47
 xtb: 6.7.1 (edcfbbe)
C            1.16653626996981        4.76135339078479        1.88107424853979
C           -0.05659322285423        4.31580761916595        1.08909197253078
C            0.27412020401455        3.17028052613537        0.13555261995018
C           -0.94565835604539        2.72463448748799       -0.66513778956837
C           -0.62995508013861        1.54641099137929       -1.60408862089903
C           -0.31171892461159        0.30115891072974       -0.84498630472361
C            0.99716397641962       -0.12120648193144       -0.60268093490985
N            2.16100623422469        0.48770486822431       -1.00872353657421
C            3.24355675230582       -0.22439257460379       -0.58011878519080
C            4.59250933513575        0.01728342962045       -0.75445164882992
C            5.48609379415052       -0.88995305082909       -0.20317668978257
C            5.02811384577660       -2.01041487457969        0.50445082877791
C            3.68814315293826       -2.26233830852294        0.68622739854432
C            2.75598461020203       -1.36398367757533        0.14237747536507
C            1.34977763878686       -1.28610723115634        0.12158696121370
C            0.32658222772873       -2.11647003515199        0.66984946452925
C           -0.97595602096547       -1.69945019789544        0.44677652071418
N           -2.12228421875002       -2.32259956707249        0.87346607078040
C           -3.21626374363590       -1.61851752976965        0.46632807294236
C           -4.55505210828043       -1.88535903375004        0.67711898846330
C           -5.48217006798118       -0.99700189251238        0.15461223553538
C           -5.05705220346101        0.13088903089972       -0.56069276219824
C           -3.72779500524553        0.40692799329776       -0.77782299974945
C           -2.75206103027080       -0.47072285717327       -0.26671996869353
C           -1.34144286736144       -0.53366978801799       -0.27361964341799
H            1.94923738512045        5.11228771202054        1.21150048475652
H            0.90958107957258        5.57051240274456        2.56063237050956
H            1.56314916348705        3.93413788470389        2.46585018937819
H           -0.83870192544793        3.99269424182336        1.77949685358634
H           -0.44793963488138        5.16141269905139        0.51818329883026
H            1.06241593161167        3.49659793716090       -0.54929648152115
H            0.65712793202416        2.32525716660518        0.71220317145707
H           -1.31460932655955        3.56406007465695       -1.25993179505553
H           -1.73686514111083        2.42462629649009        0.02389147871793
H           -1.49533029115426        1.36266335370971       -2.24336482567650
H            0.20467203551212        1.82324779313406       -2.25349535816662
H            2.20988563561288        1.34718139029124       -1.53005907080230
H            4.93979601808891        0.88198895128665       -1.30112060473136
H            6.54728739431902       -0.73364603816878       -0.31939630796417
H            5.75762754529405       -2.69288656119298        0.91716106323896
H            3.35323750914658       -3.12991854568973        1.23370225833053
H            0.56293900947807       -3.00864715149010        1.22514163973623
H           -2.14644060079232       -3.17615919427309        1.40684372379640
H           -4.86617607425836       -2.75879889520134        1.23156925454875
H           -6.53698584081224       -1.17240384785121        0.29703662041992
H           -5.80565989225785        0.80436518824939       -0.95378755005657
H           -3.44792036260953        1.28959953122827       -1.32920139632561

 projected vibrational frequencies (cm⁻¹)
eigval :       -0.00    -0.00    -0.00     0.00     0.00     0.00
eigval :       21.47    31.35    42.65    61.24    82.39    85.92
eigval :      113.36   122.95   130.54   133.94   181.18   197.44
eigval :      207.24   235.16   254.07   266.10   297.71   308.41
eigval :      325.54   358.14   391.16   401.22   412.36   416.36
eigval :      432.45   485.06   491.53   497.22   508.20   514.86
eigval :      520.26   526.34   564.80   566.70   581.12   613.47
eigval :      632.89   648.76   655.04   674.15   680.74   699.08
eigval :      713.58   740.59   742.46   778.11   804.52   828.13
eigval :      830.86   832.39   844.68   851.74   865.34   865.47
eigval :      884.96   901.80   902.80   910.43   947.60   957.55
eigval :      998.77  1019.25  1046.89  1054.90  1057.38  1091.49
eigval :     1099.84  1107.45  1111.15  1121.25  1129.99  1139.98
eigval :     1146.97  1165.92  1179.51  1180.76  1199.31  1213.47
eigval :     1221.03  1229.58  1238.57  1260.81  1268.28  1275.05
eigval :     1282.12  1288.04  1305.96  1316.02  1327.86  1340.95
eigval :     1343.94  1350.91  1373.28  1373.50  1377.24  1390.00
eigval :     1405.18  1416.46  1418.46  1422.55  1464.82  1484.58
eigval :     1489.24  1492.81  1496.75  1499.46  1501.12  1504.76
eigval :     1507.20  1534.19  1550.25  1574.98  1585.98  2946.08
eigval :     2954.62  2961.68  2966.30  2978.93  2981.29  2983.71
eigval :     2995.37  3027.98  3032.76  3038.58  3070.19  3070.44
eigval :     3071.48  3072.08  3088.90  3097.05  3097.97  3105.76
eigval :     3108.44  3465.90  3468.24

   temp. (K)  partition function   enthalpy   heat capacity  entropy
                                   cal/mol     cal/K/mol   cal/K/mol   J/K/mol
 298.15  VIB  0.112E+09            11851.347     78.764     71.565
         ROT  0.117E+08              888.752      2.981     35.324
         INT  0.131E+16            12740.099     81.744    106.888
         TR   0.571E+28             1481.254      4.968     43.225
         TOT                       14221.3531    86.7125   150.1131   628.0734

       T/K    H(0)-H(T)+PV         H(T)/Eh          T*S/Eh         G(T)/Eh
   ------------------------------------------------------------------------
    298.15    0.226632E-01    0.403421E+00    0.713236E-01    0.332098E+00
   ------------------------------------------------------------------------

         :::::::::::::::::::::::::::::::::::::::::::::::::::::
         ::                  THERMODYNAMIC                  ::
         :::::::::::::::::::::::::::::::::::::::::::::::::::::
         :: total free energy         -65.965025583636 Eh   ::
         ::.................................................::
         :: total energy              -66.297123431641 Eh   ::
         :: zero point energy           0.380758273698 Eh   ::
         :: G(RRHO) w/o ZPVE           -0.048660425693 Eh   ::
         :: G(RRHO) contrib.            0.332097848006 Eh   ::
         :::::::::::::::::::::::::::::::::::::::::::::::::::::

           -------------------------------------------------
          | TOTAL ENERGY              -66.297123431641 Eh   |
          | TOTAL ENTHALPY            -65.893701989187 Eh   |
          | TOTAL FREE ENERGY         -65.965025583636 Eh   |
          | GRADIENT NORM               0.000087195210 Eh/α |
           -------------------------------------------------

 * finished run on 2025/09/10 at 18:02:06.945
