   * xtb version 6.7.1 (edcfbbe) compiled by 'albert@albert-system' on 2024-07-22

   ID    Z sym.   atoms
    1    6 C      1-5, 7-13, 15, 17-32, 34-41, 43, 44
    2    7 N      6, 14, 16, 33, 42
    3    1 H      45-69

          program call               : xtb data2507/gas/DIC-TRZ/DIC-TRZ_gas_S0_crest.xyz --gfn 2 --ohess vtight --parallel 40 --molden --ceasefiles --namespace data2507/gas/DIC-TRZ/DIC-TRZ_gas_S0_finalOpt
          :  Hamiltonian                  GFN2-xTB          :
 * total energy  :  -110.9764701 Eh     change       -0.3345832E-08 Eh
 * total energy  :  -110.9764708 Eh     change       -0.6988668E-06 Eh
 * total energy  :  -110.9764713 Eh     change       -0.5258660E-06 Eh
 * total energy  :  -110.9764722 Eh     change       -0.8753980E-06 Eh
 * total energy  :  -110.9764725 Eh     change       -0.3420227E-06 Eh
 * total energy  :  -110.9764729 Eh     change       -0.3443141E-06 Eh
 * total energy  :  -110.9764734 Eh     change       -0.4982965E-06 Eh
 * total energy  :  -110.9764738 Eh     change       -0.4383589E-06 Eh
 * total energy  :  -110.9764741 Eh     change       -0.2941458E-06 Eh
 * total energy  :  -110.9764744 Eh     change       -0.2662944E-06 Eh
 * total energy  :  -110.9764746 Eh     change       -0.2065516E-06 Eh
 * total energy  :  -110.9764747 Eh     change       -0.1302412E-06 Eh
 * total energy  :  -110.9764748 Eh     change       -0.1231666E-06 Eh
 * total energy  :  -110.9764749 Eh     change       -0.1230961E-06 Eh
 * total energy  :  -110.9764751 Eh     change       -0.1233147E-06 Eh
 * total energy  :  -110.9764752 Eh     change       -0.9967195E-07 Eh
   *** GEOMETRY OPTIMIZATION CONVERGED AFTER 16 ITERATIONS ***

 final structure:
================
69
 xtb: 6.7.1 (edcfbbe)
C            6.86032637882071        0.61785930530563        0.98421201254456
C            6.30331752178483        1.64543872444960        0.23872495406886
C            4.97992719665454        1.57972249725937       -0.15172836541939
C            4.20299457643215        0.47811750364918        0.20020354365838
C            2.80029512177892        0.40919476001135       -0.20613992205128
N            2.25247626626279        1.49234097835015       -0.74691300685056
C            0.96384846746809        1.39917078707326       -1.05903497818634
C            0.30004546615228        2.56555712322953       -1.63719134134706
C            0.98516451358112        3.77142983995962       -1.76466866896177
C            0.34081570781421        4.88034587922054       -2.27835648850256
C           -0.98754247699085        4.79534456148621       -2.66607661136431
C           -1.67288327269417        3.59611383849687       -2.54312353131796
C           -1.03435881908375        2.48295482282032       -2.03247448596502
N            0.22759599295182        0.31315391958491       -0.86046666762905
C            0.86750225907566       -0.72223119669736       -0.32841021895259
N            0.13907152526766       -1.86688386469202       -0.14226221691730
C            0.62403140421629       -3.14359041295129       -0.43232303858980
C            1.92964018082648       -3.59441346652614       -0.50331256015213
C            2.13403328606935       -4.92144129504482       -0.84093618930479
C            1.06855218623329       -5.77511088310237       -1.10749916424351
C           -0.23564910964630       -5.32206221803655       -1.05083309801448
C           -0.46323239254133       -3.99592062138757       -0.71068215530632
C           -1.66388766273261       -3.21513692098340       -0.55955093010773
C           -3.00596452612814       -3.54937795608368       -0.73983287588284
C           -3.96787412488874       -2.59214814597211       -0.51472340643004
C           -3.58757460377630       -1.34431805887574       -0.02218524994500
C           -4.36854758348573       -0.22057163317385        0.40552912866182
C           -5.73439096309925        0.03413754577347        0.41351278040273
C           -6.18246557155178        1.21898142887826        0.95963614015481
C           -5.28746268240864        2.13004513859549        1.51614608988132
C           -3.92565477459540        1.89656893947675        1.52046848724635
C           -3.46323270753528        0.72544404010543        0.93598893675798
N           -2.17295225540131        0.24001964087644        0.81901679460605
C           -1.05608413738414        0.79851378120235        1.45569191844948
C           -0.76839305418716        2.15471616609602        1.32764146104363
C            0.35927119120210        2.68062485665647        1.92894128541216
C            1.20582584377402        1.86860774296278        2.66592028076813
C            0.90628771165527        0.52568579720575        2.81872624349772
C           -0.22419186761462       -0.00843244398522        2.22832283999752
C           -2.23245382232516       -1.00736473147287        0.22339360085892
C           -1.25812598737434       -1.92383564921008       -0.16384474786636
N            2.15263224245633       -0.73252389723527        0.00345350988610
C            4.76650628606070       -0.55085182921004        0.95205775451731
C            6.08991645125654       -0.47804580518929        1.34105825312180
H            7.89546288756408        0.67165764693128        1.28854651431358
H            6.90554873943621        2.49863550398439       -0.03738524569857
H            4.52826732528348        2.36774802631238       -0.73333098082340
H            2.01569912771153        3.81783906992447       -1.44982362994570
H            0.87168416667163        5.81612194306576       -2.37575433692349
H           -1.48982051962505        5.66502192658660       -3.06416914297426
H           -2.70827970876655        3.53214105344101       -2.84433025918072
H           -1.55114264618953        1.54159680453201       -1.92752022566683
H            2.75384471129353       -2.93000561429046       -0.30342183703140
H            3.14348755552614       -5.30107552081959       -0.89659467736654
H            1.26685402284585       -6.80508604063616       -1.36472341178900
H           -1.06267012947031       -5.98162660291820       -1.26536474271604
H           -3.27336292156909       -4.54382024846904       -1.06081092185698
H           -5.01262906862469       -2.80554678928937       -0.67918624229229
H           -6.42634030529938       -0.68590588783361        0.00361611400968
H           -7.23918268865227        1.44088635840907        0.97181526804916
H           -5.66667547479180        3.03880287585723        1.95996387356497
H           -3.25218326898724        2.60176721981207        1.98158814892201
H           -1.39682033120566        2.77994254522728        0.71282704499707
H            0.58845767436346        3.72838525306523        1.80217383023472
H            2.09767108797830        2.27941573830751        3.11453547953742
H            1.55827566180598       -0.11275120456327        3.39628942335453
H           -0.46238474267024       -1.05424368499046        2.35651457292117
H            4.15036410894533       -1.39253409224045        1.22748909910831
H            6.52509397797580       -1.27593592810100        1.92492686292550

          :  Hamiltonian                  GFN2-xTB          :
         :: gradient norm              0.000039492090 Eh/a0 ::
         :: HOMO-LUMO gap              1.883231229018 eV    ::
         :: SCC energy              -113.011227014936 Eh    ::
         :: -> dispersion             -0.110227336580 Eh    ::
         :: repulsion energy           2.034751845699 Eh    ::

    * Orbital Energies and Occupations

         #    Occupation            Energy/Eh            Energy/eV
      -------------------------------------------------------------
         1        2.0000           -0.6894208             -18.7601
       ...           ...                  ...                  ...
        91        2.0000           -0.4123750             -11.2213
        92        2.0000           -0.4121739             -11.2158
        93        2.0000           -0.4102284             -11.1629
        94        2.0000           -0.4089181             -11.1272
        95        2.0000           -0.4076352             -11.0923
        96        2.0000           -0.4059594             -11.0467
        97        2.0000           -0.4030241             -10.9668
        98        2.0000           -0.4012113             -10.9175
        99        2.0000           -0.3832658             -10.4292
       100        2.0000           -0.3749881             -10.2039
       101        2.0000           -0.3740062             -10.1772
       102        2.0000           -0.3686952             -10.0327
       103        2.0000           -0.3563589              -9.6970 (HOMO)
       104                         -0.2871515              -7.8138 (LUMO)
       105                         -0.2736781              -7.4472
       106                         -0.2525129              -6.8712
       107                         -0.2315820              -6.3017
       108                         -0.2299264              -6.2566
       109                         -0.2294105              -6.2426
       110                         -0.2281779              -6.2090
       111                         -0.2244313              -6.1071
       112                         -0.2219379              -6.0392
       113                         -0.2187756              -5.9532
       114                         -0.2000307              -5.4431
       ...                                ...                  ...
       201                          0.7596191              20.6703
      -------------------------------------------------------------
                  HL-Gap            0.0692074 Eh            1.8832 eV

     #   Z          covCN         q      C6AA      α(0)
     1   6 C        2.920    -0.024    28.593     8.769
     2   6 C        2.918    -0.027    28.681     8.782
     3   6 C        2.924    -0.023    28.580     8.767
     4   6 C        2.985     0.001    28.000     8.680
     5   6 C        2.995     0.204    23.665     7.980
     6   7 N        1.844    -0.305    28.748     7.946
     7   6 C        2.993     0.206    23.643     7.976
     8   6 C        2.985     0.001    28.001     8.680
     9   6 C        2.924    -0.023    28.584     8.768
    10   6 C        2.918    -0.027    28.688     8.783
    11   6 C        2.920    -0.024    28.592     8.769
    12   6 C        2.918    -0.027    28.681     8.782
    13   6 C        2.924    -0.022    28.546     8.762
    14   7 N        1.850    -0.322    29.203     8.009
    15   6 C        2.940     0.265    22.541     7.787
    16   7 N        2.808    -0.052    22.242     7.004
    17   6 C        3.060     0.054    26.727     8.478
    18   6 C        2.910    -0.046    29.147     8.853
    19   6 C        2.925    -0.032    28.804     8.801
    20   6 C        2.920    -0.037    28.926     8.820
    21   6 C        2.914    -0.033    28.822     8.803
    22   6 C        3.066    -0.010    28.203     8.708
    23   6 C        3.062    -0.015    28.325     8.728
    24   6 C        2.914    -0.043    29.073     8.842
    25   6 C        2.914    -0.040    28.985     8.828
    26   6 C        3.069    -0.019    28.409     8.740
    27   6 C        3.069    -0.015    28.312     8.725
    28   6 C        2.913    -0.033    28.823     8.804
    29   6 C        2.920    -0.040    29.003     8.831
    30   6 C        2.924    -0.034    28.839     8.807
    31   6 C        2.910    -0.050    29.245     8.868
    32   6 C        3.073     0.048    26.859     8.497
    33   7 N        2.799    -0.034    21.893     6.949
    34   6 C        2.913     0.069    26.459     8.435
    35   6 C        2.922    -0.042    29.052     8.839
    36   6 C        2.920    -0.027    28.687     8.783
    37   6 C        2.919    -0.033    28.833     8.805
    38   6 C        2.920    -0.027    28.672     8.781
    39   6 C        2.923    -0.044    29.090     8.845
    40   6 C        3.060     0.041    27.033     8.526
    41   6 C        3.049     0.039    27.080     8.535
    42   7 N        1.846    -0.317    29.061     7.989
    43   6 C        2.924    -0.023    28.583     8.768
    44   6 C        2.918    -0.027    28.685     8.783
    45   1 H        0.926     0.037     2.484     2.465
    46   1 H        0.926     0.038     2.482     2.463
    47   1 H        0.926     0.055     2.254     2.348
    48   1 H        0.926     0.055     2.257     2.349
    49   1 H        0.926     0.037     2.484     2.465
    50   1 H        0.926     0.037     2.483     2.464
    51   1 H        0.926     0.038     2.478     2.462
    52   1 H        0.926     0.056     2.251     2.346
    53   1 H        0.926     0.053     2.282     2.362
    54   1 H        0.926     0.034     2.530     2.487
    55   1 H        0.926     0.032     2.553     2.499
    56   1 H        0.926     0.035     2.513     2.479
    57   1 H        0.926     0.035     2.512     2.478
    58   1 H        0.926     0.036     2.503     2.474
    59   1 H        0.926     0.032     2.556     2.500
    60   1 H        0.926     0.029     2.603     2.523
    61   1 H        0.926     0.029     2.594     2.519
    62   1 H        0.926     0.030     2.591     2.517
    63   1 H        0.926     0.041     2.439     2.442
    64   1 H        0.926     0.034     2.524     2.484
    65   1 H        0.926     0.033     2.539     2.492
    66   1 H        0.926     0.036     2.505     2.475
    67   1 H        0.926     0.035     2.513     2.479
    68   1 H        0.926     0.054     2.265     2.353
    69   1 H        0.926     0.038     2.479     2.462

molecular dipole:
                 x           y           z       tot (Debye)
 q only:        0.365       0.464       0.162
   full:        0.493       0.550       0.175       1.929

 projected vibrational frequencies (cm⁻¹)
eigval :       -0.00    -0.00    -0.00     0.00     0.00     0.00
eigval :       14.21    17.74    28.32    31.25    39.30    42.98
eigval :       43.93    58.88    68.35    79.78    86.59    91.96
eigval :      107.46   126.95   129.64   138.28   149.78   180.29
eigval :      186.07   202.65   210.69   221.17   239.23   246.59
eigval :      258.82   269.79   289.05   297.01   322.55   331.93
eigval :      347.49   365.95   366.62   380.43   386.36   395.57
eigval :      402.39   411.42   425.66   435.78   444.75   474.57
eigval :      479.19   499.35   510.98   534.37   542.07   553.53
eigval :      559.28   583.96   586.94   587.75   591.36   603.15
eigval :      610.07   615.60   625.62   628.85   632.63   642.86
eigval :      654.68   668.88   671.89   675.01   679.12   690.27
eigval :      699.63   710.40   742.65   755.43   763.18   773.90
eigval :      775.40   778.01   787.16   794.26   820.75   824.57
eigval :      848.91   867.63   874.99   878.66   880.50   884.24
eigval :      893.98   899.97   905.48   906.29   911.88   913.66
eigval :      914.08   921.10   921.35   923.76   930.48   931.55
eigval :      932.53   934.25   935.73   938.95   953.08   966.73
eigval :      991.60   997.29  1017.11  1051.82  1068.61  1074.37
eigval :     1074.93  1077.04  1082.81  1093.66  1100.10  1108.65
eigval :     1111.70  1121.03  1139.19  1151.43  1157.12  1168.95
eigval :     1173.77  1178.69  1180.52  1180.75  1181.05  1184.58
eigval :     1187.63  1199.21  1206.99  1217.09  1228.78  1234.20
eigval :     1240.66  1267.57  1268.99  1272.56  1277.83  1286.37
eigval :     1303.57  1310.47  1318.22  1328.80  1329.30  1352.85
eigval :     1360.17  1361.98  1371.25  1381.14  1389.80  1394.57
eigval :     1417.14  1428.27  1433.32  1434.22  1436.86  1439.01
eigval :     1469.04  1469.48  1477.23  1480.60  1481.59  1485.58
eigval :     1523.86  1526.58  1569.60  1580.51  1584.06  1586.18
eigval :     1586.42  1590.62  1594.77  1595.44  1595.79  1600.55
eigval :     1603.31  1611.17  3074.51  3074.59  3077.19  3078.48
eigval :     3079.52  3080.68  3080.94  3082.02  3083.87  3086.74
eigval :     3089.83  3090.06  3090.17  3091.21  3093.90  3095.68
eigval :     3097.63  3100.30  3103.33  3104.68  3105.09  3105.50
eigval :     3107.98  3109.51  3119.38

   temp. (K)  partition function   enthalpy   heat capacity  entropy
                                   cal/mol     cal/K/mol   cal/K/mol   J/K/mol
 298.15  VIB  0.211E+15            19248.482    124.024    118.399
         ROT  0.414E+08              888.752      2.981     37.833
         INT  0.873E+22            20137.234    127.005    156.232
         TR   0.129E+29             1481.254      4.968     44.852
         TOT                       21618.4882   131.9733   201.0842   841.3363

       T/K    H(0)-H(T)+PV         H(T)/Eh          T*S/Eh         G(T)/Eh
   ------------------------------------------------------------------------
    298.15    0.344513E-01    0.557363E+00    0.955416E-01    0.461821E+00
   ------------------------------------------------------------------------

         :::::::::::::::::::::::::::::::::::::::::::::::::::::
         ::                  THERMODYNAMIC                  ::
         :::::::::::::::::::::::::::::::::::::::::::::::::::::
         :: total free energy        -110.514654262896 Eh   ::
         ::.................................................::
         :: total energy             -110.976475169238 Eh   ::
         :: zero point energy           0.522911248157 Eh   ::
         :: G(RRHO) w/o ZPVE           -0.061090341815 Eh   ::
         :: G(RRHO) contrib.            0.461820906342 Eh   ::
         :::::::::::::::::::::::::::::::::::::::::::::::::::::

           -------------------------------------------------
          | TOTAL ENERGY             -110.976475169238 Eh   |
          | TOTAL ENTHALPY           -110.419112667172 Eh   |
          | TOTAL FREE ENERGY        -110.514654262896 Eh   |
          | GRADIENT NORM               0.000039512536 Eh/α |
          | HOMO-LUMO GAP               1.883229928530 eV   |
           -------------------------------------------------

 * finished run on 2025/08/24 at 08:42:01.150
