   * xtb version 6.7.1 (edcfbbe) compiled by 'albert@albert-system' on 2024-07-22

   ID    Z sym.   atoms
    1    6 C      1-5, 7-13, 15, 17-32, 34-41, 43, 44
    2    7 N      6, 14, 16, 33, 42
    3    1 H      45-69

          program call               : xtb data2507/gas/DIC-TRZ/DIC-TRZ_gas_T1_crest.xyz --gfn 2 --spinpol --tblite --uhf 2 --ohess vtight --parallel 40 --molden --ceasefiles --namespace data2507/gas/DIC-TRZ/DIC-TRZ_gas_T1_finalOpt
 * total energy  :  -110.8979127 Eh     change       -0.1170196E-07 Eh
 * total energy  :  -110.8979683 Eh     change       -0.5562795E-04 Eh
 * total energy  :  -110.8980029 Eh     change       -0.3458210E-04 Eh
 * total energy  :  -110.8980069 Eh     change       -0.3932376E-05 Eh
 * total energy  :  -110.8980094 Eh     change       -0.2565571E-05 Eh
 * total energy  :  -110.8980109 Eh     change       -0.1484911E-05 Eh
 * total energy  :  -110.8980126 Eh     change       -0.1677103E-05 Eh
 * total energy  :  -110.8980143 Eh     change       -0.1756965E-05 Eh
 * total energy  :  -110.8980161 Eh     change       -0.1760488E-05 Eh
 * total energy  :  -110.8980176 Eh     change       -0.1492226E-05 Eh
 * total energy  :  -110.8980206 Eh     change       -0.5117905E-06 Eh
 * total energy  :  -110.8980211 Eh     change       -0.5119706E-06 Eh
 * total energy  :  -110.8980217 Eh     change       -0.5730439E-06 Eh
 * total energy  :  -110.8980223 Eh     change       -0.6498465E-06 Eh
 * total energy  :  -110.8980230 Eh     change       -0.6454306E-06 Eh
 * total energy  :  -110.8980236 Eh     change       -0.6605578E-06 Eh
 * total energy  :  -110.8980243 Eh     change       -0.6333847E-06 Eh
 * total energy  :  -110.8980249 Eh     change       -0.6708753E-06 Eh
 * total energy  :  -110.8980249 Eh     change       -0.1092546E-07 Eh
   *** GEOMETRY OPTIMIZATION CONVERGED AFTER 22 ITERATIONS ***

 final structure:
================
69
 xtb: 6.7.1 (edcfbbe)
C            6.78291599062068        0.29643262219018        1.27376617666683
C            6.28140514055355        1.39452738670220        0.58568182038415
C            4.99038023353176        1.38804196100053        0.10832994755932
C            4.16536811753479        0.27090703070417        0.31049579818271
C            2.81950224955930        0.26193019826389       -0.17296004546644
N            2.30014171212924        1.31961184759030       -0.76926341334387
C            1.04641237772195        1.33110695282087       -1.16792317475862
C            0.47676235090056        2.48974497672071       -1.79008251761673
C            1.23973725875186        3.65245129664070       -1.97407705929976
C            0.67539870334043        4.76923772213402       -2.54850786836412
C           -0.65463245444353        4.75887660995308       -2.95026208820158
C           -1.41744976567663        3.61183930019619       -2.77550597302036
C           -0.86404470647030        2.48701303616548       -2.20446819494428
N            0.23124282621438        0.23125730916767       -0.97247272316333
C            0.79587002698915       -0.78768874017950       -0.36259062412367
N           -0.01806728428374       -1.90128508743881       -0.18024276318854
C            0.37394715248579       -3.18353433104748       -0.54286497729635
C            1.64964798818684       -3.68762758457854       -0.72833893119154
C            1.76511868780283       -5.01880231582692       -1.08917533657180
C            0.64166471357004       -5.81887518107253       -1.27479898813533
C           -0.63412554048785       -5.31091012808122       -1.10635849694379
C           -0.77315330855567       -3.98100254608684       -0.73751840756800
C           -1.91287240211286       -3.13709975026176       -0.48546710908660
C           -3.27890409723226       -3.38027345456990       -0.57803349397009
C           -4.16702757182532       -2.35911029455208       -0.29569274058784
C           -3.68133690845965       -1.13686707548431        0.15386520064889
C           -4.35859726736292        0.04641591360606        0.60698165150611
C           -5.69761938036341        0.40013009015116        0.69045425744715
C           -6.02325502075699        1.62798125903880        1.23539238407289
C           -5.03410948643815        2.48319177169748        1.71333706139773
C           -3.69396405993707        2.14940254551311        1.64312206955274
C           -3.35849770535337        0.93445650537505        1.06241969261023
N           -2.11602159365802        0.35330765779165        0.88316429447603
C           -0.92210608125805        0.86336150246566        1.41533595593606
C           -0.55094182320274        2.18635703082474        1.18743260749988
C            0.63665987790341        2.66409150333845        1.70793047673099
C            1.45453512432441        1.84008679708028        2.46474774310055
C            1.06843090100520        0.53362208297307        2.72088059184528
C           -0.11588137013685        0.04459406552617        2.20589125910064
C           -2.29154029477158       -0.88636400637844        0.31501266002488
C           -1.39768247718410       -1.87079480786554       -0.11245741009743
N            2.04082417558606       -0.85833400417024        0.03638647670031
C            4.68120844710431       -0.83193492268965        1.00795996534637
C            5.97462521921631       -0.81319911520109        1.48114718128212
H            7.79656627705613        0.30653976756238        1.64614039188098
H            6.91016510846085        2.25881672222670        0.42490506225784
H            4.58885792595752        2.23449248099330       -0.42748815294059
H            2.27063951352283        3.64957962085986       -1.65498110976748
H            1.27012529621671        5.66097145266535       -2.68738974403294
H           -1.09260105513134        5.63853065157125       -3.39818649971781
H           -2.45195725751410        3.60132103417027       -3.08898111342442
H           -1.44639202452449        1.58849768324369       -2.06594139429061
H            2.51483387596356       -3.05787506115294       -0.59389799665795
H            2.74711782911989       -5.44305543724589       -1.23419573206802
H            0.77077964568972       -6.85222903535797       -1.56000180311531
H           -1.50305244049034       -5.93319343316686       -1.25642859102398
H           -3.63314781358369       -4.35313611014973       -0.88028803693386
H           -5.23063569432401       -2.51098420314330       -0.39223981948512
H           -6.46517819744687       -0.27256969719174        0.33974135143739
H           -7.05852676920204        1.92594654602041        1.30492076024474
H           -5.31894132453741        3.42685228906359        2.15372614599171
H           -2.94044729275974        2.81113601920993        2.03997078423534
H           -1.16167170849587        2.81313268591886        0.55639387185369
H            0.93475051005406        3.68049301412490        1.49979684269067
H            2.39255878959243        2.21072516717830        2.84826328665918
H            1.69943356933785       -0.11054454316369        3.31418269627973
H           -0.42253585019428       -0.97166420127232        2.40797431919468
H            4.04189496661726       -1.68659998314589        1.17001062474339
H            6.36318890145650       -1.66724332826787        2.01788976385458

 projected vibrational frequencies (cm⁻¹)
eigval :       -0.00    -0.00    -0.00    -0.00    -0.00     0.00
eigval :       14.61    17.40    31.70    40.47    41.32    43.69
eigval :       49.39    55.68    72.51    79.76    91.77    97.15
eigval :      107.04   126.01   128.41   132.87   148.64   178.60
eigval :      193.29   199.82   202.92   227.15   233.15   240.06
eigval :      256.12   267.00   282.78   292.55   315.38   330.79
eigval :      335.07   363.48   370.78   371.37   384.92   389.94
eigval :      391.62   394.58   408.20   438.16   443.87   468.12
eigval :      473.25   488.16   500.24   523.19   538.96   543.68
eigval :      548.14   554.69   559.45   575.94   583.24   586.21
eigval :      587.82   591.55   596.17   614.38   621.57   632.39
eigval :      644.72   650.30   652.14   659.86   665.15   679.56
eigval :      688.13   698.77   710.64   728.42   749.33   750.42
eigval :      758.87   773.41   776.58   791.61   801.16   812.18
eigval :      819.16   860.33   863.64   867.29   874.00   879.36
eigval :      880.68   883.20   890.54   900.83   906.40   907.01
eigval :      912.68   918.15   920.42   921.32   921.46   921.79
eigval :      923.40   923.63   926.91   930.09   936.53   957.39
eigval :      966.31   974.44   994.61  1003.35  1064.81  1071.54
eigval :     1072.19  1072.50  1077.45  1079.37  1081.90  1095.02
eigval :     1104.95  1112.41  1117.52  1120.17  1130.19  1144.70
eigval :     1147.11  1170.80  1176.84  1179.09  1179.18  1179.60
eigval :     1183.22  1186.73  1192.68  1197.52  1213.42  1225.09
eigval :     1242.64  1265.15  1268.20  1270.58  1275.56  1282.13
eigval :     1286.42  1293.28  1302.21  1319.92  1332.09  1334.77
eigval :     1340.35  1345.44  1355.23  1359.25  1361.92  1379.35
eigval :     1393.74  1397.00  1405.67  1419.27  1427.23  1432.38
eigval :     1434.49  1436.74  1450.91  1453.05  1467.58  1471.86
eigval :     1476.40  1483.43  1549.43  1550.20  1558.34  1566.51
eigval :     1573.96  1578.68  1579.33  1582.79  1584.10  1585.52
eigval :     1594.44  1603.28  3067.20  3067.40  3070.27  3070.53
eigval :     3079.84  3083.23  3083.78  3085.69  3086.21  3088.23
eigval :     3089.82  3090.61  3091.74  3092.26  3093.68  3095.31
eigval :     3095.80  3097.50  3098.15  3098.44  3101.91  3104.34
eigval :     3104.60  3105.96  3106.52

   temp. (K)  partition function   enthalpy   heat capacity  entropy
                                   cal/mol     cal/K/mol   cal/K/mol   J/K/mol
 298.15  VIB  0.161E+15            19525.424    126.625    119.795
         ROT  0.415E+08              888.752      2.981     37.839
         INT  0.668E+22            20414.176    129.606    157.634
         TR   0.129E+29             1481.254      4.968     44.852
         TOT                       21895.4300   134.5739   202.4861   847.2019

       T/K    H(0)-H(T)+PV         H(T)/Eh          T*S/Eh         G(T)/Eh
   ------------------------------------------------------------------------
    298.15    0.348926E-01    0.553060E+00    0.962077E-01    0.456852E+00
   ------------------------------------------------------------------------

         :::::::::::::::::::::::::::::::::::::::::::::::::::::
         ::                  THERMODYNAMIC                  ::
         :::::::::::::::::::::::::::::::::::::::::::::::::::::
         :: total free energy        -110.441172810160 Eh   ::
         ::.................................................::
         :: total energy             -110.898024955121 Eh   ::
         :: zero point energy           0.518167239581 Eh   ::
         :: G(RRHO) w/o ZPVE           -0.061315094620 Eh   ::
         :: G(RRHO) contrib.            0.456852144961 Eh   ::
         :::::::::::::::::::::::::::::::::::::::::::::::::::::

           -------------------------------------------------
          | TOTAL ENERGY             -110.898024955121 Eh   |
          | TOTAL ENTHALPY           -110.344965126821 Eh   |
          | TOTAL FREE ENERGY        -110.441172810160 Eh   |
          | GRADIENT NORM               0.000086177752 Eh/α |
           -------------------------------------------------

 * finished run on 2025/08/24 at 08:46:50.982
