   * xtb version 6.7.1 (edcfbbe) compiled by 'albert@albert-system' on 2024-07-22

   ID    Z sym.   atoms
    1    6 C      1-5, 7-13, 15, 17-32, 34-41, 43, 44
    2    7 N      6, 14, 16, 33, 42
    3    1 H      45-69

          program call               : xtb data2507/gas/DIC-TRZ/DIC-TRZ.xyz --gfn 2 --ohess vtight --parallel 40 --molden --ceasefiles --namespace data2507/gas/DIC-TRZ/DIC-TRZ_gas_S0_preOpt
          :  Hamiltonian                  GFN2-xTB          :
 * total energy  :  -110.9232262 Eh     change       -0.7259246E-08 Eh
 * total energy  :  -110.9548650 Eh     change       -0.3163884E-01 Eh
 * total energy  :  -110.9676385 Eh     change       -0.1277351E-01 Eh
 * total energy  :  -110.9716425 Eh     change       -0.4003993E-02 Eh
 * total energy  :  -110.9736807 Eh     change       -0.2038136E-02 Eh
 * total energy  :  -110.9742337 Eh     change       -0.5529902E-03 Eh
 * total energy  :  -110.9746371 Eh     change       -0.4034587E-03 Eh
 * total energy  :  -110.9749290 Eh     change       -0.2918870E-03 Eh
 * total energy  :  -110.9751444 Eh     change       -0.2154015E-03 Eh
 * total energy  :  -110.9753042 Eh     change       -0.1598069E-03 Eh
 * total energy  :  -110.9764722 Eh     change       -0.4976092E-06 Eh
 * total energy  :  -110.9764727 Eh     change       -0.4431188E-06 Eh
 * total energy  :  -110.9764732 Eh     change       -0.5231888E-06 Eh
 * total energy  :  -110.9764737 Eh     change       -0.5243133E-06 Eh
 * total energy  :  -110.9764741 Eh     change       -0.3964788E-06 Eh
 * total energy  :  -110.9764744 Eh     change       -0.2667193E-06 Eh
 * total energy  :  -110.9764746 Eh     change       -0.1845297E-06 Eh
 * total energy  :  -110.9764747 Eh     change       -0.1303224E-06 Eh
 * total energy  :  -110.9764748 Eh     change       -0.9233855E-07 Eh
   *** GEOMETRY OPTIMIZATION CONVERGED AFTER 62 ITERATIONS ***

 final structure:
================
69
 xtb: 6.7.1 (edcfbbe)
C            6.65973501773361        1.53937622847303        0.86512397070775
C            6.08186138890027        0.32021894494265        1.18382871129316
C            4.77753334560783        0.05414959476524        0.81503273622706
C            4.03962880470998        1.01157988037529        0.12191478924015
C            2.65656681392776        0.73695828107726       -0.26435246710844
N            1.93147204527482        1.74059618582339       -0.74671608879348
C            0.66780411604135        1.45559054829535       -1.04441443873918
C           -0.18551284681967        2.52382476801108       -1.56020633744197
C            0.29587246998371        3.82804141521956       -1.64402561461961
C           -0.52743584957406        4.83963329931254       -2.09967307449703
C           -1.83296847816069        4.55905527226942       -2.47243308180214
C           -2.31577239968405        3.26156053063201       -2.39267791053416
C           -1.49758910454305        2.24497537583959       -1.94022202945593
N            0.11873770772867        0.25800563743151       -0.88575562596754
C            0.92675618437328       -0.68330871206974       -0.41076559169991
N            0.39457524925496       -1.93716176988240       -0.26852705802730
C            1.07129330079525       -3.10510013483720       -0.62536971839573
C            2.43043870791363       -3.33655509197036       -0.73512044105062
C            2.83739465780132       -4.59672187396418       -1.13899534336116
C            1.91684405507112       -5.59755943387623       -1.43218535267185
C            0.55843656391672       -5.36309208976015       -1.33647032802079
C            0.12878088703347       -4.10755454935294       -0.93005273139240
C           -1.17788905208063       -3.53719305711546       -0.72675495582012
C           -2.45268895507990       -4.07387729520660       -0.90633885633983
C           -3.55045660669802       -3.29415737943740       -0.62496919540261
C           -3.36465845112489       -2.02464684302524       -0.07896730899860
C           -4.30651508559108       -1.06059667068676        0.41008342350747
C           -5.69509576085405       -1.02840152011869        0.44586078589092
C           -6.31583067872742        0.04385367568797        1.05236147644123
C           -5.56706890571474        1.06057110599227        1.64092844970912
C           -4.18562454382509        1.04822655623407        1.61829795515269
C           -3.55365188249803       -0.00634628129521        0.97371853254328
N           -2.20496506926442       -0.27310788166146        0.81878099854678
C           -1.17944312882121        0.42934278686440        1.46643869852170
C           -1.11548453337180        1.81846952404353        1.39787148108274
C           -0.07534799121765        2.49234024787478        2.00923897616363
C            0.90467396870714        1.79579415158124        2.69738063898449
C            0.82764839435776        0.41672661077527        2.79102267234789
C           -0.21379663970800       -0.26616715578555        2.19028294419544
C           -2.07615282860402       -1.48620264497750        0.16607188629489
C           -0.97575021130732       -2.21654850130911       -0.27540443532632
N            2.20370770857983       -0.50162809676172       -0.09751782411238
C            4.62312840519309        2.23726628172857       -0.19157475804675
C            5.92855248871546        2.49630605414447        0.17839571247395
H            7.68050249872556        1.74431462497865        1.15331351346527
H            6.65232255157821       -0.42262094159489        1.72203871813201
H            4.30975505526394       -0.88623863568740        1.06155896598324
H            1.31214095848268        4.02588454504954       -1.34180712162415
H           -0.15458997475133        5.85151881865964       -2.16333066811899
H           -2.47545757771741        5.35267735748367       -2.82523660366382
H           -3.33368662360588        3.04500803987875       -2.68218744940207
H           -1.85540674112080        1.22947773718649       -1.86975674337252
H            3.14171153847972       -2.55803024823213       -0.51446578755410
H            3.89319386819084       -4.80618331317868       -1.22635473993125
H            2.27191253192634       -6.56947708603645       -1.74144113146456
H           -0.15670084048227       -6.13658468051183       -1.57162989135751
H           -2.56418399840073       -5.08300764013387       -1.27057528251178
H           -4.55075920324090       -3.66466776376623       -0.78688367160746
H           -6.27112825946048       -1.83086256779307        0.01052782277539
H           -7.39398751118863        0.09301708430320        1.08712486148388
H           -6.07776471142258        1.87606650913103        2.13161768349403
H           -3.62451670906382        1.83076247940787        2.10440822187695
H           -1.84795278510366        2.36061913087808        0.82046431757962
H           -0.01980772080900        3.56789313891460        1.92858608889739
H            1.72743888118428        2.32488932366650        3.15402309469955
H            1.58479381862483       -0.13302318888756        3.33026045589741
H           -0.27853037642990       -1.34130531263282        2.27257863730156
H            4.03806788800150        2.96756319460165       -0.72786007611751
H            6.38089016397522        3.44577141999337       -0.06811648653437

          :  Hamiltonian                  GFN2-xTB          :
         :: gradient norm              0.000040747295 Eh/a0 ::
         :: HOMO-LUMO gap              1.883136339259 eV    ::
         :: SCC energy              -113.011227641910 Eh    ::
         :: -> dispersion             -0.110195002849 Eh    ::
         :: repulsion energy           2.034752866488 Eh    ::

    * Orbital Energies and Occupations

         #    Occupation            Energy/Eh            Energy/eV
      -------------------------------------------------------------
         1        2.0000           -0.6894230             -18.7602
       ...           ...                  ...                  ...
        91        2.0000           -0.4123695             -11.2211
        92        2.0000           -0.4121720             -11.2158
        93        2.0000           -0.4102280             -11.1629
        94        2.0000           -0.4089225             -11.1273
        95        2.0000           -0.4076391             -11.0924
        96        2.0000           -0.4059545             -11.0466
        97        2.0000           -0.4030279             -10.9669
        98        2.0000           -0.4012098             -10.9175
        99        2.0000           -0.3832667             -10.4292
       100        2.0000           -0.3749909             -10.2040
       101        2.0000           -0.3740044             -10.1772
       102        2.0000           -0.3686936             -10.0327
       103        2.0000           -0.3563532              -9.6969 (HOMO)
       104                         -0.2871491              -7.8137 (LUMO)
       105                         -0.2736724              -7.4470
       106                         -0.2525112              -6.8712
       107                         -0.2315743              -6.3015
       108                         -0.2299289              -6.2567
       109                         -0.2294069              -6.2425
       110                         -0.2281739              -6.2089
       111                         -0.2244299              -6.1070
       112                         -0.2219284              -6.0390
       113                         -0.2187746              -5.9532
       114                         -0.2000385              -5.4433
       ...                                ...                  ...
       201                          0.7596310              20.6706
      -------------------------------------------------------------
                  HL-Gap            0.0692041 Eh            1.8831 eV

     #   Z          covCN         q      C6AA      α(0)
     1   6 C        2.920    -0.024    28.593     8.769
     2   6 C        2.918    -0.027    28.685     8.783
     3   6 C        2.924    -0.023    28.583     8.767
     4   6 C        2.985     0.001    28.000     8.680
     5   6 C        2.995     0.204    23.665     7.980
     6   7 N        1.844    -0.305    28.748     7.946
     7   6 C        2.993     0.206    23.643     7.976
     8   6 C        2.985     0.001    28.001     8.680
     9   6 C        2.924    -0.023    28.584     8.768
    10   6 C        2.918    -0.027    28.688     8.783
    11   6 C        2.920    -0.024    28.592     8.769
    12   6 C        2.918    -0.027    28.681     8.782
    13   6 C        2.924    -0.022    28.546     8.762
    14   7 N        1.850    -0.322    29.202     8.009
    15   6 C        2.940     0.265    22.540     7.787
    16   7 N        2.808    -0.052    22.243     7.005
    17   6 C        3.060     0.054    26.727     8.478
    18   6 C        2.910    -0.046    29.147     8.853
    19   6 C        2.925    -0.032    28.804     8.801
    20   6 C        2.920    -0.037    28.926     8.820
    21   6 C        2.914    -0.033    28.822     8.803
    22   6 C        3.066    -0.010    28.203     8.708
    23   6 C        3.062    -0.015    28.325     8.728
    24   6 C        2.914    -0.043    29.073     8.842
    25   6 C        2.914    -0.040    28.985     8.828
    26   6 C        3.070    -0.019    28.409     8.740
    27   6 C        3.069    -0.015    28.312     8.725
    28   6 C        2.913    -0.033    28.823     8.804
    29   6 C        2.920    -0.040    29.003     8.831
    30   6 C        2.924    -0.034    28.839     8.807
    31   6 C        2.910    -0.050    29.245     8.868
    32   6 C        3.073     0.048    26.859     8.497
    33   7 N        2.799    -0.034    21.892     6.949
    34   6 C        2.913     0.069    26.458     8.435
    35   6 C        2.922    -0.042    29.052     8.839
    36   6 C        2.920    -0.027    28.688     8.783
    37   6 C        2.919    -0.033    28.833     8.805
    38   6 C        2.920    -0.027    28.672     8.781
    39   6 C        2.923    -0.044    29.090     8.845
    40   6 C        3.060     0.041    27.033     8.526
    41   6 C        3.049     0.039    27.080     8.535
    42   7 N        1.846    -0.317    29.061     7.989
    43   6 C        2.924    -0.023    28.580     8.767
    44   6 C        2.918    -0.027    28.681     8.782
    45   1 H        0.926     0.037     2.484     2.465
    46   1 H        0.926     0.038     2.479     2.462
    47   1 H        0.926     0.054     2.265     2.353
    48   1 H        0.926     0.055     2.257     2.349
    49   1 H        0.926     0.037     2.484     2.465
    50   1 H        0.926     0.037     2.483     2.464
    51   1 H        0.926     0.038     2.478     2.462
    52   1 H        0.926     0.056     2.251     2.346
    53   1 H        0.926     0.053     2.282     2.362
    54   1 H        0.926     0.034     2.530     2.487
    55   1 H        0.926     0.032     2.553     2.499
    56   1 H        0.926     0.035     2.513     2.479
    57   1 H        0.926     0.035     2.512     2.478
    58   1 H        0.926     0.036     2.503     2.474
    59   1 H        0.926     0.032     2.556     2.500
    60   1 H        0.926     0.029     2.603     2.523
    61   1 H        0.926     0.029     2.594     2.519
    62   1 H        0.926     0.030     2.591     2.517
    63   1 H        0.926     0.041     2.439     2.442
    64   1 H        0.926     0.034     2.524     2.484
    65   1 H        0.926     0.033     2.539     2.492
    66   1 H        0.926     0.036     2.505     2.475
    67   1 H        0.926     0.035     2.513     2.479
    68   1 H        0.926     0.055     2.254     2.348
    69   1 H        0.926     0.038     2.482     2.463

molecular dipole:
                 x           y           z       tot (Debye)
 q only:        0.290       0.509       0.176
   full:        0.403       0.614       0.191       1.928

 projected vibrational frequencies (cm⁻¹)
eigval :       -0.00    -0.00     0.00     0.00     0.00     0.00
eigval :       14.20    17.73    28.28    31.25    39.30    42.96
eigval :       43.93    58.92    68.19    79.74    86.48    91.86
eigval :      107.49   126.79   129.63   138.28   149.76   180.30
eigval :      186.11   202.62   210.71   221.14   239.22   246.57
eigval :      258.80   269.77   289.07   296.98   322.52   331.96
eigval :      347.56   365.95   366.63   380.44   386.32   395.55
eigval :      402.42   411.42   425.66   435.81   444.78   474.56
eigval :      479.17   499.34   510.96   534.37   542.08   553.52
eigval :      559.29   583.97   586.94   587.76   591.36   603.15
eigval :      610.10   615.61   625.62   628.84   632.62   642.92
eigval :      654.65   668.86   671.90   675.01   679.11   690.28
eigval :      699.63   710.39   742.68   755.41   763.15   773.91
eigval :      775.40   778.00   787.18   794.32   820.75   824.54
eigval :      848.90   867.63   874.96   878.65   880.51   884.24
eigval :      893.98   899.98   905.46   906.30   911.88   913.65
eigval :      914.09   921.10   921.37   923.75   930.48   931.55
eigval :      932.53   934.24   935.75   938.99   953.08   966.72
eigval :      991.60   997.27  1017.12  1051.85  1068.59  1074.40
eigval :     1074.92  1077.05  1082.77  1093.74  1100.14  1108.65
eigval :     1111.71  1121.05  1139.16  1151.44  1157.10  1168.93
eigval :     1173.77  1178.69  1180.52  1180.75  1181.03  1184.56
eigval :     1187.63  1199.25  1207.00  1217.02  1228.80  1234.19
eigval :     1240.67  1267.56  1268.98  1272.56  1277.85  1286.38
eigval :     1303.54  1310.49  1318.24  1328.80  1329.30  1352.85
eigval :     1360.19  1361.98  1371.23  1381.15  1389.82  1394.52
eigval :     1417.10  1428.29  1433.27  1434.18  1436.81  1438.89
eigval :     1469.05  1469.48  1477.21  1480.62  1481.57  1485.59
eigval :     1523.86  1526.64  1569.58  1580.52  1584.06  1586.21
eigval :     1586.43  1590.62  1594.78  1595.44  1595.79  1600.56
eigval :     1603.33  1611.16  3074.52  3074.60  3077.15  3078.48
eigval :     3079.51  3080.70  3080.98  3082.00  3083.83  3086.75
eigval :     3089.84  3090.06  3090.18  3091.20  3093.88  3095.66
eigval :     3097.62  3100.24  3103.33  3104.70  3105.12  3105.54
eigval :     3108.00  3109.54  3119.35

   temp. (K)  partition function   enthalpy   heat capacity  entropy
                                   cal/mol     cal/K/mol   cal/K/mol   J/K/mol
 298.15  VIB  0.213E+15            19249.190    124.022    118.409
         ROT  0.414E+08              888.752      2.981     37.833
         INT  0.879E+22            20137.943    127.003    156.243
         TR   0.129E+29             1481.254      4.968     44.852
         TOT                       21619.1965   131.9707   201.0948   841.3804

       T/K    H(0)-H(T)+PV         H(T)/Eh          T*S/Eh         G(T)/Eh
   ------------------------------------------------------------------------
    298.15    0.344524E-01    0.557362E+00    0.955466E-01    0.461816E+00
   ------------------------------------------------------------------------

         :::::::::::::::::::::::::::::::::::::::::::::::::::::
         ::                  THERMODYNAMIC                  ::
         :::::::::::::::::::::::::::::::::::::::::::::::::::::
         :: total free energy        -110.514659138409 Eh   ::
         ::.................................................::
         :: total energy             -110.976474775427 Eh   ::
         :: zero point energy           0.522909859967 Eh   ::
         :: G(RRHO) w/o ZPVE           -0.061094222948 Eh   ::
         :: G(RRHO) contrib.            0.461815637018 Eh   ::
         :::::::::::::::::::::::::::::::::::::::::::::::::::::

           -------------------------------------------------
          | TOTAL ENERGY             -110.976474775427 Eh   |
          | TOTAL ENTHALPY           -110.419112532781 Eh   |
          | TOTAL FREE ENERGY        -110.514659138409 Eh   |
          | GRADIENT NORM               0.000040730328 Eh/α |
          | HOMO-LUMO GAP               1.883139131092 eV   |
           -------------------------------------------------

 * finished run on 2025/08/24 at 08:39:01.799
