   * xtb version 6.7.1 (edcfbbe) compiled by 'albert@albert-system' on 2024-07-22

   ID    Z sym.   atoms
    1    6 C      1-5, 7-13, 15, 17-32, 34-41, 43, 44
    2    7 N      6, 14, 16, 33, 42
    3    1 H      45-69

          program call               : xtb data2507/gas/DIC-TRZ/DIC-TRZ_gas_S0_finalOpt.xtbopt.xyz --gfn 2 --spinpol --tblite --uhf 2 --ohess vtight --parallel 40 --molden --ceasefiles --namespace data2507/gas/DIC-TRZ/DIC-TRZ_gas_T1_preOpt
 * total energy  :  -110.8909996 Eh     change       -0.1616908E-07 Eh
 * total energy  :  -110.8946335 Eh     change       -0.3633936E-02 Eh
 * total energy  :  -110.8970268 Eh     change       -0.2393247E-02 Eh
 * total energy  :  -110.8974262 Eh     change       -0.3993839E-03 Eh
 * total energy  :  -110.8975799 Eh     change       -0.1537195E-03 Eh
 * total energy  :  -110.8976799 Eh     change       -0.1000139E-03 Eh
 * total energy  :  -110.8977133 Eh     change       -0.3342346E-04 Eh
 * total energy  :  -110.8977471 Eh     change       -0.3373815E-04 Eh
 * total energy  :  -110.8977711 Eh     change       -0.2399419E-04 Eh
 * total energy  :  -110.8977927 Eh     change       -0.2164969E-04 Eh
 * total energy  :  -110.8980015 Eh     change       -0.7871732E-06 Eh
 * total energy  :  -110.8980022 Eh     change       -0.7100343E-06 Eh
 * total energy  :  -110.8980028 Eh     change       -0.6224186E-06 Eh
 * total energy  :  -110.8980034 Eh     change       -0.5235482E-06 Eh
 * total energy  :  -110.8980038 Eh     change       -0.4421651E-06 Eh
 * total energy  :  -110.8980042 Eh     change       -0.4130059E-06 Eh
 * total energy  :  -110.8980046 Eh     change       -0.4022603E-06 Eh
 * total energy  :  -110.8980050 Eh     change       -0.4022680E-06 Eh
 * total energy  :  -110.8980050 Eh     change       -0.2171905E-07 Eh
   *** GEOMETRY OPTIMIZATION CONVERGED AFTER 68 ITERATIONS ***

 final structure:
================
69
 xtb: 6.7.1 (edcfbbe)
C            6.79010080628530        0.68188074737266        1.22719843203909
C            6.21306970177838        1.75638657212198        0.56146566649418
C            4.91314797352492        1.68314474266883        0.11486828168548
C            4.15528685040887        0.52088571542315        0.32568883522861
C            2.80403314489859        0.43935009895921       -0.13569432945551
N            2.21594464926079        1.47172561996944       -0.71227581004633
C            0.96346914724663        1.40875705868906       -1.11017958678579
C            0.31545122668337        2.54072490042187       -1.70405896968143
C            0.99302763603579        3.76047231455932       -1.84871113986722
C            0.35014662214521        4.85170944401281       -2.38876680494175
C           -0.97541230658694        4.75881034936850       -2.79469448077069
C           -1.65338098131213        3.55437412276264       -2.66078296009537
C           -1.02074902459735        2.45439687205812       -2.12480714382923
N            0.22449311946771        0.25267717030685       -0.93997236009393
C            0.85111704204367       -0.73509142873445       -0.33890382786176
N            0.11030356338047       -1.90063282391471       -0.17544488217128
C            0.59240970073738       -3.15436918604648       -0.53061975037029
C            1.90175984249521       -3.57653842628431       -0.68233834176063
C            2.11083064248833       -4.89709805221940       -1.04029545395316
C            1.04567019005407       -5.76615296560265       -1.25647304072268
C           -0.26370527356394       -5.33971042967218       -1.12338775292827
C           -0.49625667216015       -4.02204932290888       -0.75782685111355
C           -1.69376369174817       -3.25272592783568       -0.53636480096327
C           -3.03862045646808       -3.57932364063357       -0.67267446132780
C           -3.99648114196053       -2.61589202654870       -0.41655715181110
C           -3.60168331881175       -1.36906773818503        0.05411452298313
C           -4.36405695706636       -0.23178425605068        0.48943552653241
C           -5.72397791649016        0.04085501711750        0.52436206078714
C           -6.14250284163443        1.24342709827062        1.06212532508860
C           -5.22453578261501        2.15209250008883        1.58146235190213
C           -3.86514334978652        1.89894020409789        1.56044792441939
C           -3.43584708377502        0.71086951673759        0.98593805942275
N           -2.15507217781052        0.20649109192013        0.84733640001523
C           -1.01051935977511        0.77679246580749        1.42411817332067
C           -0.71287541920959        2.12425648505639        1.23430136213615
C            0.43170279101743        2.65884861385613        1.79454141865015
C            1.27910527313581        1.86751264317540        2.55340564276357
C            0.96430341548829        0.53542802326930        2.77292218457535
C           -0.17693730521033       -0.00998494313897        2.21903639061422
C           -2.23604228517734       -1.03575869747780        0.26322766636199
C           -1.27025311838970       -1.95899173778720       -0.14359489352229
N            2.09630762754564       -0.72837675476863        0.06581991214889
C            4.74642042758043       -0.55669148294204        1.00250731661777
C            6.04804746920728       -0.47117038806618        1.44489114105952
H            7.81091633285841        0.74376823605874        1.57409844520921
H            6.79002997991994        2.65465461472404        0.39296090138519
H            4.45386278908078        2.51009682545561       -0.40474375501033
H            2.02072601374181        3.82197592810017       -1.52522917767325
H            0.87898682228271        5.78816130351708       -2.49628024244955
H           -1.47564713149470        5.61910831576694       -3.21408662373426
H           -2.68414583812039        3.47937489242472       -2.97780958569316
H           -1.53696802464862        1.51221015963634       -2.01776767538032
H            2.72135710645243       -2.89338411887327       -0.52529179669756
H            3.12125959931513       -5.25819311626059       -1.15856414992627
H            1.24741014956255       -6.78892135777372       -1.53768702747837
H           -1.08734993249750       -6.01509673576517       -1.29734318257679
H           -3.32240303970259       -4.57049935503160       -0.98944980260012
H           -5.04498735771960       -2.83192690652221       -0.54928046494375
H           -6.43621926381041       -0.67386097587557        0.14150528960291
H           -7.19552267840682        1.47917961761825        1.09333183817606
H           -5.58121991638252        3.07417521553194        2.01518023702466
H           -3.16860997561574        2.60161318593419        1.98948028091636
H           -1.34365887649890        2.72876542267464        0.60154941650094
H            0.67357404830433        3.69556404336118        1.61568189270746
H            2.18434456909138        2.28377970149406        2.96765765188012
H            1.61713050825342       -0.08384460603629        3.36913079652276
H           -0.42852655689528       -1.04614233521315        2.39418434560223
H            4.15860903465152       -1.44594962289149        1.17306715004471
H            6.49514606552620       -1.30676454754703        1.96483404679762

 projected vibrational frequencies (cm⁻¹)
eigval :       -0.00    -0.00     0.00     0.00     0.00     0.00
eigval :       14.73    17.80    32.12    40.94    41.20    43.51
eigval :       50.91    56.12    71.56    79.76    91.54    95.83
eigval :      107.32   126.78   129.48   133.18   148.93   179.56
eigval :      193.14   200.11   202.19   227.31   233.17   240.47
eigval :      255.78   267.58   282.30   292.59   315.86   330.81
eigval :      336.17   363.10   370.83   371.73   384.49   390.38
eigval :      392.22   394.67   408.36   438.32   443.76   468.30
eigval :      473.47   488.24   499.64   524.28   538.65   543.05
eigval :      548.51   554.71   559.32   575.60   583.65   586.24
eigval :      587.95   591.40   596.35   614.17   621.51   632.67
eigval :      644.75   650.32   652.16   659.67   665.37   679.53
eigval :      688.22   698.79   710.72   728.51   749.31   750.38
eigval :      758.69   773.36   776.62   791.72   801.20   811.97
eigval :      819.28   860.27   863.73   867.20   873.96   879.79
eigval :      880.62   883.16   890.58   900.84   906.35   907.04
eigval :      912.88   918.14   920.55   921.25   921.38   921.76
eigval :      923.55   923.76   927.06   929.24   936.92   957.48
eigval :      968.06   974.44   994.60  1003.65  1064.50  1071.12
eigval :     1072.25  1072.52  1078.07  1079.63  1081.44  1095.33
eigval :     1105.59  1112.25  1117.61  1120.21  1130.06  1144.70
eigval :     1147.05  1170.49  1176.65  1178.85  1178.99  1179.46
eigval :     1182.95  1186.78  1192.68  1197.77  1213.17  1225.00
eigval :     1242.13  1264.91  1268.16  1270.40  1275.66  1281.96
eigval :     1286.05  1293.37  1301.79  1320.20  1332.07  1334.76
eigval :     1340.31  1345.53  1354.49  1358.90  1362.34  1379.46
eigval :     1392.83  1396.79  1406.06  1418.84  1426.99  1432.21
eigval :     1434.18  1436.46  1450.86  1453.04  1467.47  1471.81
eigval :     1476.18  1483.30  1549.10  1550.32  1558.39  1566.47
eigval :     1573.96  1578.67  1579.40  1582.76  1584.16  1585.67
eigval :     1594.47  1603.27  3067.13  3067.32  3070.15  3070.41
eigval :     3079.68  3083.01  3083.66  3085.69  3086.17  3088.16
eigval :     3089.67  3090.39  3091.64  3092.15  3093.48  3095.22
eigval :     3095.40  3097.69  3097.94  3098.37  3102.13  3104.71
eigval :     3104.88  3106.10  3107.10

   temp. (K)  partition function   enthalpy   heat capacity  entropy
                                   cal/mol     cal/K/mol   cal/K/mol   J/K/mol
 298.15  VIB  0.149E+15            19518.377    126.654    119.737
         ROT  0.414E+08              888.752      2.981     37.835
         INT  0.618E+22            20407.130    129.635    157.571
         TR   0.129E+29             1481.254      4.968     44.852
         TOT                       21888.3837   134.6028   202.4233   846.9392

       T/K    H(0)-H(T)+PV         H(T)/Eh          T*S/Eh         G(T)/Eh
   ------------------------------------------------------------------------
    298.15    0.348814E-01    0.553057E+00    0.961779E-01    0.456879E+00
   ------------------------------------------------------------------------

         :::::::::::::::::::::::::::::::::::::::::::::::::::::
         ::                  THERMODYNAMIC                  ::
         :::::::::::::::::::::::::::::::::::::::::::::::::::::
         :: total free energy        -110.441125996817 Eh   ::
         ::.................................................::
         :: total energy             -110.898005033997 Eh   ::
         :: zero point energy           0.518175534147 Eh   ::
         :: G(RRHO) w/o ZPVE           -0.061296496967 Eh   ::
         :: G(RRHO) contrib.            0.456879037180 Eh   ::
         :::::::::::::::::::::::::::::::::::::::::::::::::::::

           -------------------------------------------------
          | TOTAL ENERGY             -110.898005033997 Eh   |
          | TOTAL ENTHALPY           -110.344948140159 Eh   |
          | TOTAL FREE ENERGY        -110.441125996817 Eh   |
          | GRADIENT NORM               0.000066088851 Eh/α |
           -------------------------------------------------

 * finished run on 2025/08/24 at 08:42:13.020
