   * xtb version 6.7.1 (edcfbbe) compiled by 'albert@albert-system' on 2024-07-22

   ID    Z sym.   atoms
    1    6 C      1-12, 14-30, 32
    2    7 N      13, 31
    3    1 H      33-50

          program call               : xtb data2507/gas/5CzICz/5CzICz.xyz --gfn 2 --ohess vtight --parallel 40 --molden --ceasefiles --namespace data2507/gas/5CzICz/5CzICz_gas_S0_preOpt
          :  Hamiltonian                  GFN2-xTB          :
 * total energy  :   -79.3088699 Eh     change       -0.1293628E-08 Eh
 * total energy  :   -79.3294899 Eh     change       -0.2061997E-01 Eh
 * total energy  :   -79.3343213 Eh     change       -0.4831429E-02 Eh
 * total energy  :   -79.3351426 Eh     change       -0.8213354E-03 Eh
 * total energy  :   -79.3355801 Eh     change       -0.4374421E-03 Eh
 * total energy  :   -79.3357229 Eh     change       -0.1428336E-03 Eh
 * total energy  :   -79.3357972 Eh     change       -0.7423178E-04 Eh
 * total energy  :   -79.3358308 Eh     change       -0.3365171E-04 Eh
 * total energy  :   -79.3358496 Eh     change       -0.1878153E-04 Eh
 * total energy  :   -79.3358686 Eh     change       -0.1901349E-04 Eh
 * total energy  :   -79.3360110 Eh     change       -0.6892657E-06 Eh
 * total energy  :   -79.3360117 Eh     change       -0.7334827E-06 Eh
 * total energy  :   -79.3360125 Eh     change       -0.8108675E-06 Eh
 * total energy  :   -79.3360133 Eh     change       -0.7812234E-06 Eh
 * total energy  :   -79.3360139 Eh     change       -0.5960790E-06 Eh
 * total energy  :   -79.3360143 Eh     change       -0.3968728E-06 Eh
 * total energy  :   -79.3360145 Eh     change       -0.2268064E-06 Eh
 * total energy  :   -79.3360147 Eh     change       -0.1068586E-06 Eh
 * total energy  :   -79.3360147 Eh     change       -0.4195724E-07 Eh
   *** GEOMETRY OPTIMIZATION CONVERGED AFTER 33 ITERATIONS ***

 final structure:
================
50
 xtb: 6.7.1 (edcfbbe)
C            5.23658198338080        2.73833222699390        1.32498306015214
C            3.88189853218532        2.98464586331776        1.53842731806452
C            2.91431157988979        2.07419283442204        1.15965460171041
C            3.33299272089900        0.90076537645359        0.54858821779789
C            4.70676021126281        0.63211216251205        0.34794852747080
C            5.66047998537799        1.56341579764042        0.73739605323409
C            4.78358605178912       -0.66743956267398       -0.25770149424376
C            5.83827000855193       -1.45627443414332       -0.69800772014826
C            5.55533887711393       -2.68089741360375       -1.26866827623062
C            4.23988663248047       -3.11586046308293       -1.41608197896534
C            3.17391280082458       -2.34958980710181       -0.98585362510678
C            3.45300748162937       -1.12759524457491       -0.39047999810986
N            2.58805328850722       -0.17080656416744        0.09987599219752
C            1.18858869665385       -0.26899476174215        0.13784620608884
C            0.59308944632935       -1.39780462274179        0.70538606197818
C           -0.78209431706473       -1.53564933466664        0.75750510951602
C           -1.56436357342818       -0.51721627390798        0.24510250504508
C           -0.96675202137923        0.64988689445178       -0.33168184076214
C            0.41081463427965        0.75848722461134       -0.38648126446870
C           -2.04133775140511        1.52201507751698       -0.77346261694506
C           -2.30689477800122        2.74475880249018       -1.38291655711204
C           -3.64138702329256        3.11110744470068       -1.57405537826382
C           -4.74914016924095        2.34468379308410       -1.20078607726444
C           -4.52453766382052        1.11584761893532       -0.58820791826271
C           -5.19254950665905       -0.04178774981093       -0.01671429206266
C           -6.52644834068724       -0.37880542296538        0.14159095086051
C           -6.84714138453404       -1.58529331781836        0.74001762586570
C           -5.85608491368776       -2.45395296197210        1.17961850507695
C           -4.51273484378531       -2.14690937657696        1.03631160205591
C           -4.18061373994378       -0.94522450323371        0.44028004282262
N           -2.94070777238420       -0.38610500354391        0.17020939768084
C           -3.18091073470817        0.81127432055397       -0.42744773902175
H            5.96183754259711        3.47678595541802        1.63311612497435
H            3.58148717155273        3.90686085176510        2.01388240444157
H            1.86798362963349        2.26664028182398        1.34429106199357
H            6.71095683078578        1.36603934632683        0.58507812464482
H            6.85675353240378       -1.11237130053003       -0.59760590828601
H            6.36105759621789       -3.31071889594996       -1.61562457347480
H            4.04902499504827       -4.07228158620345       -1.88045647364830
H            2.15711350899420       -2.68724849715183       -1.11989889355661
H            1.22550633756894       -2.16804881411113        1.12002556623766
H           -1.22829742998438       -2.41399477325180        1.19717020864134
H            0.87915803261515        1.61937405824627       -0.83860353005774
H           -1.51769364886583        3.40629851633061       -1.70666046579852
H           -3.83270556469847        4.06334807829171       -2.04852779214119
H           -5.74484966028204        2.71525567938973       -1.39198674514794
H           -7.30076051914109        0.29252668187471       -0.19824786345477
H           -7.88398469965254       -1.85800203602421        0.86825243225969
H           -6.13692671669866       -3.38811507329501        1.64280310190853
H           -3.74953633522793       -2.82766509230113        1.38080121981583

          :  Hamiltonian                  GFN2-xTB          :
         :: gradient norm              0.000048085151 Eh/a0 ::
         :: HOMO-LUMO gap              2.401263140727 eV    ::
         :: SCC energy               -80.842424582782 Eh    ::
         :: -> dispersion             -0.068425211129 Eh    ::
         :: repulsion energy           1.506409885889 Eh    ::

    * Orbital Energies and Occupations

         #    Occupation            Energy/Eh            Energy/eV
      -------------------------------------------------------------
         1        2.0000           -0.6898962             -18.7730
       ...           ...                  ...                  ...
        62        2.0000           -0.4277584             -11.6399
        63        2.0000           -0.4228192             -11.5055
        64        2.0000           -0.4218585             -11.4794
        65        2.0000           -0.4186051             -11.3908
        66        2.0000           -0.4163487             -11.3294
        67        2.0000           -0.4144218             -11.2770
        68        2.0000           -0.4136510             -11.2560
        69        2.0000           -0.4012036             -10.9173
        70        2.0000           -0.3914320             -10.6514
        71        2.0000           -0.3878265             -10.5533
        72        2.0000           -0.3777390             -10.2788
        73        2.0000           -0.3744949             -10.1905
        74        2.0000           -0.3567710              -9.7082 (HOMO)
        75                         -0.2685262              -7.3070 (LUMO)
        76                         -0.2427370              -6.6052
        77                         -0.2383180              -6.4850
        78                         -0.2349042              -6.3921
        79                         -0.2177735              -5.9259
        80                         -0.2157600              -5.8711
        81                         -0.1965387              -5.3481
        82                         -0.1857361              -5.0541
        83                         -0.1819029              -4.9498
        84                         -0.1795755              -4.8865
        85                         -0.0984145              -2.6780
       ...                                ...                  ...
       146                          0.7634552              20.7747
      -------------------------------------------------------------
                  HL-Gap            0.0882448 Eh            2.4013 eV

     #   Z          covCN         q      C6AA      α(0)
     1   6 C        2.920    -0.041    29.028     8.835
     2   6 C        2.924    -0.034    28.840     8.807
     3   6 C        2.910    -0.051    29.271     8.871
     4   6 C        3.077     0.046    26.879     8.500
     5   6 C        3.068    -0.018    28.375     8.734
     6   6 C        2.912    -0.033    28.823     8.804
     7   6 C        3.068    -0.017    28.374     8.734
     8   6 C        2.912    -0.033    28.823     8.803
     9   6 C        2.920    -0.041    29.029     8.835
    10   6 C        2.924    -0.034    28.842     8.807
    11   6 C        2.910    -0.051    29.275     8.872
    12   6 C        3.077     0.046    26.882     8.500
    13   7 N        2.803    -0.044    22.089     6.980
    14   6 C        2.912     0.056    26.740     8.479
    15   6 C        2.926    -0.046    29.132     8.851
    16   6 C        2.908    -0.046    29.131     8.850
    17   6 C        3.087     0.047    26.849     8.494
    18   6 C        3.113    -0.010    28.111     8.685
    19   6 C        2.914    -0.045    29.129     8.850
    20   6 C        3.023    -0.016    28.387     8.740
    21   6 C        2.932    -0.031    28.774     8.797
    22   6 C        2.923    -0.040    29.001     8.831
    23   6 C        2.933    -0.031    28.769     8.796
    24   6 C        3.022    -0.016    28.376     8.738
    25   6 C        3.113    -0.011    28.129     8.688
    26   6 C        2.911    -0.031    28.774     8.796
    27   6 C        2.919    -0.038    28.936     8.821
    28   6 C        2.923    -0.031    28.782     8.798
    29   6 C        2.908    -0.046    29.132     8.850
    30   6 C        3.086     0.050    26.776     8.482
    31   7 N        2.833    -0.030    21.816     6.937
    32   6 C        3.473     0.036    21.981     7.028
    33   1 H        0.926     0.027     2.631     2.537
    34   1 H        0.926     0.028     2.617     2.530
    35   1 H        0.926     0.026     2.639     2.540
    36   1 H        0.926     0.030     2.587     2.515
    37   1 H        0.926     0.030     2.586     2.515
    38   1 H        0.926     0.027     2.632     2.537
    39   1 H        0.926     0.028     2.619     2.531
    40   1 H        0.926     0.026     2.646     2.544
    41   1 H        0.926     0.044     2.400     2.423
    42   1 H        0.926     0.037     2.483     2.464
    43   1 H        0.926     0.045     2.378     2.411
    44   1 H        0.926     0.034     2.536     2.490
    45   1 H        0.926     0.034     2.532     2.488
    46   1 H        0.926     0.033     2.540     2.492
    47   1 H        0.926     0.036     2.506     2.475
    48   1 H        0.926     0.033     2.549     2.497
    49   1 H        0.926     0.034     2.532     2.488
    50   1 H        0.926     0.032     2.559     2.502

molecular dipole:
                 x           y           z       tot (Debye)
 q only:       -0.690      -0.088       0.044
   full:       -0.745      -0.186       0.090       1.964

 projected vibrational frequencies (cm⁻¹)
eigval :       -0.00    -0.00    -0.00    -0.00     0.00     0.00
eigval :       22.74    26.45    35.32    66.51    98.43   102.80
eigval :      118.20   125.27   143.92   150.40   155.77   215.99
eigval :      240.72   265.59   271.15   273.47   277.97   310.12
eigval :      358.63   385.04   397.73   399.30   408.00   421.65
eigval :      426.11   434.47   458.62   497.31   507.26   518.36
eigval :      528.07   537.35   541.26   554.10   571.31   576.80
eigval :      589.21   598.26   622.28   630.68   638.24   673.35
eigval :      681.91   683.75   692.57   705.11   708.66   710.14
eigval :      749.44   760.16   769.37   773.06   780.66   793.92
eigval :      821.33   840.24   867.04   867.91   872.07   883.43
eigval :      885.34   897.98   900.64   903.03   903.52   904.22
eigval :      911.09   917.03   920.98   922.20   922.96   923.89
eigval :      978.45  1012.29  1020.01  1066.89  1069.97  1072.95
eigval :     1073.59  1088.78  1110.00  1117.60  1150.54  1152.78
eigval :     1172.15  1177.49  1181.52  1185.89  1191.31  1193.76
eigval :     1227.60  1236.84  1240.27  1245.77  1258.11  1271.76
eigval :     1299.37  1304.76  1317.83  1326.46  1341.30  1354.94
eigval :     1356.72  1359.40  1364.16  1389.38  1414.54  1416.64
eigval :     1428.16  1434.13  1450.60  1466.55  1477.17  1483.37
eigval :     1488.87  1500.12  1562.80  1573.86  1576.30  1589.29
eigval :     1590.82  1599.31  1609.66  1610.59  1615.78  1641.32
eigval :     3074.06  3074.79  3075.14  3079.88  3079.92  3080.99
eigval :     3085.13  3086.80  3088.09  3088.44  3091.10  3093.29
eigval :     3094.15  3094.22  3095.75  3098.10  3099.07  3102.80

   temp. (K)  partition function   enthalpy   heat capacity  entropy
                                   cal/mol     cal/K/mol   cal/K/mol   J/K/mol
 298.15  VIB  0.106E+09            12427.605     86.991     73.042
         ROT  0.235E+08              888.752      2.981     36.710
         INT  0.249E+16            13316.357     89.972    109.753
         TR   0.793E+28             1481.254      4.968     43.878
         TOT                       14797.6112    94.9399   153.6307   642.7910

       T/K    H(0)-H(T)+PV         H(T)/Eh          T*S/Eh         G(T)/Eh
   ------------------------------------------------------------------------
    298.15    0.235815E-01    0.404195E+00    0.729949E-01    0.331200E+00
   ------------------------------------------------------------------------

         :::::::::::::::::::::::::::::::::::::::::::::::::::::
         ::                  THERMODYNAMIC                  ::
         :::::::::::::::::::::::::::::::::::::::::::::::::::::
         :: total free energy         -79.004814373372 Eh   ::
         ::.................................................::
         :: total energy              -79.336014696894 Eh   ::
         :: zero point energy           0.380613751018 Eh   ::
         :: G(RRHO) w/o ZPVE           -0.049413427496 Eh   ::
         :: G(RRHO) contrib.            0.331200323522 Eh   ::
         :::::::::::::::::::::::::::::::::::::::::::::::::::::

           -------------------------------------------------
          | TOTAL ENERGY              -79.336014696894 Eh   |
          | TOTAL ENTHALPY            -78.931819451473 Eh   |
          | TOTAL FREE ENERGY         -79.004814373372 Eh   |
          | GRADIENT NORM               0.000048085561 Eh/α |
          | HOMO-LUMO GAP               2.401263051207 eV   |
           -------------------------------------------------

 * finished run on 2025/09/08 at 05:53:51.861
