   * xtb version 6.7.1 (edcfbbe) compiled by 'albert@albert-system' on 2024-07-22

   ID    Z sym.   atoms
    1    6 C      1-12, 14-30, 32
    2    7 N      13, 31
    3    1 H      33-50

          program call               : xtb data2507/gas/5CzICz/5CzICz_gas_T1_crest.xyz --gfn 2 --spinpol --tblite --uhf 2 --ohess vtight --parallel 40 --molden --ceasefiles --namespace data2507/gas/5CzICz/5CzICz_gas_T1_finalOpt
 * total energy  :   -79.2386576 Eh     change       -0.2672165E-07 Eh
 * total energy  :   -79.2387079 Eh     change       -0.5028398E-04 Eh
 * total energy  :   -79.2387542 Eh     change       -0.4631120E-04 Eh
 * total energy  :   -79.2387585 Eh     change       -0.4321287E-05 Eh
 * total energy  :   -79.2387616 Eh     change       -0.3050933E-05 Eh
 * total energy  :   -79.2387626 Eh     change       -0.1053118E-05 Eh
 * total energy  :   -79.2387635 Eh     change       -0.8558451E-06 Eh
 * total energy  :   -79.2387641 Eh     change       -0.5822056E-06 Eh
 * total energy  :   -79.2387648 Eh     change       -0.7623548E-06 Eh
 * total energy  :   -79.2387662 Eh     change       -0.1326957E-05 Eh
 * total energy  :   -79.2387670 Eh     change       -0.8646985E-06 Eh
 * total energy  :   -79.2387676 Eh     change       -0.5446810E-06 Eh
 * total energy  :   -79.2387679 Eh     change       -0.3505062E-06 Eh
 * total energy  :   -79.2387681 Eh     change       -0.1600711E-06 Eh
 * total energy  :   -79.2387679 Eh     change        0.1472766E-06 Eh
 * total energy  :   -79.2387679 Eh     change        0.2833535E-07 Eh
 * total energy  :   -79.2387680 Eh     change       -0.4098835E-07 Eh
   *** GEOMETRY OPTIMIZATION CONVERGED AFTER 17 ITERATIONS ***

 final structure:
================
50
 xtb: 6.7.1 (edcfbbe)
C            5.29593348221689        2.78522220059515        1.17977224068770
C            3.94365604238737        3.04569090069333        1.38436767167804
C            2.97125173109563        2.12002615005429        1.04473449426233
C            3.38456739647878        0.92311079464376        0.47899473942208
C            4.76021045284001        0.63512100293593        0.30552771456057
C            5.71740346541250        1.57807966953211        0.65227905214571
C            4.83666173397242       -0.69950336656344       -0.22039639815384
C            5.89245155757350       -1.50911863669231       -0.61401438426045
C            5.60970511667036       -2.76154869445841       -1.12866026719484
C            4.29558934156547       -3.19821938280023       -1.27259225844927
C            3.22643548823910       -2.40652690071554       -0.88840088663556
C            3.50409801782110       -1.16485682044029       -0.33612796390296
N            2.63477905971060       -0.17458953228569        0.08932312164453
C            1.25220339757732       -0.26575239758036        0.11978405888349
C            0.65644853826698       -1.45952690850635        0.64328255756857
C           -0.71323035682985       -1.58637007698663        0.71458188700269
C           -1.50922454259032       -0.55211624622578        0.24935458890035
C           -0.90952267468633        0.68589688344262       -0.29551383735335
C            0.47377264474229        0.79057732771888       -0.33026113748543
C           -1.97861779592112        1.54126673440219       -0.69907881510421
C           -2.26089365702977        2.80333786688362       -1.26208188928788
C           -3.61226677820133        3.15978573684429       -1.43057513312755
C           -4.70674540664102        2.38120280706695       -1.09322944608276
C           -4.46163590600798        1.10124671506242       -0.52111478272471
C           -5.11649961567075       -0.07149813229555       -0.00245668394594
C           -6.44728113641772       -0.43742560543336        0.14927610938943
C           -6.75245491506895       -1.67346793592042        0.69715671002261
C           -5.75372495197432       -2.55800973402311        1.09918282234874
C           -4.41123677581410       -2.22733876493995        0.96244822283354
C           -4.09163937466353       -0.99989269558597        0.41925015016978
N           -2.86092763072924       -0.41644115578315        0.17141011110777
C           -3.11794970351732        0.81442798977772       -0.38274189423114
H            6.02492732103306        3.53363938722257        1.45215344560557
H            3.64534642634864        3.98638888792693        1.82168100581453
H            1.92852496001130        2.32361958832285        1.23210454039526
H            6.76730614830270        1.36698899401240        0.51844958125379
H            6.91064771514073       -1.16228293681962       -0.52595856848986
H            6.41757821370216       -3.40744406260134       -1.43835740424410
H            4.10427076069417       -4.17086754140318       -1.69995492476155
H            2.21157115825177       -2.74270789283376       -1.03299397810551
H            1.29907003865856       -2.22172069047693        1.05155024479201
H           -1.15592538601097       -2.47527351779144        1.13782018290567
H            0.94000151691159        1.66492495982176       -0.75850261285569
H           -1.48049835624163        3.48391088800812       -1.56231651793668
H           -3.80791139397416        4.13058784632128       -1.86652207966158
H           -5.70912866467612        2.74038082584298       -1.26218478513160
H           -7.23293335655644        0.23707167276967       -0.15715539640294
H           -7.78690495572070       -1.96027345073046        0.81662734704524
H           -6.02510728821759       -3.51313180004673        1.52177671236862
H           -3.64035361066380       -2.91635448916185        1.27412968322091

 projected vibrational frequencies (cm⁻¹)
eigval :       -0.00    -0.00     0.00     0.00     0.00     0.00
eigval :       22.01    29.76    37.74    69.73    97.04   102.79
eigval :      117.32   126.18   142.98   145.12   160.49   212.02
eigval :      238.26   258.36   267.15   272.78   274.08   294.25
eigval :      355.30   365.23   375.93   387.59   393.84   416.47
eigval :      419.29   434.55   452.52   475.00   492.40   497.32
eigval :      514.27   532.68   535.62   551.93   554.44   565.89
eigval :      582.00   585.13   614.35   620.12   623.41   652.78
eigval :      662.75   668.21   671.48   682.37   684.59   705.32
eigval :      722.57   731.60   752.51   754.48   759.12   769.77
eigval :      777.54   786.38   825.39   849.53   851.45   863.45
eigval :      870.48   875.19   879.94   882.87   888.64   893.61
eigval :      897.44   900.53   903.58   905.61   917.53   918.65
eigval :      921.96   970.97  1009.46  1017.01  1030.79  1058.53
eigval :     1066.34  1069.04  1070.97  1101.96  1112.86  1136.99
eigval :     1143.00  1166.57  1174.03  1177.09  1181.18  1187.10
eigval :     1193.79  1214.62  1223.90  1229.16  1236.40  1243.18
eigval :     1267.25  1276.68  1288.41  1307.94  1322.72  1330.54
eigval :     1341.16  1342.77  1344.00  1366.29  1370.48  1388.26
eigval :     1395.57  1408.43  1410.82  1423.30  1437.78  1452.35
eigval :     1458.50  1467.85  1478.56  1484.38  1497.00  1529.60
eigval :     1551.78  1558.75  1570.53  1573.08  1577.34  1622.76
eigval :     3062.19  3076.87  3079.44  3082.16  3082.68  3086.67
eigval :     3088.48  3088.71  3089.74  3091.65  3095.49  3095.97
eigval :     3097.26  3097.96  3099.93  3101.42  3102.62  3113.37

   temp. (K)  partition function   enthalpy   heat capacity  entropy
                                   cal/mol     cal/K/mol   cal/K/mol   J/K/mol
 298.15  VIB  0.122E+09            12744.014     89.565     74.673
         ROT  0.235E+08              888.752      2.981     36.710
         INT  0.286E+16            13632.766     92.545    111.384
         TR   0.793E+28             1481.254      4.968     43.878
         TOT                       15114.0200    97.5136   155.2621   649.6167

       T/K    H(0)-H(T)+PV         H(T)/Eh          T*S/Eh         G(T)/Eh
   ------------------------------------------------------------------------
    298.15    0.240857E-01    0.398920E+00    0.737700E-01    0.325150E+00
   ------------------------------------------------------------------------

         :::::::::::::::::::::::::::::::::::::::::::::::::::::
         ::                  THERMODYNAMIC                  ::
         :::::::::::::::::::::::::::::::::::::::::::::::::::::
         :: total free energy         -78.913618336400 Eh   ::
         ::.................................................::
         :: total energy              -79.238767909103 Eh   ::
         :: zero point energy           0.374833888964 Eh   ::
         :: G(RRHO) w/o ZPVE           -0.049684316261 Eh   ::
         :: G(RRHO) contrib.            0.325149572703 Eh   ::
         :::::::::::::::::::::::::::::::::::::::::::::::::::::

           -------------------------------------------------
          | TOTAL ENERGY              -79.238767909103 Eh   |
          | TOTAL ENTHALPY            -78.839848296206 Eh   |
          | TOTAL FREE ENERGY         -78.913618336400 Eh   |
          | GRADIENT NORM               0.000052409607 Eh/α |
           -------------------------------------------------

 * finished run on 2025/09/08 at 05:56:25.770
