   * xtb version 6.7.1 (edcfbbe) compiled by 'albert@albert-system' on 2024-07-22

   ID    Z sym.   atoms
    1    6 C      1-12, 14-30, 32
    2    7 N      13, 31
    3    1 H      33-50

          program call               : xtb data2507/gas/5CzICz/5CzICz_gas_S0_finalOpt.xtbopt.xyz --gfn 2 --spinpol --tblite --uhf 2 --ohess vtight --parallel 40 --molden --ceasefiles --namespace data2507/gas/5CzICz/5CzICz_gas_T1_preOpt
 * total energy  :   -79.2347132 Eh     change        0.3303029E-09 Eh
 * total energy  :   -79.2372116 Eh     change       -0.2498403E-02 Eh
 * total energy  :   -79.2383841 Eh     change       -0.1172538E-02 Eh
 * total energy  :   -79.2385507 Eh     change       -0.1665583E-03 Eh
 * total energy  :   -79.2386124 Eh     change       -0.6172180E-04 Eh
 * total energy  :   -79.2386285 Eh     change       -0.1607917E-04 Eh
 * total energy  :   -79.2386450 Eh     change       -0.1651653E-04 Eh
 * total energy  :   -79.2386539 Eh     change       -0.8944208E-05 Eh
 * total energy  :   -79.2386698 Eh     change       -0.1585137E-04 Eh
 * total energy  :   -79.2386885 Eh     change       -0.1871611E-04 Eh
 * total energy  :   -79.2387663 Eh     change       -0.2264060E-06 Eh
 * total energy  :   -79.2387665 Eh     change       -0.2141020E-06 Eh
 * total energy  :   -79.2387668 Eh     change       -0.2573815E-06 Eh
 * total energy  :   -79.2387671 Eh     change       -0.2787637E-06 Eh
 * total energy  :   -79.2387673 Eh     change       -0.2218173E-06 Eh
 * total energy  :   -79.2387675 Eh     change       -0.2587163E-06 Eh
 * total energy  :   -79.2387677 Eh     change       -0.1562169E-06 Eh
 * total energy  :   -79.2387678 Eh     change       -0.1172102E-06 Eh
 * total energy  :   -79.2387679 Eh     change       -0.6472600E-07 Eh
   *** GEOMETRY OPTIMIZATION CONVERGED AFTER 33 ITERATIONS ***

 final structure:
================
50
 xtb: 6.7.1 (edcfbbe)
C            5.30121313266344       -2.77424886571260       -1.17930614034178
C            3.94934569334667       -3.03795408437375       -1.38247411352517
C            2.97508787507024       -2.11458910830133       -1.04191433623201
C            3.38614838793578       -0.91659946781869       -0.47679541459772
C            4.76126334419904       -0.62538294894792       -0.30462855359785
C            5.72034143361740       -1.56609526548728       -0.65225631501284
C            4.83508223718827        0.70958063988081        0.22086228817428
C            5.88931901382749        1.52182384203294        0.61320660583419
C            5.60409471154655        2.77385708185040        1.12746352068572
C            4.28908236103610        3.20754994603356        1.27228327973108
C            3.22144357214414        2.41319290022654        0.88939739550957
C            3.50154681083740        1.17189050146057        0.33750483959410
N            2.63417212639019        0.17950148918673       -0.08685707769343
C            1.25139009438704        0.26785186192364       -0.11755730820432
C            0.65344109713731        1.45981734636978       -0.64268299297921
C           -0.71645529638213        1.58326586297197       -0.71579773860720
C           -1.51052791123950        0.54762219335947       -0.25041274148723
C           -0.90854635120097       -0.68812050438169        0.29716870553925
C            0.47498946477213       -0.78961255104642        0.33322369486344
C           -1.97609271422758       -1.54540438915549        0.70065289474804
C           -2.25608648533566       -2.80718697167242        1.26548599841670
C           -3.60683605960630       -3.16671337777474        1.43256837972528
C           -4.70273353365296       -2.39152426449708        1.09210167151593
C           -4.45994945754282       -1.11195169053396        0.51805754060831
C           -5.11695927456606        0.05814856602937       -0.00380976078389
C           -6.44842561414057        0.42025116604430       -0.15870487722872
C           -6.75585969442251        1.65445119614750       -0.70947569544443
C           -5.75873641395459        2.54089053745472       -1.11128515093682
C           -4.41562429455204        2.21403529421139       -0.97144228159070
C           -4.09378982061821        0.98845886980759       -0.42537421184337
N           -2.86199209420205        0.40864155672654       -0.17437335246813
C           -3.11677867575679       -0.82194018303854        0.38141991761898
H            6.03171196199769       -3.52089842935409       -1.45250060337521
H            3.65283281014501       -3.97937678691464       -1.81945274162096
H            1.93264361031696       -2.32067999245236       -1.22812806015937
H            6.76987608747126       -1.35249615085049       -0.51951956311625
H            6.90824776051111        1.17733048776616        0.52443557356188
H            6.41072641257957        3.42179091204481        1.43613918817484
H            4.09588611773988        4.17997057990856        1.69932441056275
H            2.20590348505415        2.74707228900431        1.03459212412638
H            1.29475190701737        2.22315932366581       -1.05085657773416
H           -1.16077098509369        2.47062769519582       -1.14057263529548
H            0.94287397410215       -1.66245403804378        0.76275098745786
H           -1.47446454518148       -3.48525477073192        1.56818253617383
H           -3.80069743454645       -4.13716341685087        1.87009754436642
H           -5.70448177268532       -2.75289949198857        1.26013880805750
H           -7.23285617525437       -0.25577822384659        0.14747824878437
H           -7.79084275694693        1.93826208478910       -0.83145567298637
H           -6.03185831722471        3.49448759280916       -1.53619848476246
H           -3.64599278711006        2.90448403194817       -1.28304435850654

 projected vibrational frequencies (cm⁻¹)
eigval :       -0.00    -0.00    -0.00    -0.00     0.00     0.00
eigval :       22.10    29.78    37.74    69.73    97.09   102.76
eigval :      117.26   126.12   142.94   145.04   160.43   212.07
eigval :      238.26   258.35   267.27   272.70   273.79   294.32
eigval :      355.21   365.23   375.95   387.60   393.85   416.65
eigval :      419.40   434.53   452.50   474.95   492.47   497.43
eigval :      514.30   532.72   535.62   551.96   554.30   565.88
eigval :      582.01   585.18   614.37   620.08   623.44   652.87
eigval :      662.60   668.20   671.50   682.35   684.33   705.30
eigval :      722.59   731.47   752.58   754.47   759.19   769.87
eigval :      777.60   786.39   825.29   849.58   851.52   863.67
eigval :      870.53   875.35   879.89   882.95   888.63   893.63
eigval :      897.54   900.60   903.66   905.68   917.65   918.76
eigval :      921.90   970.87  1009.39  1016.95  1030.81  1058.48
eigval :     1066.37  1068.92  1070.86  1101.83  1112.91  1137.09
eigval :     1143.05  1166.69  1174.14  1177.26  1181.23  1187.19
eigval :     1193.87  1214.90  1223.97  1229.22  1236.59  1243.31
eigval :     1267.35  1276.85  1288.40  1308.12  1323.26  1330.49
eigval :     1341.38  1342.78  1344.12  1366.27  1370.82  1388.34
eigval :     1395.66  1408.56  1410.92  1423.45  1437.67  1451.76
eigval :     1458.62  1467.79  1478.66  1484.31  1497.02  1530.47
eigval :     1551.82  1558.89  1570.96  1573.11  1577.39  1622.71
eigval :     3062.45  3077.09  3079.63  3082.37  3082.88  3086.85
eigval :     3088.66  3088.91  3089.94  3091.78  3095.74  3096.12
eigval :     3097.49  3098.60  3100.13  3101.70  3102.90  3113.61

   temp. (K)  partition function   enthalpy   heat capacity  entropy
                                   cal/mol     cal/K/mol   cal/K/mol   J/K/mol
 298.15  VIB  0.121E+09            12743.949     89.562     74.673
         ROT  0.235E+08              888.752      2.981     36.710
         INT  0.285E+16            13632.701     92.543    111.384
         TR   0.793E+28             1481.254      4.968     43.878
         TOT                       15113.9549    97.5115   155.2618   649.6152

       T/K    H(0)-H(T)+PV         H(T)/Eh          T*S/Eh         G(T)/Eh
   ------------------------------------------------------------------------
    298.15    0.240856E-01    0.398940E+00    0.737699E-01    0.325171E+00
   ------------------------------------------------------------------------

         :::::::::::::::::::::::::::::::::::::::::::::::::::::
         ::                  THERMODYNAMIC                  ::
         :::::::::::::::::::::::::::::::::::::::::::::::::::::
         :: total free energy         -78.913597292098 Eh   ::
         ::.................................................::
         :: total energy              -79.238767890852 Eh   ::
         :: zero point energy           0.374854848967 Eh   ::
         :: G(RRHO) w/o ZPVE           -0.049684250213 Eh   ::
         :: G(RRHO) contrib.            0.325170598754 Eh   ::
         :::::::::::::::::::::::::::::::::::::::::::::::::::::

           -------------------------------------------------
          | TOTAL ENERGY              -79.238767890852 Eh   |
          | TOTAL ENTHALPY            -78.839827421710 Eh   |
          | TOTAL FREE ENERGY         -78.913597292098 Eh   |
          | GRADIENT NORM               0.000020383300 Eh/α |
           -------------------------------------------------

 * finished run on 2025/09/08 at 05:54:57.906
