   * xtb version 6.7.1 (edcfbbe) compiled by 'albert@albert-system' on 2024-07-22

   ID    Z sym.   atoms
    1    6 C      1-12, 14-30, 32
    2    7 N      13, 31
    3    1 H      33-50

          program call               : xtb data2507/gas/5CzICz/5CzICz_gas_S0_crest.xyz --gfn 2 --ohess vtight --parallel 40 --molden --ceasefiles --namespace data2507/gas/5CzICz/5CzICz_gas_S0_finalOpt
          :  Hamiltonian                  GFN2-xTB          :
 * total energy  :   -79.3360126 Eh     change       -0.7348149E-09 Eh
 * total energy  :   -79.3360130 Eh     change       -0.4212476E-06 Eh
 * total energy  :   -79.3360133 Eh     change       -0.2721667E-06 Eh
 * total energy  :   -79.3360136 Eh     change       -0.3396609E-06 Eh
 * total energy  :   -79.3360139 Eh     change       -0.2618382E-06 Eh
 * total energy  :   -79.3360141 Eh     change       -0.1774390E-06 Eh
 * total energy  :   -79.3360142 Eh     change       -0.1203093E-06 Eh
 * total energy  :   -79.3360143 Eh     change       -0.1048249E-06 Eh
 * total energy  :   -79.3360144 Eh     change       -0.1239909E-06 Eh
 * total energy  :   -79.3360145 Eh     change       -0.1326735E-06 Eh
 * total energy  :   -79.3360147 Eh     change       -0.1187178E-06 Eh
 * total energy  :   -79.3360147 Eh     change       -0.7978383E-07 Eh
   *** GEOMETRY OPTIMIZATION CONVERGED AFTER 12 ITERATIONS ***

 final structure:
================
50
 xtb: 6.7.1 (edcfbbe)
C            5.29975731603825       -2.73777107394621       -1.29480798782658
C            3.94526617101928       -2.98518128368672       -1.50814956811240
C            2.97771206901434       -2.07030770361713       -1.14009916883025
C            3.39619859591793       -0.89120181369596       -0.53992295060249
C            4.76984290538008       -0.62140122608041       -0.34000762184232
C            5.72353346199162       -1.55724975848483       -0.71847832098510
C            4.84663966935930        0.68411753769142        0.25267108937724
C            5.90125799172976        1.47694412103450        0.68591930428188
C            5.61831897018190        2.70736180860382        1.24396956639388
C            4.30290228437885        3.14420492470819        1.38602561013790
C            3.23700761855690        2.37410117698021        0.96250113152844
C            3.51614449484676        1.14621871029676        0.37936514709990
N            2.65125963509386        0.18510523129533       -0.10261437539414
C            1.25200217440665        0.28413454765076       -0.14474183899159
C            0.65885392577452        1.40854641628763       -0.72337784909326
C           -0.71607564933496        1.54697253434763       -0.78028794266229
C           -1.50046192390984        0.53335181585725       -0.26164200498684
C           -0.90529426183340       -0.62941522570133        0.32631495350047
C            0.47203866369395       -0.73837123041583        0.38607558836371
C           -1.98174919133439       -1.49750033737136        0.77151947642913
C           -2.24993226119562       -2.71530484315201        1.38966068008728
C           -3.58524092250833       -3.07960196820878        1.57903341137552
C           -4.69139159143751       -2.31558890724282        1.19617458577689
C           -4.46418657466746       -1.09159442866202        0.57491466326329
C           -5.12969580176338        0.06210870364631       -0.00736264697881
C           -6.46286070945248        0.39895265563840       -0.17211324918942
C           -6.78085324925808        1.60142910335991       -0.77999739316642
C           -5.78786327447656        2.46625166308872       -1.22278735849215
C           -4.44518218703624        2.15920114560371       -1.07338012598174
C           -4.11576732210549        0.96152092105490       -0.46786975859998
N           -2.87708535458659        0.40361448280890       -0.18988403397175
C           -3.11986058245932       -0.78900046693127        0.41619731991983
H            6.02496658917816       -3.47985914785739       -1.59419400313220
H            3.64494786903647       -3.91188316674879       -1.97485671461884
H            1.93157640074500       -2.26386841194401       -1.32463922276183
H            6.77390377686944       -1.35903266552658       -0.56651074035029
H            6.91970188909777        1.13170956943867        0.58976679794915
H            6.42399086411759        3.34043673429604        1.58507196491875
H            4.11200936033493        4.10522861061538        1.84078637794177
H            2.22022410517131        2.71341199192453        1.09240782418776
H            1.29292246457260        2.17474796973266       -1.14294730369349
H           -1.16042411663586        2.42193849762851       -1.22848297626050
H            0.93852760947399       -1.59567494787267        0.84682936505083
H           -1.46217153051069       -3.37469139185950        1.72120739241592
H           -3.77860406552369       -4.02804261565373        2.06024417689961
H           -5.68787917932934       -2.68431547429538        1.38689747794071
H           -7.23873256109798       -0.26933963856526        0.17014792444796
H           -7.81710748379835        1.87396970783739       -0.91326751152852
H           -6.06661503583902        3.39739197102118       -1.69326177440337
H           -3.68041781458671        2.83693336467083       -1.42034552133127

          :  Hamiltonian                  GFN2-xTB          :
         :: gradient norm              0.000022731840 Eh/a0 ::
         :: HOMO-LUMO gap              2.401336913231 eV    ::
         :: SCC energy               -80.842419369540 Eh    ::
         :: -> dispersion             -0.068427560153 Eh    ::
         :: repulsion energy           1.506404629635 Eh    ::

    * Orbital Energies and Occupations

         #    Occupation            Energy/Eh            Energy/eV
      -------------------------------------------------------------
         1        2.0000           -0.6898895             -18.7728
       ...           ...                  ...                  ...
        62        2.0000           -0.4277536             -11.6398
        63        2.0000           -0.4228111             -11.5053
        64        2.0000           -0.4218561             -11.4793
        65        2.0000           -0.4186133             -11.3910
        66        2.0000           -0.4163437             -11.3293
        67        2.0000           -0.4144259             -11.2771
        68        2.0000           -0.4136573             -11.2562
        69        2.0000           -0.4012104             -10.9175
        70        2.0000           -0.3914261             -10.6512
        71        2.0000           -0.3878211             -10.5531
        72        2.0000           -0.3777385             -10.2788
        73        2.0000           -0.3745034             -10.1908
        74        2.0000           -0.3567669              -9.7081 (HOMO)
        75                         -0.2685194              -7.3068 (LUMO)
        76                         -0.2427469              -6.6055
        77                         -0.2383110              -6.4848
        78                         -0.2348973              -6.3919
        79                         -0.2177837              -5.9262
        80                         -0.2157563              -5.8710
        81                         -0.1965469              -5.3483
        82                         -0.1857281              -5.0539
        83                         -0.1819103              -4.9500
        84                         -0.1795537              -4.8859
        85                         -0.0984152              -2.6780
       ...                                ...                  ...
       146                          0.7634612              20.7748
      -------------------------------------------------------------
                  HL-Gap            0.0882475 Eh            2.4013 eV

     #   Z          covCN         q      C6AA      α(0)
     1   6 C        2.920    -0.041    29.028     8.835
     2   6 C        2.924    -0.034    28.840     8.807
     3   6 C        2.910    -0.051    29.271     8.871
     4   6 C        3.077     0.046    26.879     8.500
     5   6 C        3.068    -0.018    28.375     8.734
     6   6 C        2.912    -0.033    28.823     8.804
     7   6 C        3.068    -0.017    28.374     8.734
     8   6 C        2.912    -0.033    28.823     8.803
     9   6 C        2.920    -0.041    29.029     8.835
    10   6 C        2.924    -0.034    28.842     8.807
    11   6 C        2.910    -0.051    29.275     8.872
    12   6 C        3.077     0.046    26.882     8.501
    13   7 N        2.803    -0.044    22.089     6.980
    14   6 C        2.912     0.056    26.740     8.479
    15   6 C        2.926    -0.046    29.133     8.851
    16   6 C        2.908    -0.046    29.131     8.850
    17   6 C        3.087     0.047    26.849     8.494
    18   6 C        3.113    -0.010    28.111     8.685
    19   6 C        2.914    -0.046    29.130     8.850
    20   6 C        3.023    -0.016    28.387     8.740
    21   6 C        2.932    -0.031    28.774     8.797
    22   6 C        2.923    -0.040    29.001     8.831
    23   6 C        2.933    -0.031    28.769     8.796
    24   6 C        3.022    -0.016    28.376     8.738
    25   6 C        3.113    -0.011    28.129     8.688
    26   6 C        2.911    -0.031    28.774     8.796
    27   6 C        2.919    -0.038    28.936     8.821
    28   6 C        2.923    -0.031    28.782     8.798
    29   6 C        2.908    -0.046    29.132     8.850
    30   6 C        3.086     0.050    26.777     8.482
    31   7 N        2.833    -0.030    21.816     6.937
    32   6 C        3.472     0.036    21.983     7.028
    33   1 H        0.926     0.027     2.631     2.537
    34   1 H        0.926     0.028     2.616     2.530
    35   1 H        0.926     0.026     2.639     2.540
    36   1 H        0.926     0.030     2.587     2.515
    37   1 H        0.926     0.030     2.586     2.515
    38   1 H        0.926     0.027     2.632     2.537
    39   1 H        0.926     0.028     2.619     2.531
    40   1 H        0.926     0.026     2.645     2.543
    41   1 H        0.926     0.044     2.400     2.423
    42   1 H        0.926     0.037     2.484     2.464
    43   1 H        0.926     0.045     2.378     2.411
    44   1 H        0.926     0.034     2.536     2.490
    45   1 H        0.926     0.034     2.532     2.488
    46   1 H        0.926     0.033     2.540     2.492
    47   1 H        0.926     0.036     2.506     2.475
    48   1 H        0.926     0.033     2.549     2.497
    49   1 H        0.926     0.034     2.532     2.488
    50   1 H        0.926     0.032     2.559     2.502

molecular dipole:
                 x           y           z       tot (Debye)
 q only:       -0.688       0.088      -0.046
   full:       -0.743       0.185      -0.094       1.961

 projected vibrational frequencies (cm⁻¹)
eigval :       -0.00    -0.00    -0.00    -0.00     0.00     0.00
eigval :       22.74    26.52    35.34    66.52    98.45   102.83
eigval :      118.23   125.27   143.93   150.44   155.80   216.03
eigval :      240.77   265.59   271.16   273.52   277.94   310.14
eigval :      358.61   385.06   397.75   399.31   408.02   421.65
eigval :      426.10   434.52   458.64   497.32   507.27   518.36
eigval :      528.09   537.36   541.26   554.13   571.32   576.81
eigval :      589.21   598.27   622.29   630.69   638.23   673.35
eigval :      681.92   683.75   692.57   705.10   708.67   710.14
eigval :      749.44   760.16   769.38   773.06   780.67   793.92
eigval :      821.34   840.23   867.03   867.90   872.09   883.43
eigval :      885.42   897.97   900.65   903.03   903.53   904.25
eigval :      911.13   917.03   920.99   922.20   922.98   923.93
eigval :      978.45  1012.29  1020.00  1066.88  1069.99  1072.96
eigval :     1073.61  1088.79  1110.01  1117.61  1150.55  1152.80
eigval :     1172.16  1177.50  1181.52  1185.89  1191.32  1193.77
eigval :     1227.61  1236.84  1240.28  1245.78  1258.11  1271.76
eigval :     1299.37  1304.75  1317.84  1326.46  1341.30  1354.92
eigval :     1356.72  1359.40  1364.16  1389.38  1414.55  1416.65
eigval :     1428.16  1434.14  1450.59  1466.54  1477.16  1483.37
eigval :     1488.87  1500.11  1562.81  1573.86  1576.30  1589.28
eigval :     1590.81  1599.30  1609.68  1610.58  1615.77  1641.30
eigval :     3074.04  3074.79  3075.14  3079.88  3079.91  3080.99
eigval :     3085.14  3086.81  3088.08  3088.45  3091.12  3093.30
eigval :     3094.15  3094.22  3095.74  3098.14  3099.07  3102.82

   temp. (K)  partition function   enthalpy   heat capacity  entropy
                                   cal/mol     cal/K/mol   cal/K/mol   J/K/mol
 298.15  VIB  0.106E+09            12427.031     86.991     73.036
         ROT  0.235E+08              888.752      2.981     36.710
         INT  0.248E+16            13315.784     89.972    109.747
         TR   0.793E+28             1481.254      4.968     43.878
         TOT                       14797.0376    94.9400   153.6250   642.7671

       T/K    H(0)-H(T)+PV         H(T)/Eh          T*S/Eh         G(T)/Eh
   ------------------------------------------------------------------------
    298.15    0.235806E-01    0.404197E+00    0.729922E-01    0.331205E+00
   ------------------------------------------------------------------------

         :::::::::::::::::::::::::::::::::::::::::::::::::::::
         ::                  THERMODYNAMIC                  ::
         :::::::::::::::::::::::::::::::::::::::::::::::::::::
         :: total free energy         -79.004810230587 Eh   ::
         ::.................................................::
         :: total energy              -79.336014739905 Eh   ::
         :: zero point energy           0.380616139736 Eh   ::
         :: G(RRHO) w/o ZPVE           -0.049411630419 Eh   ::
         :: G(RRHO) contrib.            0.331204509318 Eh   ::
         :::::::::::::::::::::::::::::::::::::::::::::::::::::

           -------------------------------------------------
          | TOTAL ENERGY              -79.336014739905 Eh   |
          | TOTAL ENTHALPY            -78.931818019743 Eh   |
          | TOTAL FREE ENERGY         -79.004810230587 Eh   |
          | GRADIENT NORM               0.000022732407 Eh/α |
          | HOMO-LUMO GAP               2.401336821315 eV   |
           -------------------------------------------------

 * finished run on 2025/09/08 at 05:54:53.722
