   * xtb version 6.7.1 (edcfbbe) compiled by 'albert@albert-system' on 2024-07-22

   ID    Z sym.   atoms
    1    6 C      1-57
    2    1 H      58-91

          program call               : xtb data2507/toluene/SBTF/SBTF_toluene_T1_crest.xyz --gfn 2 --uhf 2 --gbsa toluene --ohess vtight --parallel 40 --molden --ceasefiles --namespace data2507/toluene/SBTF/SBTF_toluene_T1_finalOpt
      * Solvation model:               GBSA
        Solvent                        toluene
        Solvent mass                       9.2140E+01 g/mol
          :  Hamiltonian                  GFN2-xTB          :
 * total energy  :  -139.4372540 Eh     change       -0.2818723E-08 Eh
 * total energy  :  -139.4372809 Eh     change       -0.2686658E-04 Eh
 * total energy  :  -139.4372932 Eh     change       -0.1231699E-04 Eh
 * total energy  :  -139.4372993 Eh     change       -0.6146841E-05 Eh
 * total energy  :  -139.4373074 Eh     change       -0.8084266E-05 Eh
 * total energy  :  -139.4373117 Eh     change       -0.4321942E-05 Eh
 * total energy  :  -139.4373177 Eh     change       -0.6016760E-05 Eh
 * total energy  :  -139.4373229 Eh     change       -0.5135192E-05 Eh
 * total energy  :  -139.4373260 Eh     change       -0.3077243E-05 Eh
 * total energy  :  -139.4373290 Eh     change       -0.3092530E-05 Eh
 * total energy  :  -139.4374237 Eh     change       -0.5926429E-06 Eh
 * total energy  :  -139.4374243 Eh     change       -0.5547599E-06 Eh
 * total energy  :  -139.4374248 Eh     change       -0.4999620E-06 Eh
 * total energy  :  -139.4374253 Eh     change       -0.4774937E-06 Eh
 * total energy  :  -139.4374258 Eh     change       -0.5025738E-06 Eh
 * total energy  :  -139.4374263 Eh     change       -0.5646179E-06 Eh
 * total energy  :  -139.4374270 Eh     change       -0.6338638E-06 Eh
 * total energy  :  -139.4374276 Eh     change       -0.6680576E-06 Eh
 * total energy  :  -139.4374276 Eh     change       -0.2651433E-08 Eh
   *** GEOMETRY OPTIMIZATION CONVERGED AFTER 68 ITERATIONS ***

 final structure:
================
91
 xtb: 6.7.1 (edcfbbe)
C            1.84019833367891       -4.49451092850505        2.16383277467523
C            1.39788997659488       -3.34760039461683        2.80489810244556
C            0.92463145466395       -2.26219204260649        2.07744665924865
C            0.92038869547413       -2.34560081976844        0.70354961640285
C            1.37007688609335       -3.50375178447088        0.04855287746197
C            1.83139090479032       -4.58519087230018        0.78021257388704
C            1.28557989295126       -3.28342181463552       -1.38956001681988
C            1.63698917478096       -4.09154757569071       -2.45796478029913
C            1.48839280705284       -3.59432529226651       -3.74366560927246
C            0.99901746556004       -2.31521445086897       -3.95990824597511
C            0.63585681168750       -1.50164407101036       -2.89351823580823
C            0.78836119941981       -1.98975075921889       -1.61555302956947
C            0.41043753510411       -1.32067564919608       -0.29940652724874
C            1.00970455614710        0.04746667097511       -0.10510799811720
C            0.15878599994182        1.18561475971814        0.00763088140773
C            0.75943572308788        2.44497154155505        0.30232398024455
C            2.09476346414704        2.58829731091722        0.44899851924285
C            2.97167052664156        1.48329727195658        0.26824172026328
C            4.34673964022119        1.64841610954620        0.39366736022621
C            5.23631368806604        0.59000234736451        0.23187905544653
C            6.67582542970601        0.77061068470922        0.39138618986132
C            7.46646797441904       -0.26931328103126        0.93783880551166
C            8.81022002864649       -0.11879914919933        1.10911722434944
C            9.46339938325418        1.07804775646414        0.73834361881871
C           10.84976833707170        1.26321630500827        0.89900256412015
C           11.44607555083116        2.43846631722359        0.52817524067345
C           10.67943399726652        3.47815486059734       -0.02091420358389
C            9.33105332393858        3.32847199313725       -0.18979371551121
C            8.68468701299000        2.12939821527405        0.18448800005810
C            7.29927985192308        1.94828996636163        0.02762584457545
C            4.68867639813640       -0.66225028340990       -0.10043974947252
C            3.34112591788819       -0.84750092063953       -0.23395453567599
C            2.40811568643976        0.20378945362941       -0.02875795355795
C           -1.24473903893987        1.08243197825956       -0.13451618009946
C           -2.09286430991344        2.22650795032567       -0.22923814078417
C           -3.44923685646432        2.12179573330823       -0.24144752297853
C           -4.10095350052197        0.86951942631322       -0.13243071912314
C           -5.52503344704360        0.82831063245734        0.10760318207644
C           -6.01587012481996        0.07441790006989        1.15525826657208
C           -7.36386395398896        0.13159403727369        1.55966947836753
C           -7.80641473598625       -0.61909810576243        2.66907237892363
C           -9.10196103419744       -0.53528881237909        3.10456450455340
C           -9.99810760375562        0.31052934163061        2.44724617384351
C           -9.59000850180290        1.04970265370083        1.35962710677421
C           -8.27637959765062        0.98029771509737        0.87974352013847
C           -7.80841147283923        1.71191393968955       -0.27665288145803
C           -8.66985237296807        2.49057499456978       -1.06420639719853
C           -8.23136826015287        3.12920802722697       -2.20072074070553
C           -6.91004234612270        2.98538784471073       -2.61341797679249
C           -6.03996703377695        2.23545259047900       -1.85935083854407
C           -6.44895950013686        1.62122149181260       -0.66458644935554
C           -3.29697697698798       -0.31102126368102       -0.16962188885594
C           -3.88300855611160       -1.57852044255335       -0.27889566004187
C           -3.10219797772133       -2.71899603982939       -0.33599659451835
C           -1.72685041124532       -2.61694873855757       -0.31125936875785
C           -1.10371370471048       -1.36744160216829       -0.24751902643642
C           -1.87579888779596       -0.20582324411479       -0.18621597572312
H            2.19915379561490       -5.32770961000439        2.75063323686600
H            1.41880658166346       -3.29690962833963        3.88378647984395
H            0.57551407535015       -1.37121745481150        2.57908755686788
H            2.17836268393869       -5.48022667711750        0.28512178038316
H            2.02021656241660       -5.08795820393941       -2.29415383047790
H            1.75942257371451       -4.21102342733321       -4.58841753085122
H            0.89581641056784       -1.94627598073926       -4.96998414595351
H            0.24835155351801       -0.50765056688695       -3.06399619835791
H            0.12678061416711        3.30374933767580        0.45626508506567
H            2.52177803867628        3.54867519143771        0.70157202349339
H            4.72173498044765        2.62803357675361        0.65467706270888
H            6.98328971111361       -1.18403086625012        1.24913475736922
H            9.39876766420885       -0.91731338525851        1.53967086503257
H           11.43627225553619        0.45938400573089        1.32220094111193
H           12.51074211849240        2.57365920831286        0.65421164534075
H           11.16595930954384        4.39915331689492       -0.30929000333505
H            8.73766781423340        4.12754820752551       -0.61220435248003
H            6.72550333436804        2.74958948034332       -0.41605177528538
H            5.35131782842990       -1.49440599335488       -0.29006945814513
H            2.99560367711009       -1.82004413244182       -0.52796512615118
H           -1.65681874536010        3.20987768781558       -0.29380014623704
H           -4.05294444437295        3.01764748746672       -0.25921241257512
H           -5.33164807359310       -0.51751575369757        1.74717886361796
H           -7.09738477476326       -1.26259817434194        3.17091309089355
H           -9.43298469883070       -1.11328393816532        3.95533038423554
H          -11.01783905267228        0.38581006185503        2.79604989567705
H          -10.30945278357892        1.69559444663935        0.88133465889428
H           -9.70812037201536        2.58702316878993       -0.78932899540801
H           -8.91879435976324        3.72353206890951       -2.78523609709509
H           -6.57319482013506        3.45251818766484       -3.52748206384562
H           -5.02473342140121        2.09465162422391       -2.19914255640950
H           -4.95713479752137       -1.66142953583857       -0.34132469537436
H           -3.56984906093342       -3.68962470531623       -0.41152455772352
H           -1.13023942633741       -3.51438286598572       -0.36020512700924

          :  Hamiltonian                  GFN2-xTB          :
         :: gradient norm              0.000040126990 Eh/a0 ::
         :: HOMO-LUMO gap              0.589748467507 eV    ::
         :: SCC energy              -142.163726067128 Eh    ::
         :: -> dispersion             -0.140892424307 Eh    ::
         :: -> Gsolv                  -0.054286765536 Eh    ::
         :: repulsion energy           2.726298429429 Eh    ::

    * Orbital Energies and Occupations

         #    Occupation            Energy/Eh            Energy/eV
      -------------------------------------------------------------
         1        2.0000           -0.6639088             -18.0659
       ...           ...                  ...                  ...
       120        2.0000           -0.4059159             -11.0455
       121        2.0000           -0.4042596             -11.0005
       122        2.0000           -0.4012732             -10.9192
       123        2.0000           -0.3994721             -10.8702
       124        2.0000           -0.3923173             -10.6755
       125        2.0000           -0.3893870             -10.5958
       126        2.0000           -0.3858854             -10.5005
       127        2.0000           -0.3842982             -10.4573
       128        2.0000           -0.3801256             -10.3437
       129        2.0000           -0.3762624             -10.2386
       130        2.0000           -0.3706499             -10.0859
       131        1.0000           -0.3496588              -9.5147
       132        1.0000           -0.2849714              -7.7545 (HOMO)
       133        0.0000           -0.2632986              -7.1647 (LUMO)
       134                         -0.2566945              -6.9850
       135                         -0.2545932              -6.9278
       136                         -0.2506457              -6.8204
       137                         -0.2473744              -6.7314
       138                         -0.2355314              -6.4091
       139                         -0.2274690              -6.1897
       140                         -0.2260496              -6.1511
       141                         -0.2235676              -6.0836
       142                         -0.2154053              -5.8615
       143                         -0.2117129              -5.7610
       ...                                ...                  ...
       262                          0.7258756              19.7521
      -------------------------------------------------------------
                  HL-Gap            0.0216728 Eh            0.5897 eV

     #   Z          covCN         q      C6AA      α(0)
     1   6 C        2.921    -0.033    28.817     8.803
     2   6 C        2.923    -0.031    28.782     8.798
     3   6 C        2.913    -0.032    28.808     8.801
     4   6 C        3.057     0.007    27.800     8.647
     5   6 C        3.030     0.002    27.959     8.673
     6   6 C        2.914    -0.035    28.868     8.811
     7   6 C        3.031     0.001    27.967     8.674
     8   6 C        2.914    -0.035    28.863     8.810
     9   6 C        2.921    -0.033    28.818     8.803
    10   6 C        2.923    -0.031    28.779     8.797
    11   6 C        2.913    -0.033    28.824     8.804
    12   6 C        3.060     0.008    27.783     8.644
    13   6 C        3.944     0.016    20.246     6.394
    14   6 C        2.968    -0.002    28.085     8.693
    15   6 C        2.971     0.003    27.960     8.673
    16   6 C        2.916    -0.040    28.983     8.828
    17   6 C        2.914    -0.039    28.974     8.827
    18   6 C        2.985     0.007    27.846     8.656
    19   6 C        2.928    -0.043    29.064     8.841
    20   6 C        2.971     0.005    27.907     8.665
    21   6 C        2.971     0.007    27.851     8.657
    22   6 C        2.920    -0.035    28.882     8.813
    23   6 C        2.915    -0.038    28.944     8.822
    24   6 C        2.987     0.009    27.806     8.650
    25   6 C        2.917    -0.037    28.912     8.817
    26   6 C        2.916    -0.033    28.814     8.802
    27   6 C        2.915    -0.032    28.793     8.799
    28   6 C        2.918    -0.037    28.930     8.820
    29   6 C        2.984     0.010    27.777     8.645
    30   6 C        2.924    -0.043    29.078     8.843
    31   6 C        2.919    -0.036    28.898     8.815
    32   6 C        2.917    -0.044    29.082     8.843
    33   6 C        2.975     0.003    27.945     8.671
    34   6 C        2.974    -0.001    28.044     8.686
    35   6 C        2.912    -0.040    29.000     8.830
    36   6 C        2.912    -0.035    28.867     8.810
    37   6 C        2.976     0.000    28.013     8.682
    38   6 C        2.969     0.005    27.915     8.666
    39   6 C        2.924    -0.043    29.071     8.842
    40   6 C        2.982     0.010    27.797     8.648
    41   6 C        2.923    -0.037    28.932     8.821
    42   6 C        2.914    -0.031    28.782     8.797
    43   6 C        2.917    -0.034    28.835     8.806
    44   6 C        2.918    -0.036    28.890     8.814
    45   6 C        2.979     0.003    27.942     8.671
    46   6 C        2.978     0.005    27.899     8.664
    47   6 C        2.921    -0.036    28.904     8.816
    48   6 C        2.916    -0.032    28.800     8.800
    49   6 C        2.916    -0.032    28.809     8.802
    50   6 C        2.922    -0.035    28.883     8.813
    51   6 C        2.984     0.007    27.854     8.657
    52   6 C        2.980     0.008    27.846     8.656
    53   6 C        2.922    -0.038    28.934     8.821
    54   6 C        2.913    -0.033    28.816     8.803
    55   6 C        2.921    -0.037    28.931     8.821
    56   6 C        2.992     0.011    27.761     8.643
    57   6 C        2.986     0.001    27.992     8.679
    58   1 H        0.926     0.034     2.535     2.490
    59   1 H        0.926     0.033     2.542     2.493
    60   1 H        0.926     0.027     2.626     2.534
    61   1 H        0.926     0.034     2.524     2.484
    62   1 H        0.926     0.035     2.517     2.481
    63   1 H        0.926     0.034     2.530     2.487
    64   1 H        0.926     0.034     2.535     2.490
    65   1 H        0.926     0.028     2.612     2.527
    66   1 H        0.926     0.036     2.500     2.473
    67   1 H        0.926     0.031     2.574     2.509
    68   1 H        0.926     0.032     2.557     2.501
    69   1 H        0.926     0.032     2.558     2.501
    70   1 H        0.925     0.031     2.577     2.510
    71   1 H        0.925     0.030     2.583     2.513
    72   1 H        0.926     0.029     2.597     2.520
    73   1 H        0.926     0.029     2.595     2.519
    74   1 H        0.925     0.030     2.584     2.514
    75   1 H        0.926     0.032     2.558     2.501
    76   1 H        0.926     0.029     2.604     2.524
    77   1 H        0.926     0.036     2.509     2.477
    78   1 H        0.926     0.035     2.518     2.482
    79   1 H        0.926     0.034     2.537     2.491
    80   1 H        0.926     0.033     2.550     2.497
    81   1 H        0.926     0.031     2.577     2.510
    82   1 H        0.926     0.030     2.588     2.516
    83   1 H        0.926     0.030     2.589     2.516
    84   1 H        0.926     0.033     2.542     2.493
    85   1 H        0.926     0.034     2.527     2.486
    86   1 H        0.926     0.031     2.578     2.511
    87   1 H        0.926     0.031     2.579     2.511
    88   1 H        0.926     0.036     2.502     2.474
    89   1 H        0.926     0.038     2.478     2.462
    90   1 H        0.926     0.033     2.551     2.498
    91   1 H        0.926     0.031     2.568     2.506

molecular dipole:
                 x           y           z       tot (Debye)
 q only:       -0.385      -0.242      -0.108
   full:       -0.388      -0.254      -0.083       1.196

 projected vibrational frequencies (cm⁻¹)
eigval :       -0.00    -0.00    -0.00     0.00     0.00     0.00
eigval :       -5.89     8.23    18.02    22.00    30.21    33.19
eigval :       36.14    49.54    52.14    58.54    66.05    80.39
eigval :       82.67    94.75   102.14   111.16   120.00   133.20
eigval :      138.34   145.13   158.83   168.88   174.55   178.85
eigval :      192.64   217.80   223.47   229.20   248.25   258.43
eigval :      266.33   269.19   282.55   291.11   298.01   311.90
eigval :      324.46   352.44   360.66   368.16   383.46   388.99
eigval :      391.37   401.62   406.64   409.73   415.61   425.90
eigval :      441.68   443.62   445.93   454.71   457.89   463.34
eigval :      471.82   482.62   491.06   497.87   500.01   502.04
eigval :      508.44   517.23   523.63   528.24   534.15   541.11
eigval :      552.09   558.64   573.76   578.71   584.04   587.30
eigval :      590.78   597.06   610.37   618.55   623.96   640.20
eigval :      645.95   653.80   665.02   679.23   682.56   707.61
eigval :      709.84   716.07   720.34   722.10   727.75   734.85
eigval :      750.80   751.48   755.59   757.79   764.28   777.08
eigval :      779.23   782.46   784.68   791.10   791.53   796.73
eigval :      811.42   815.57   816.39   836.50   850.54   852.56
eigval :      856.26   860.37   862.94   871.33   873.29   875.16
eigval :      878.47   879.82   882.29   883.67   886.65   891.37
eigval :      901.61   904.54   905.91   907.72   908.74   910.54
eigval :      913.83   915.25   919.12   921.06   923.21   927.23
eigval :      927.39   929.52   935.52   953.31   958.89   988.32
eigval :      997.68  1017.00  1056.73  1072.29  1077.23  1077.32
eigval :     1084.87  1085.30  1104.29  1105.99  1110.08  1128.02
eigval :     1137.83  1139.62  1142.59  1159.53  1161.42  1168.21
eigval :     1169.98  1172.31  1176.35  1177.04  1178.53  1180.92
eigval :     1185.37  1189.13  1195.32  1197.24  1202.31  1205.73
eigval :     1207.50  1214.03  1224.60  1231.31  1231.59  1245.68
eigval :     1248.58  1253.66  1254.50  1260.01  1261.34  1273.40
eigval :     1279.20  1285.13  1287.93  1298.04  1309.38  1324.26
eigval :     1326.29  1332.49  1335.33  1341.06  1345.60  1356.27
eigval :     1357.58  1361.06  1363.13  1369.46  1379.58  1382.86
eigval :     1394.12  1403.01  1409.78  1415.03  1420.27  1422.17
eigval :     1424.48  1425.95  1428.46  1433.21  1442.48  1455.38
eigval :     1455.72  1465.70  1466.45  1467.62  1485.80  1495.71
eigval :     1499.32  1517.65  1527.74  1532.86  1534.16  1546.46
eigval :     1553.48  1565.75  1581.72  1583.98  1589.38  1591.06
eigval :     1593.52  1596.91  1597.47  1598.93  1602.93  3060.33
eigval :     3061.58  3063.92  3064.63  3066.27  3068.91  3069.43
eigval :     3069.77  3070.33  3070.79  3071.54  3072.23  3073.36
eigval :     3074.56  3074.96  3075.47  3075.97  3076.48  3078.73
eigval :     3080.97  3082.01  3082.03  3082.26  3084.40  3088.86
eigval :     3090.72  3092.27  3094.47  3094.59  3100.76  3101.95
eigval :     3104.24  3112.26  3183.12

   temp. (K)  partition function   enthalpy   heat capacity  entropy
                                   cal/mol     cal/K/mol   cal/K/mol   J/K/mol
 298.15  VIB  0.910E+19            24993.933    164.455    153.480
         ROT  0.145E+09              888.752      2.981     40.320
         INT  0.132E+28            25882.686    167.435    193.800
         TR   0.186E+29             1481.254      4.968     45.577
         TOT                       27363.9395   172.4035   239.3771  1001.5536

       T/K    H(0)-H(T)+PV         H(T)/Eh          T*S/Eh         G(T)/Eh
   ------------------------------------------------------------------------
    298.15    0.436072E-01    0.740334E+00    0.113736E+00    0.626598E+00
   ------------------------------------------------------------------------

         :::::::::::::::::::::::::::::::::::::::::::::::::::::
         ::                  THERMODYNAMIC                  ::
         :::::::::::::::::::::::::::::::::::::::::::::::::::::
         :: total free energy        -138.810829404638 Eh   ::
         ::.................................................::
         :: total energy             -139.437427637327 Eh   ::
         :: zero point energy           0.696726781271 Eh   ::
         :: G(RRHO) w/o ZPVE           -0.070128548582 Eh   ::
         :: G(RRHO) contrib.            0.626598232689 Eh   ::
         :::::::::::::::::::::::::::::::::::::::::::::::::::::

           -------------------------------------------------
          | TOTAL ENERGY             -139.437427637327 Eh   |
          | TOTAL ENTHALPY           -138.697093642755 Eh   |
          | TOTAL FREE ENERGY        -138.810829404638 Eh   |
          | GRADIENT NORM               0.000040125502 Eh/α |
          | HOMO-LUMO GAP               0.589748152010 eV   |
           -------------------------------------------------

 * finished run on 2025/09/14 at 07:19:34.605
