   * xtb version 6.7.1 (edcfbbe) compiled by 'albert@albert-system' on 2024-07-22

   ID    Z sym.   atoms
    1    6 C      1-57
    2    1 H      58-91

          program call               : xtb data2507/toluene/SBTF/SBTF_toluene_S0_crest.xyz --gfn 2 --gbsa toluene --ohess vtight --parallel 40 --molden --ceasefiles --namespace data2507/toluene/SBTF/SBTF_toluene_S0_finalOpt
      * Solvation model:               GBSA
        Solvent                        toluene
        Solvent mass                       9.2140E+01 g/mol
          :  Hamiltonian                  GFN2-xTB          :
 * total energy  :  -139.5116571 Eh     change       -0.3899288E-08 Eh
 * total energy  :  -139.5116827 Eh     change       -0.2554901E-04 Eh
 * total energy  :  -139.5116942 Eh     change       -0.1150049E-04 Eh
 * total energy  :  -139.5116997 Eh     change       -0.5570732E-05 Eh
 * total energy  :  -139.5117069 Eh     change       -0.7159363E-05 Eh
 * total energy  :  -139.5117109 Eh     change       -0.4044689E-05 Eh
 * total energy  :  -139.5117164 Eh     change       -0.5486360E-05 Eh
 * total energy  :  -139.5117200 Eh     change       -0.3566866E-05 Eh
 * total energy  :  -139.5117216 Eh     change       -0.1622587E-05 Eh
 * total energy  :  -139.5117231 Eh     change       -0.1519902E-05 Eh
 * total energy  :  -139.5117279 Eh     change       -0.6540544E-06 Eh
 * total energy  :  -139.5117284 Eh     change       -0.4570134E-06 Eh
 * total energy  :  -139.5117288 Eh     change       -0.4450540E-06 Eh
 * total energy  :  -139.5117293 Eh     change       -0.4578859E-06 Eh
 * total energy  :  -139.5117297 Eh     change       -0.3883508E-06 Eh
 * total energy  :  -139.5117300 Eh     change       -0.3391274E-06 Eh
 * total energy  :  -139.5117303 Eh     change       -0.3280851E-06 Eh
 * total energy  :  -139.5117307 Eh     change       -0.3674545E-06 Eh
 * total energy  :  -139.5117307 Eh     change       -0.4700212E-08 Eh
   *** GEOMETRY OPTIMIZATION CONVERGED AFTER 22 ITERATIONS ***

 final structure:
================
91
 xtb: 6.7.1 (edcfbbe)
C            1.14260394075681       -3.58413238759207        3.64027092017208
C            0.67321346551498       -2.29730365689003        3.85505264508959
C            0.40935577733987       -1.44806493402935        2.78746402479189
C            0.63587213131257       -1.90991245581118        1.51030808258005
C            1.11635503915984       -3.21062446021283        1.28679794602835
C            1.37067089272615       -4.05355165050022        2.35564426079105
C            1.30001620000760       -3.39705937538552       -0.14715166826842
C            1.78526482211591       -4.47146698785903       -0.87328868027230
C            1.89607956994842       -4.34532179729853       -2.24998205583822
C            1.53264693756995       -3.16995434688721       -2.88895868723457
C            1.03755006183003       -2.09061728051127       -2.16715356724298
C            0.92943793881747       -2.20973162338286       -0.80014345838411
C            0.36821376748986       -1.20674350281895        0.19038987308846
C            1.00803097783841        0.15682305676651        0.06759537702428
C            0.22691079284753        1.29685665165976       -0.04628063972693
C            0.84477370590902        2.53614093626134       -0.34333182609790
C            2.19236853833581        2.64785150720007       -0.47091399180223
C            3.02382508723258        1.52946477276229       -0.25648762694209
C            4.42192713229123        1.65527840843465       -0.33579286181840
C            5.25657784144998        0.58400937300401       -0.12543434258530
C            6.71630004128533        0.71738559584969       -0.22897404077108
C            7.46991390483232       -0.28865100609725       -0.87425093388655
C            8.82483887642379       -0.18059963509294       -0.99490615443315
C            9.51423611688051        0.93399044214246       -0.47081854547079
C           10.91320020482641        1.07467331571463       -0.57686135546314
C           11.54705065347507        2.16771643297195       -0.05428092107266
C           10.81008422631098        3.17012055075692        0.59718363468876
C            9.45249775351804        3.06343003951032        0.71460846044539
C            8.76764327305722        1.94815948723369        0.18532671123265
C            7.36964578796685        1.81173701918465        0.28733192680558
C            4.66982633290744       -0.65429369866725        0.20295607602675
C            3.31451972769919       -0.80224619744282        0.28242045707819
C            2.42874191916672        0.26996209459815        0.03006276933121
C           -1.22698414242037        1.24520247365628        0.09276142368499
C           -1.99373402085466        2.37914283556804        0.26920454282016
C           -3.38766352676710        2.31913567028437        0.29779199533099
C           -4.05227737620989        1.12964165305677        0.12900172900307
C           -5.52996740057239        1.11776642196104        0.09961085289358
C           -6.22564001559874        1.41463292639743        1.22752993895996
C           -7.64680822306669        1.41790499365837        1.25553460582890
C           -8.33284955626545        1.71919541339256        2.44400011560561
C           -9.70308662946512        1.71812680740678        2.48597515450137
C          -10.42684742038521        1.41109155174367        1.33267023801078
C           -9.77622516131611        1.11326888145640        0.16008526059976
C           -8.37396574273876        1.10916639351712        0.08195378384919
C           -7.64767659727115        0.81489621699767       -1.13095100963501
C           -8.29159328962850        0.52021636621662       -2.34446126985724
C           -7.58219568618018        0.26123371623905       -3.49106791443669
C           -6.18791711763662        0.29509402137684       -3.47693831144112
C           -5.52759219439553        0.57658685950483       -2.30871955233063
C           -6.23165327052975        0.82813135340598       -1.11876328668437
C           -3.30452115682715       -0.07343637408038        0.03082575269357
C           -3.94137130120435       -1.32742550664649       -0.04371153839312
C           -3.20151074594578       -2.47519908030353       -0.09575287077216
C           -1.80663360678644       -2.41792197321976       -0.04536418920804
C           -1.14457488875836       -1.21369327396410        0.02960577890668
C           -1.88386430333415       -0.01401649552797        0.04581812883028
H            1.33638165610361       -4.22859784633596        4.48564004427605
H            0.50779903671348       -1.95073948403051        4.86484432531952
H            0.03813308241483       -0.44739107023414        2.95589716342069
H            1.74060643446217       -5.05536505673635        2.19390284664525
H            2.07223935654669       -5.38851827661016       -0.37997582080933
H            2.27464365462267       -5.17287969921747       -2.83255186750275
H            1.63231577279537       -3.09266511200087       -3.96191789121445
H            0.74996699642917       -1.17668378012758       -2.66692196230682
H            0.22997121226387        3.40499943357057       -0.51371082010162
H            2.64516365137625        3.59485627937622       -0.72829471462847
H            4.83410759060640        2.62317344896276       -0.58498982525438
H            6.95257718104900       -1.13976628328395       -1.29335936040972
H            9.39213105187275       -0.95134267246192       -1.49821556079401
H           11.47633552208492        0.30020410889171       -1.07891819975340
H           12.61964192399440        2.26873744560563       -0.13859830068929
H           11.32718754170134        4.02708657925668        1.00470890989572
H            8.88126643791476        3.83343080783077        1.21441568504622
H            6.81130707720432        2.58146045730000        0.80179007888320
H            5.30967127635889       -1.49699643801878        0.42227924041642
H            2.92834029027150       -1.76109053768214        0.57307326250284
H           -1.53201163447455        3.34583655366659        0.39316145027503
H           -3.95335265905149        3.23224046826622        0.41978113961423
H           -5.69585174028588        1.63991555679794        2.14326006969720
H           -7.75715873719515        1.95244117473415        3.32890687728606
H          -10.22408028261570        1.95165063604331        3.40320172191390
H          -11.50697086141611        1.40804916611450        1.36403435317056
H          -10.36791484908642        0.88002103858559       -0.71099283254269
H           -9.36884351660792        0.49711249240447       -2.38926849915898
H           -8.10497911694092        0.03656309832992       -4.40969635601923
H           -5.63307251358811        0.10170476496131       -4.38348321724524
H           -4.44811052018942        0.60849338102906       -2.29308756012440
H           -5.02027470019248       -1.36818390146891       -0.04840688776320
H           -3.68847149430143       -3.43773355465733       -0.15495248564031
H           -1.25146736582720       -3.34377707142765       -0.05171573063045

          :  Hamiltonian                  GFN2-xTB          :
         :: gradient norm              0.000047856337 Eh/a0 ::
         :: HOMO-LUMO gap              2.289217727597 eV    ::
         :: SCC energy              -142.256846378365 Eh    ::
         :: -> dispersion             -0.141244193729 Eh    ::
         :: -> Gsolv                  -0.054439559888 Eh    ::
         :: repulsion energy           2.745115682996 Eh    ::

    * Orbital Energies and Occupations

         #    Occupation            Energy/Eh            Energy/eV
      -------------------------------------------------------------
         1        2.0000           -0.6627719             -18.0349
       ...           ...                  ...                  ...
       119        2.0000           -0.4057477             -11.0410
       120        2.0000           -0.4050169             -11.0211
       121        2.0000           -0.4029070             -10.9637
       122        2.0000           -0.4010379             -10.9128
       123        2.0000           -0.3994958             -10.8708
       124        2.0000           -0.3914411             -10.6517
       125        2.0000           -0.3905324             -10.6269
       126        2.0000           -0.3855256             -10.4907
       127        2.0000           -0.3836526             -10.4397
       128        2.0000           -0.3794061             -10.3242
       129        2.0000           -0.3757966             -10.2259
       130        2.0000           -0.3738467             -10.1729
       131        2.0000           -0.3587788              -9.7629 (HOMO)
       132                         -0.2746516              -7.4737 (LUMO)
       133                         -0.2610533              -7.1036
       134                         -0.2574463              -7.0055
       135                         -0.2538006              -6.9063
       136                         -0.2511914              -6.8353
       137                         -0.2485050              -6.7622
       138                         -0.2362561              -6.4289
       139                         -0.2287206              -6.2238
       140                         -0.2250648              -6.1243
       141                         -0.2238832              -6.0922
       142                         -0.2154059              -5.8615
       ...                                ...                  ...
       262                          0.7261745              19.7602
      -------------------------------------------------------------
                  HL-Gap            0.0841272 Eh            2.2892 eV

     #   Z          covCN         q      C6AA      α(0)
     1   6 C        2.921    -0.033    28.831     8.805
     2   6 C        2.923    -0.032    28.795     8.800
     3   6 C        2.913    -0.034    28.842     8.806
     4   6 C        3.060     0.006    27.819     8.649
     5   6 C        3.032     0.000    27.991     8.678
     6   6 C        2.914    -0.035    28.872     8.811
     7   6 C        3.032     0.001    27.980     8.676
     8   6 C        2.914    -0.035    28.878     8.812
     9   6 C        2.921    -0.033    28.830     8.805
    10   6 C        2.923    -0.032    28.795     8.800
    11   6 C        2.913    -0.033    28.819     8.803
    12   6 C        3.058     0.006    27.826     8.651
    13   6 C        3.946     0.014    20.279     6.399
    14   6 C        2.971     0.003    27.955     8.673
    15   6 C        2.975     0.002    27.988     8.678
    16   6 C        2.921    -0.039    28.980     8.828
    17   6 C        2.917    -0.040    28.997     8.830
    18   6 C        2.989     0.009    27.811     8.651
    19   6 C        2.928    -0.042    29.051     8.839
    20   6 C        2.973     0.008    27.830     8.653
    21   6 C        2.973     0.008    27.832     8.654
    22   6 C        2.920    -0.035    28.864     8.810
    23   6 C        2.916    -0.037    28.923     8.819
    24   6 C        2.987     0.010    27.791     8.648
    25   6 C        2.918    -0.036    28.899     8.815
    26   6 C        2.916    -0.032    28.792     8.799
    27   6 C        2.915    -0.031    28.783     8.798
    28   6 C        2.918    -0.036    28.908     8.817
    29   6 C        2.985     0.011    27.764     8.643
    30   6 C        2.924    -0.042    29.041     8.837
    31   6 C        2.921    -0.036    28.893     8.815
    32   6 C        2.917    -0.040    28.996     8.830
    33   6 C        2.981     0.004    27.936     8.670
    34   6 C        2.976     0.003    27.962     8.674
    35   6 C        2.920    -0.040    28.998     8.831
    36   6 C        2.920    -0.037    28.921     8.819
    37   6 C        2.978     0.003    27.943     8.671
    38   6 C        2.971     0.005    27.913     8.666
    39   6 C        2.923    -0.043    29.075     8.843
    40   6 C        2.985     0.010    27.791     8.648
    41   6 C        2.923    -0.037    28.912     8.818
    42   6 C        2.916    -0.032    28.790     8.799
    43   6 C        2.917    -0.033    28.819     8.803
    44   6 C        2.919    -0.036    28.890     8.814
    45   6 C        2.979     0.004    27.938     8.670
    46   6 C        2.978     0.005    27.912     8.666
    47   6 C        2.920    -0.036    28.894     8.815
    48   6 C        2.917    -0.032    28.793     8.799
    49   6 C        2.916    -0.032    28.790     8.799
    50   6 C        2.921    -0.033    28.833     8.806
    51   6 C        2.987     0.008    27.836     8.654
    52   6 C        2.989     0.007    27.854     8.657
    53   6 C        2.919    -0.038    28.937     8.821
    54   6 C        2.915    -0.032    28.807     8.801
    55   6 C        2.923    -0.040    28.996     8.831
    56   6 C        2.989     0.011    27.761     8.643
    57   6 C        2.994     0.001    27.993     8.679
    58   1 H        0.926     0.033     2.547     2.496
    59   1 H        0.926     0.032     2.554     2.499
    60   1 H        0.926     0.027     2.632     2.537
    61   1 H        0.926     0.034     2.535     2.490
    62   1 H        0.926     0.033     2.543     2.494
    63   1 H        0.926     0.032     2.551     2.498
    64   1 H        0.926     0.032     2.557     2.501
    65   1 H        0.926     0.026     2.645     2.543
    66   1 H        0.926     0.037     2.488     2.467
    67   1 H        0.926     0.033     2.548     2.496
    68   1 H        0.926     0.034     2.534     2.489
    69   1 H        0.926     0.033     2.549     2.497
    70   1 H        0.925     0.032     2.554     2.499
    71   1 H        0.926     0.031     2.566     2.505
    72   1 H        0.926     0.030     2.581     2.512
    73   1 H        0.926     0.030     2.580     2.512
    74   1 H        0.926     0.031     2.566     2.505
    75   1 H        0.926     0.033     2.545     2.494
    76   1 H        0.926     0.030     2.582     2.513
    77   1 H        0.926     0.038     2.479     2.462
    78   1 H        0.926     0.035     2.510     2.478
    79   1 H        0.926     0.029     2.595     2.519
    80   1 H        0.925     0.029     2.595     2.519
    81   1 H        0.926     0.031     2.568     2.506
    82   1 H        0.926     0.030     2.580     2.512
    83   1 H        0.926     0.030     2.581     2.512
    84   1 H        0.926     0.034     2.532     2.488
    85   1 H        0.926     0.035     2.517     2.481
    86   1 H        0.926     0.031     2.570     2.507
    87   1 H        0.926     0.030     2.588     2.516
    88   1 H        0.926     0.031     2.577     2.510
    89   1 H        0.926     0.031     2.575     2.509
    90   1 H        0.926     0.030     2.591     2.517
    91   1 H        0.926     0.028     2.615     2.529

molecular dipole:
                 x           y           z       tot (Debye)
 q only:        0.049      -0.040      -0.028
   full:        0.034      -0.056      -0.009       0.169

 projected vibrational frequencies (cm⁻¹)
eigval :       -0.00    -0.00    -0.00    -0.00    -0.00     0.00
eigval :        9.54    14.60    19.40    20.51    29.43    33.11
eigval :       35.50    46.91    56.99    57.73    70.55    74.66
eigval :       81.45    89.29   104.70   110.28   115.03   130.11
eigval :      137.94   144.36   157.87   164.24   172.10   182.16
eigval :      193.44   218.70   219.69   232.62   251.49   258.14
eigval :      265.53   274.37   286.34   299.24   302.66   315.01
eigval :      350.55   353.47   367.87   373.99   388.75   390.41
eigval :      396.40   403.43   411.13   412.82   417.32   432.61
eigval :      440.65   448.27   450.80   458.72   461.31   472.26
eigval :      480.15   490.04   496.66   500.40   504.02   507.36
eigval :      510.57   523.33   526.99   535.65   537.61   548.74
eigval :      557.10   564.57   577.19   586.24   587.14   590.69
eigval :      599.98   615.95   621.46   625.09   632.17   645.95
eigval :      656.39   666.15   671.48   683.21   687.72   709.44
eigval :      719.40   722.99   724.54   735.05   740.09   740.39
eigval :      750.32   752.45   755.98   761.01   767.83   781.51
eigval :      782.69   784.30   795.13   798.87   801.51   815.87
eigval :      822.50   826.82   832.01   836.65   854.63   864.24
eigval :      865.08   868.83   871.16   872.48   877.21   879.54
eigval :      879.84   885.42   887.76   889.16   894.33   899.07
eigval :      904.62   906.15   908.20   909.59   910.09   912.72
eigval :      915.51   916.76   923.84   923.91   924.02   926.43
eigval :      927.23   927.37   927.45   957.37   962.97   993.56
eigval :     1002.89  1020.21  1061.70  1072.29  1077.20  1077.26
eigval :     1087.40  1090.05  1103.13  1107.82  1119.12  1128.31
eigval :     1139.57  1142.86  1143.54  1162.15  1170.75  1172.11
eigval :     1173.68  1177.13  1177.94  1181.70  1182.81  1186.12
eigval :     1188.25  1193.78  1197.58  1201.42  1204.03  1208.87
eigval :     1214.43  1222.79  1226.05  1228.72  1236.83  1251.29
eigval :     1252.25  1257.11  1258.06  1261.07  1261.65  1274.01
eigval :     1274.64  1280.35  1283.34  1303.34  1318.06  1325.74
eigval :     1326.01  1329.51  1346.18  1354.65  1360.86  1363.08
eigval :     1364.01  1372.26  1376.08  1390.92  1396.73  1399.36
eigval :     1400.14  1408.38  1411.59  1425.63  1426.12  1427.13
eigval :     1429.05  1441.85  1447.44  1458.16  1460.81  1467.21
eigval :     1475.39  1480.86  1492.38  1503.29  1508.41  1527.66
eigval :     1545.85  1557.06  1559.17  1560.76  1577.59  1583.11
eigval :     1590.05  1594.40  1594.65  1597.91  1599.51  1602.31
eigval :     1603.03  1603.91  1605.30  1607.87  1611.21  3062.66
eigval :     3063.52  3063.80  3065.36  3066.20  3066.99  3069.06
eigval :     3069.52  3069.60  3069.69  3070.49  3071.29  3071.88
eigval :     3072.65  3073.03  3073.63  3073.72  3075.57  3077.73
eigval :     3079.64  3079.73  3080.60  3083.31  3085.14  3087.72
eigval :     3088.55  3089.69  3090.08  3094.94  3095.18  3096.47
eigval :     3104.35  3108.00  3175.57

   temp. (K)  partition function   enthalpy   heat capacity  entropy
                                   cal/mol     cal/K/mol   cal/K/mol   J/K/mol
 298.15  VIB  0.301E+19            24788.858    163.065    151.590
         ROT  0.139E+09              888.752      2.981     40.243
         INT  0.418E+27            25677.610    166.046    191.832
         TR   0.186E+29             1481.254      4.968     45.577
         TOT                       27158.8641   171.0142   237.4092   993.3200

       T/K    H(0)-H(T)+PV         H(T)/Eh          T*S/Eh         G(T)/Eh
   ------------------------------------------------------------------------
    298.15    0.432804E-01    0.743297E+00    0.112801E+00    0.630497E+00
   ------------------------------------------------------------------------

         :::::::::::::::::::::::::::::::::::::::::::::::::::::
         ::                  THERMODYNAMIC                  ::
         :::::::::::::::::::::::::::::::::::::::::::::::::::::
         :: total free energy        -138.881234184714 Eh   ::
         ::.................................................::
         :: total energy             -139.511730694170 Eh   ::
         :: zero point energy           0.700016862468 Eh   ::
         :: G(RRHO) w/o ZPVE           -0.069520353013 Eh   ::
         :: G(RRHO) contrib.            0.630496509455 Eh   ::
         :::::::::::::::::::::::::::::::::::::::::::::::::::::

           -------------------------------------------------
          | TOTAL ENERGY             -139.511730694170 Eh   |
          | TOTAL ENTHALPY           -138.768433426792 Eh   |
          | TOTAL FREE ENERGY        -138.881234184714 Eh   |
          | GRADIENT NORM               0.000047854089 Eh/α |
          | HOMO-LUMO GAP               2.289217762286 eV   |
           -------------------------------------------------

 * finished run on 2025/09/14 at 07:12:56.981
