   * xtb version 6.7.1 (edcfbbe) compiled by 'albert@albert-system' on 2024-07-22

   ID    Z sym.   atoms
    1    6 C      1-57
    2    1 H      58-91

          program call               : xtb data2507/toluene/SBTF/SBTF.xyz --gfn 2 --gbsa toluene --ohess vtight --parallel 40 --molden --ceasefiles --namespace data2507/toluene/SBTF/SBTF_toluene_S0_preOpt
      * Solvation model:               GBSA
        Solvent                        toluene
        Solvent mass                       9.2140E+01 g/mol
          :  Hamiltonian                  GFN2-xTB          :
 * total energy  :  -139.4809779 Eh     change       -0.2604679E-08 Eh
 * total energy  :  -139.5002918 Eh     change       -0.1931384E-01 Eh
 * total energy  :  -139.5061363 Eh     change       -0.5844509E-02 Eh
 * total energy  :  -139.5078993 Eh     change       -0.1763010E-02 Eh
 * total energy  :  -139.5093290 Eh     change       -0.1429724E-02 Eh
 * total energy  :  -139.5099277 Eh     change       -0.5986373E-03 Eh
 * total energy  :  -139.5101803 Eh     change       -0.2526598E-03 Eh
 * total energy  :  -139.5103147 Eh     change       -0.1344004E-03 Eh
 * total energy  :  -139.5104205 Eh     change       -0.1058268E-03 Eh
 * total energy  :  -139.5105261 Eh     change       -0.1055950E-03 Eh
 * total energy  :  -139.5116235 Eh     change       -0.2754030E-05 Eh
 * total energy  :  -139.5116254 Eh     change       -0.1841249E-05 Eh
 * total energy  :  -139.5116266 Eh     change       -0.1197911E-05 Eh
 * total energy  :  -139.5116275 Eh     change       -0.9210799E-06 Eh
 * total energy  :  -139.5116286 Eh     change       -0.1108584E-05 Eh
 * total energy  :  -139.5116297 Eh     change       -0.1058363E-05 Eh
 * total energy  :  -139.5116304 Eh     change       -0.7798101E-06 Eh
 * total energy  :  -139.5116309 Eh     change       -0.4948134E-06 Eh
 * total energy  :  -139.5116310 Eh     change       -0.7526242E-07 Eh
   *** GEOMETRY OPTIMIZATION CONVERGED AFTER 64 ITERATIONS ***

 final structure:
================
91
 xtb: 6.7.1 (edcfbbe)
C            1.04516791952515       -3.98202244283916        3.13785968250325
C            0.57424191713044       -2.73019889059108        3.50340357276193
C            0.32521120907381       -1.75550268118117        2.54511268335674
C            0.56806146424829       -2.05720780116983        1.22384353729310
C            1.04986966373441       -3.32159682627160        0.84811129803017
C            1.28978462693888       -4.29018587023089        1.80831853388911
C            1.24703186146715       -3.33228976211516       -0.59587659584713
C            1.73691657402726       -4.31241862782107       -1.44221711222366
C            1.85609668510493       -4.02282472594799       -2.79323926960294
C            1.49575136423543       -2.77941334548207       -3.28913499781890
C            0.99705391311838       -1.79348526720015       -2.44624146672174
C            0.88210668374934       -2.07416811366241       -1.10348549785925
C            0.31542012971725       -1.19695689926891       -0.00300605700170
C            0.95961489419744        0.16914679183556        0.05075965466749
C            0.18165987765311        1.31620898633738        0.09167947215209
C            0.80133724003696        2.58202586607703       -0.04748986289535
C            2.14840128935560        2.70554615673359       -0.17164013064199
C            2.97795666278912        1.56724731845259       -0.10367551356440
C            4.37621092828282        1.69839893507662       -0.17074274914475
C            5.20973649274314        0.60849819615870       -0.08791885653033
C            6.67009244429434        0.74922786186355       -0.16817167793175
C            7.43075173957443       -0.19849300025741       -0.88963403423052
C            8.78747430762571       -0.08561894518381       -0.98217386794109
C            9.47271100248596        0.97746235838358       -0.35574543819973
C           10.87327443785451        1.12182931823259       -0.43056747933510
C           11.50193715216535        2.16595570034083        0.18932968091939
C           10.75792848003682        3.11323618061994        0.91157650116323
C            9.39878131794418        3.00076477285421        1.00230324766865
C            8.71916617897313        1.93513047734749        0.37329801784461
C            7.32003813764804        1.79342480213334        0.44759618124634
C            4.61963098070789       -0.65866310476802        0.09236485079517
C            3.26406790608902       -0.81299533062111        0.14932925892643
C            2.38040051186652        0.28330110356419        0.02619587648401
C           -1.27103185016926        1.24932222069317        0.23782593038801
C           -2.03198711028820        2.34881702442773        0.57955941238652
C           -3.42584720705641        2.28542714829360        0.62304652428214
C           -4.09491227385322        1.13126053223863        0.29952716974614
C           -5.57359911860118        1.11203148069821        0.30265512184797
C           -6.24392915568435        1.17383084994081        1.48177358786119
C           -7.66413347603980        1.14617925296978        1.54099463298877
C           -8.32424116601460        1.19207936455004        2.78036475528158
C           -9.69273607796492        1.15277521183594        2.85159077296427
C          -10.44100592684548        1.06551199464458        1.67651076064808
C           -9.81604105007122        1.02086581080292        0.45409895249696
C           -8.41636853077463        1.06143392369360        0.34582363004303
C           -7.71710398977063        1.02535451976096       -0.91707785840230
C           -8.38665781842774        0.97012744721602       -2.15100754787490
C           -7.70164952261905        0.94934620202988       -3.34073831635884
C           -6.30740093536582        0.98879025530768       -3.34975554562986
C           -5.62241278868399        1.04121586539676       -2.16314600294245
C           -6.30137617317473        1.05312623607931       -0.93284387589820
C           -3.35231345685089       -0.04412210004797        0.01249220270141
C           -3.99382689088815       -1.27125589151507       -0.24506185795767
C           -3.25775723109159       -2.39983871098840       -0.47296765967620
C           -1.86239714471672       -2.35497972562820       -0.41812730516988
C           -1.19633708100427       -1.17653616501598       -0.17047509159488
C           -1.93184593858740        0.01022400048896        0.02126432206646
H            1.22661529327269       -4.72621029126806        3.89994548121557
H            0.39546903197246       -2.51025887809467        4.54589027380504
H           -0.04711849327381       -0.78229551891688        2.83078165768068
H            1.66031149558789       -5.26553783622991        1.52908885536328
H            2.02058876386473       -5.28204924185251       -1.06009051516624
H            2.23800613099294       -4.77558772709870       -3.46789796016332
H            1.60036625383134       -2.57477041851223       -4.34475433801586
H            0.71144434086595       -0.82670943826412       -2.83550417086351
H            0.18755923679635        3.46674360566185       -0.09934761988716
H            2.60250222498906        3.67626335020815       -0.31133209680297
H            4.78905783287558        2.68855592360920       -0.30418454673742
H            6.91826179688046       -1.00784966519909       -1.38950028881483
H            9.35947552567171       -0.81184943827406       -1.54309263732719
H           11.44172652144141        0.39003229770071       -0.98758698413575
H           12.57580592889624        2.27009241819746        0.12873787733137
H           11.27118152182196        3.93191402862421        1.39555049409736
H            8.82227628725426        3.72769749184117        1.55741963183045
H            6.75852659903709        2.51696412257152        1.02194057861595
H            5.25670607438993       -1.52266375051506        0.21547088388028
H            2.87543453842418       -1.79868853534498        0.32433693631370
H           -1.56501157163558        3.28824240044475        0.83002009820168
H           -3.98767882588860        3.17111341122411        0.88502021612306
H           -5.69430863854613        1.22548986026624        2.41196638426676
H           -7.72984069059247        1.25649138476750        3.68115791866956
H          -10.19356764355109        1.18788527196572        3.80829870541801
H          -11.51974344702757        1.03245967885775        1.73023197941905
H          -10.42592149185716        0.95210162022024       -0.43285987782342
H           -9.46455397097260        0.94653850863077       -2.17710974350019
H           -8.24396412957703        0.90726684720442       -4.27443496430145
H           -5.77238665822098        0.98002044315009       -4.28824712236169
H           -4.54276886656385        1.07550559095506       -2.16248685476104
H           -5.07298182095260       -1.30784060207656       -0.24997420526528
H           -3.74785579596914       -3.34140168258204       -0.67389154607863
H           -1.31058643408588       -3.27201217121128       -0.56001065662647

          :  Hamiltonian                  GFN2-xTB          :
         :: gradient norm              0.000169773819 Eh/a0 ::
         :: HOMO-LUMO gap              2.296373639747 eV    ::
         :: SCC energy              -142.256608618726 Eh    ::
         :: -> dispersion             -0.141189802568 Eh    ::
         :: -> Gsolv                  -0.054383058497 Eh    ::
         :: repulsion energy           2.744977607426 Eh    ::

    * Orbital Energies and Occupations

         #    Occupation            Energy/Eh            Energy/eV
      -------------------------------------------------------------
         1        2.0000           -0.6627497             -18.0343
       ...           ...                  ...                  ...
       119        2.0000           -0.4058779             -11.0445
       120        2.0000           -0.4050973             -11.0233
       121        2.0000           -0.4029016             -10.9635
       122        2.0000           -0.4010492             -10.9131
       123        2.0000           -0.3995410             -10.8721
       124        2.0000           -0.3913916             -10.6503
       125        2.0000           -0.3904638             -10.6251
       126        2.0000           -0.3855580             -10.4916
       127        2.0000           -0.3835753             -10.4376
       128        2.0000           -0.3794129             -10.3243
       129        2.0000           -0.3756400             -10.2217
       130        2.0000           -0.3739035             -10.1744
       131        2.0000           -0.3588721              -9.7654 (HOMO)
       132                         -0.2744819              -7.4690 (LUMO)
       133                         -0.2609596              -7.1011
       134                         -0.2577079              -7.0126
       135                         -0.2538909              -6.9087
       136                         -0.2511484              -6.8341
       137                         -0.2485580              -6.7636
       138                         -0.2365127              -6.4358
       139                         -0.2287879              -6.2256
       140                         -0.2250662              -6.1244
       141                         -0.2238630              -6.0916
       142                         -0.2152573              -5.8575
       ...                                ...                  ...
       262                          0.7262788              19.7631
      -------------------------------------------------------------
                  HL-Gap            0.0843902 Eh            2.2964 eV

     #   Z          covCN         q      C6AA      α(0)
     1   6 C        2.921    -0.033    28.831     8.805
     2   6 C        2.923    -0.032    28.795     8.800
     3   6 C        2.913    -0.034    28.842     8.807
     4   6 C        3.061     0.006    27.817     8.649
     5   6 C        3.032     0.000    27.992     8.678
     6   6 C        2.914    -0.035    28.871     8.811
     7   6 C        3.032     0.001    27.979     8.676
     8   6 C        2.914    -0.035    28.879     8.812
     9   6 C        2.921    -0.033    28.829     8.805
    10   6 C        2.923    -0.032    28.795     8.800
    11   6 C        2.913    -0.033    28.818     8.803
    12   6 C        3.057     0.006    27.829     8.651
    13   6 C        3.946     0.014    20.279     6.399
    14   6 C        2.971     0.003    27.955     8.673
    15   6 C        2.975     0.002    27.988     8.678
    16   6 C        2.920    -0.039    28.979     8.828
    17   6 C        2.917    -0.040    28.997     8.830
    18   6 C        2.989     0.009    27.811     8.651
    19   6 C        2.928    -0.042    29.051     8.839
    20   6 C        2.972     0.008    27.832     8.654
    21   6 C        2.972     0.008    27.833     8.654
    22   6 C        2.920    -0.035    28.866     8.811
    23   6 C        2.916    -0.037    28.924     8.819
    24   6 C        2.987     0.010    27.791     8.648
    25   6 C        2.917    -0.036    28.899     8.815
    26   6 C        2.916    -0.032    28.792     8.799
    27   6 C        2.915    -0.031    28.783     8.798
    28   6 C        2.918    -0.036    28.907     8.817
    29   6 C        2.985     0.011    27.765     8.643
    30   6 C        2.924    -0.042    29.041     8.837
    31   6 C        2.921    -0.036    28.895     8.815
    32   6 C        2.917    -0.040    28.995     8.830
    33   6 C        2.981     0.004    27.936     8.670
    34   6 C        2.976     0.003    27.963     8.674
    35   6 C        2.920    -0.040    28.997     8.831
    36   6 C        2.920    -0.037    28.919     8.819
    37   6 C        2.978     0.004    27.940     8.670
    38   6 C        2.971     0.005    27.909     8.666
    39   6 C        2.923    -0.043    29.072     8.842
    40   6 C        2.985     0.010    27.791     8.647
    41   6 C        2.923    -0.037    28.912     8.818
    42   6 C        2.916    -0.032    28.790     8.799
    43   6 C        2.917    -0.033    28.819     8.803
    44   6 C        2.919    -0.036    28.890     8.814
    45   6 C        2.979     0.004    27.939     8.670
    46   6 C        2.978     0.005    27.912     8.666
    47   6 C        2.920    -0.036    28.893     8.815
    48   6 C        2.917    -0.032    28.793     8.799
    49   6 C        2.916    -0.032    28.789     8.798
    50   6 C        2.921    -0.033    28.832     8.805
    51   6 C        2.988     0.008    27.837     8.655
    52   6 C        2.989     0.007    27.856     8.658
    53   6 C        2.919    -0.038    28.939     8.822
    54   6 C        2.915    -0.032    28.806     8.801
    55   6 C        2.923    -0.040    28.996     8.831
    56   6 C        2.989     0.011    27.761     8.643
    57   6 C        2.994     0.001    27.992     8.679
    58   1 H        0.926     0.033     2.547     2.495
    59   1 H        0.926     0.032     2.553     2.499
    60   1 H        0.926     0.027     2.632     2.537
    61   1 H        0.926     0.034     2.534     2.489
    62   1 H        0.926     0.033     2.543     2.494
    63   1 H        0.926     0.032     2.552     2.498
    64   1 H        0.926     0.032     2.557     2.501
    65   1 H        0.926     0.026     2.644     2.543
    66   1 H        0.926     0.037     2.489     2.467
    67   1 H        0.926     0.033     2.548     2.496
    68   1 H        0.926     0.034     2.532     2.488
    69   1 H        0.926     0.033     2.547     2.495
    70   1 H        0.925     0.032     2.556     2.500
    71   1 H        0.926     0.031     2.566     2.505
    72   1 H        0.926     0.030     2.581     2.512
    73   1 H        0.926     0.030     2.580     2.512
    74   1 H        0.926     0.031     2.566     2.505
    75   1 H        0.926     0.033     2.542     2.493
    76   1 H        0.926     0.031     2.579     2.511
    77   1 H        0.926     0.038     2.482     2.464
    78   1 H        0.926     0.035     2.511     2.478
    79   1 H        0.926     0.029     2.598     2.520
    80   1 H        0.925     0.029     2.599     2.521
    81   1 H        0.926     0.031     2.569     2.506
    82   1 H        0.926     0.030     2.580     2.512
    83   1 H        0.926     0.030     2.580     2.512
    84   1 H        0.926     0.034     2.531     2.488
    85   1 H        0.926     0.035     2.517     2.481
    86   1 H        0.926     0.031     2.569     2.506
    87   1 H        0.926     0.030     2.586     2.515
    88   1 H        0.926     0.030     2.579     2.512
    89   1 H        0.926     0.031     2.578     2.511
    90   1 H        0.926     0.030     2.591     2.517
    91   1 H        0.926     0.028     2.616     2.529

molecular dipole:
                 x           y           z       tot (Debye)
 q only:        0.046      -0.035      -0.032
   full:        0.029      -0.057      -0.011       0.164

 projected vibrational frequencies (cm⁻¹)
eigval :       -0.00     0.00     0.00     0.00     0.00     0.00
eigval :        9.25    12.52    16.73    19.19    27.88    32.21
eigval :       35.85    46.64    56.81    58.22    70.86    73.23
eigval :       77.77    87.13   103.99   110.77   115.23   129.43
eigval :      137.42   144.51   157.58   164.55   172.83   179.67
eigval :      194.52   217.01   220.04   231.42   251.01   257.82
eigval :      265.09   274.20   286.87   297.83   301.76   315.32
eigval :      351.05   354.47   368.33   374.07   388.49   389.86
eigval :      397.41   402.74   410.69   412.60   417.78   432.99
eigval :      440.80   447.87   450.08   458.96   461.11   471.63
eigval :      479.28   489.77   496.77   500.42   503.34   506.76
eigval :      510.67   523.46   526.90   535.00   536.93   548.28
eigval :      556.55   564.77   577.47   586.42   587.39   590.76
eigval :      599.48   616.04   621.41   625.23   633.18   645.79
eigval :      656.32   666.12   671.15   682.96   687.34   709.46
eigval :      719.41   723.18   725.56   734.95   738.74   740.29
eigval :      750.35   752.39   755.52   759.90   767.81   782.00
eigval :      782.36   783.60   795.05   798.57   800.77   816.31
eigval :      822.62   827.32   833.21   837.14   854.70   863.46
eigval :      864.62   867.25   868.05   872.48   874.53   877.85
eigval :      877.95   883.80   886.62   888.86   893.91   898.22
eigval :      905.17   905.31   907.75   908.90   911.11   912.98
eigval :      914.83   915.62   924.52   925.11   925.91   925.98
eigval :      926.03   928.10   929.76   957.40   962.91   993.65
eigval :     1002.77  1020.32  1061.61  1072.70  1076.82  1077.75
eigval :     1086.71  1089.51  1103.19  1107.52  1119.06  1128.68
eigval :     1139.63  1142.73  1143.68  1162.26  1171.46  1172.90
eigval :     1174.42  1176.18  1178.03  1182.16  1184.17  1188.24
eigval :     1188.74  1194.36  1198.22  1201.86  1204.63  1209.38
eigval :     1214.30  1222.86  1226.10  1229.15  1237.03  1251.22
eigval :     1252.00  1256.96  1258.20  1260.51  1261.09  1273.66
eigval :     1274.16  1280.11  1283.74  1303.17  1318.69  1325.86
eigval :     1326.31  1329.71  1346.02  1354.67  1360.85  1363.10
eigval :     1364.08  1372.56  1375.94  1390.89  1396.52  1399.58
eigval :     1400.26  1407.99  1411.74  1425.34  1426.25  1427.17
eigval :     1429.21  1441.94  1447.65  1458.21  1460.78  1467.24
eigval :     1475.05  1480.81  1492.25  1503.24  1508.19  1527.75
eigval :     1545.87  1557.41  1559.23  1560.57  1578.07  1583.12
eigval :     1590.26  1594.06  1594.49  1597.55  1599.53  1602.13
eigval :     1602.75  1604.12  1605.78  1608.09  1611.39  3061.78
eigval :     3061.88  3063.16  3064.85  3066.17  3067.81  3069.14
eigval :     3069.68  3069.92  3070.24  3070.50  3071.27  3072.47
eigval :     3072.80  3073.42  3074.32  3074.59  3076.33  3077.55
eigval :     3079.59  3080.64  3081.22  3083.09  3085.13  3087.39
eigval :     3088.05  3089.27  3090.21  3094.44  3094.71  3095.85
eigval :     3104.12  3107.11  3174.04

   temp. (K)  partition function   enthalpy   heat capacity  entropy
                                   cal/mol     cal/K/mol   cal/K/mol   J/K/mol
 298.15  VIB  0.517E+19            24819.013    163.020    152.175
         ROT  0.139E+09              888.752      2.981     40.241
         INT  0.719E+27            25707.766    166.001    192.416
         TR   0.186E+29             1481.254      4.968     45.577
         TOT                       27189.0195   170.9688   237.9931   995.7631

       T/K    H(0)-H(T)+PV         H(T)/Eh          T*S/Eh         G(T)/Eh
   ------------------------------------------------------------------------
    298.15    0.433285E-01    0.743265E+00    0.113078E+00    0.630187E+00
   ------------------------------------------------------------------------

         :::::::::::::::::::::::::::::::::::::::::::::::::::::
         ::                  THERMODYNAMIC                  ::
         :::::::::::::::::::::::::::::::::::::::::::::::::::::
         :: total free energy        -138.881443801326 Eh   ::
         ::.................................................::
         :: total energy             -139.511631006174 Eh   ::
         :: zero point energy           0.699936941425 Eh   ::
         :: G(RRHO) w/o ZPVE           -0.069749736577 Eh   ::
         :: G(RRHO) contrib.            0.630187204849 Eh   ::
         :::::::::::::::::::::::::::::::::::::::::::::::::::::

           -------------------------------------------------
          | TOTAL ENERGY             -139.511631006174 Eh   |
          | TOTAL ENTHALPY           -138.768365604265 Eh   |
          | TOTAL FREE ENERGY        -138.881443801326 Eh   |
          | GRADIENT NORM               0.000169751820 Eh/α |
          | HOMO-LUMO GAP               2.296373460128 eV   |
           -------------------------------------------------

 * finished run on 2025/09/14 at 07:06:18.856
