   * xtb version 6.7.1 (edcfbbe) compiled by 'albert@albert-system' on 2024-07-22

   ID    Z sym.   atoms
    1    6 C      1-57
    2    1 H      58-91

          program call               : xtb data2507/toluene/SBTF/SBTF_toluene_S0_finalOpt.xtbopt.xyz --gfn 2 --uhf 2 --gbsa toluene --ohess vtight --parallel 40 --molden --ceasefiles --namespace data2507/toluene/SBTF/SBTF_toluene_T1_preOpt
      * Solvation model:               GBSA
        Solvent                        toluene
        Solvent mass                       9.2140E+01 g/mol
          :  Hamiltonian                  GFN2-xTB          :
 * total energy  :  -139.4272948 Eh     change       -0.8972791E-08 Eh
 * total energy  :  -139.4332023 Eh     change       -0.5907474E-02 Eh
 * total energy  :  -139.4350174 Eh     change       -0.1815180E-02 Eh
 * total energy  :  -139.4351523 Eh     change       -0.1348927E-03 Eh
 * total energy  :  -139.4353049 Eh     change       -0.1525548E-03 Eh
 * total energy  :  -139.4354275 Eh     change       -0.1226330E-03 Eh
 * total energy  :  -139.4356192 Eh     change       -0.1917156E-03 Eh
 * total energy  :  -139.4358179 Eh     change       -0.1986409E-03 Eh
 * total energy  :  -139.4359632 Eh     change       -0.1453583E-03 Eh
 * total energy  :  -139.4360785 Eh     change       -0.1152916E-03 Eh
 * total energy  :  -139.4369673 Eh     change       -0.1157340E-05 Eh
 * total energy  :  -139.4369683 Eh     change       -0.1043843E-05 Eh
 * total energy  :  -139.4369694 Eh     change       -0.1126848E-05 Eh
 * total energy  :  -139.4369706 Eh     change       -0.1184488E-05 Eh
 * total energy  :  -139.4369716 Eh     change       -0.1030558E-05 Eh
 * total energy  :  -139.4369724 Eh     change       -0.7668407E-06 Eh
 * total energy  :  -139.4369730 Eh     change       -0.6301807E-06 Eh
 * total energy  :  -139.4369737 Eh     change       -0.6497044E-06 Eh
 * total energy  :  -139.4369737 Eh     change       -0.4504159E-08 Eh
   *** GEOMETRY OPTIMIZATION CONVERGED AFTER 68 ITERATIONS ***

 final structure:
================
91
 xtb: 6.7.1 (edcfbbe)
C            1.27278689244998       -3.82841136044350        3.41773564941014
C            0.82541480060045       -2.55560527574613        3.73773663822694
C            0.51725110035990       -1.63759835283320        2.74127989011779
C            0.68137387212778       -2.01720390550949        1.42838036262125
C            1.13767580526744       -3.30271583946248        1.09720436753816
C            1.43443102001958       -4.21502268179074        2.09618340783275
C            1.25082357080972       -3.39599312491730       -0.35268337315339
C            1.69105124089240       -4.42408083790736       -1.16909858249670
C            1.74187193932109       -4.20863510197481       -2.53810156721269
C            1.36290444154564       -2.99089219220780       -3.08156327675748
C            0.91070893239763       -1.95778128929226       -2.26919826888458
C            0.86293164029037       -2.16594736786136       -0.90964709829421
C            0.36151541171443       -1.21868134443200        0.16954900199205
C            1.01223732179503        0.13875969590843        0.12892195052076
C            0.20220948290384        1.31281831806103        0.15497007451652
C            0.84460806110904        2.57740860867698        0.00994974143473
C            2.18523391337009        2.69088020431428       -0.11195817193031
C            3.02323491100804        1.54225291228963       -0.05364153693312
C            4.40402768918439        1.67511963237332       -0.14101263470764
C            5.25775119130951        0.57548633101300       -0.09416561713921
C            6.70436521196716        0.72820189227156       -0.20665773551749
C            7.47544335459191       -0.25832777790504       -0.86798648955915
C            8.82647089992015       -0.12980803945359       -0.99442594629025
C            9.50637788382772        0.98792549675036       -0.46012308463886
C           10.90064011755918        1.14808333423708       -0.57113178995912
C           11.52365836503592        2.24457308139238       -0.03805243376163
C           10.77659477010272        3.22843150427598        0.62835861255261
C            9.42073434469313        3.10236740165290        0.75087436106822
C            8.74727061152315        1.98388775756596        0.21115335097702
C            7.35416135116577        1.82852636640686        0.31840516564804
C            4.66609206182495       -0.68875104686933        0.07650975879892
C            3.31117199361486       -0.84385243467593        0.16997008510288
C            2.41499993217559        0.25525341450784        0.08194073966417
C           -1.20226158804311        1.24267738267213        0.29085169531790
C           -2.00414673076705        2.38907843835676        0.57597009288397
C           -3.36350470609393        2.33163859766446        0.57681009407633
C           -4.05911600399026        1.14611720326527        0.24217934739408
C           -5.49943309688652        1.19516536921698        0.10229397938418
C           -6.24708588992390        1.82262474429833        1.07495253579672
C           -7.65711206567902        1.80472120392307        1.07299135333529
C           -8.37898296134738        2.39226824902032        2.13210641023207
C           -9.74686639098695        2.33355241003478        2.17016137157954
C          -10.43842860454183        1.67723780628657        1.14995483135172
C           -9.75527454549920        1.10243295973626        0.10203934855922
C           -8.35792036089398        1.15484679968426        0.02432683841869
C           -7.59755361184383        0.60417746764007       -1.07567572918796
C           -8.21763557562875        0.06717493945546       -2.21481344069316
C           -7.48830596884653       -0.38834356329619       -3.28714894069111
C           -6.09858792442938       -0.30002884850269       -3.27137984538012
C           -5.46214690028285        0.20939310557628       -2.16686771087351
C           -6.18236246018186        0.63640368656685       -1.03939844234757
C           -3.30427209567440       -0.06173814893919        0.12339507105613
C           -3.93890616514602       -1.30907881962982        0.05932018910656
C           -3.20166448211597       -2.47570847925359       -0.02268269365743
C           -1.82255498069388       -2.42556261731271       -0.02038303054694
C           -1.15225574766963       -1.20372718152209        0.08278426897587
C           -1.88111424203722       -0.01591930054474        0.16588354956183
H            1.50078573006099       -4.52707874322047        4.20973380883510
H            0.71209195749555       -2.27398406863390        4.77445248435033
H            0.16260737651577       -0.64813889046153        2.99123441910207
H            1.78542199337985       -5.20684945902384        1.85205157562355
H            1.99046996710337       -5.37331776290191       -0.74975707527831
H            2.08442003869123       -4.99967678711605       -3.18961921949776
H            1.41694207463063       -2.84276402192156       -4.15030848521531
H            0.61171743674745       -1.01069486053094       -2.69472693348084
H            0.23826150246744        3.46681310560666       -0.04838554649107
H            2.64713915005812        3.65833200240679       -0.24969734253805
H            4.81487413064307        2.66543247727765       -0.27817468400721
H            6.97205962034669       -1.10948768895849       -1.30299603992544
H            9.40092343826741       -0.88493937959600       -1.51323862797045
H           11.47227810978999        0.38741269141005       -1.08468595824424
H           12.59441968714830        2.36017299398623       -0.12633849389243
H           11.28380397740637        4.08744417479918        1.04414471211750
H            8.84218923086592        3.85887939229664        1.26271970546094
H            6.79389332795708        2.58336347070576        0.85180565489602
H            5.29922334366231       -1.55911192018985        0.17245584499411
H            2.93032405548092       -1.83254778798205        0.34125888267407
H           -1.52635510424955        3.32504950377890        0.81608537031771
H           -3.93685386046270        3.22693171133062        0.76981340470028
H           -5.74848710318187        2.27078365559606        1.92304702815305
H           -7.82822218061304        2.88665794786689        2.92013719581423
H          -10.29255689683877        2.78508990878569        2.98609101888271
H          -11.51672069405999        1.61965449704823        1.18476601048170
H          -10.32296398550334        0.59970504387016       -0.66516733530870
H           -9.29374829492364        0.02141567375062       -2.26799626875100
H           -7.99420375237674       -0.79590185394379       -4.15052557031885
H           -5.52440527791482       -0.62349214408489       -4.12733980085039
H           -4.38584232012336        0.29315289673134       -2.16261767581987
H           -5.01659842105968       -1.35672328290218        0.08035493784577
H           -3.70630354003464       -3.42887285640853       -0.07971810236103
H           -1.26085924173799       -3.34449418131943       -0.08133891490661

          :  Hamiltonian                  GFN2-xTB          :
         :: gradient norm              0.000053247886 Eh/a0 ::
         :: HOMO-LUMO gap              0.595403227619 eV    ::
         :: SCC energy              -142.163681087505 Eh    ::
         :: -> dispersion             -0.141487056873 Eh    ::
         :: -> Gsolv                  -0.054187006149 Eh    ::
         :: repulsion energy           2.726707386679 Eh    ::

    * Orbital Energies and Occupations

         #    Occupation            Energy/Eh            Energy/eV
      -------------------------------------------------------------
         1        2.0000           -0.6639901             -18.0681
       ...           ...                  ...                  ...
       120        2.0000           -0.4054015             -11.0315
       121        2.0000           -0.4041472             -10.9974
       122        2.0000           -0.4011773             -10.9166
       123        2.0000           -0.4002080             -10.8902
       124        2.0000           -0.3924694             -10.6796
       125        2.0000           -0.3897853             -10.6066
       126        2.0000           -0.3854673             -10.4891
       127        2.0000           -0.3840844             -10.4515
       128        2.0000           -0.3799837             -10.3399
       129        2.0000           -0.3755317             -10.2187
       130        2.0000           -0.3712969             -10.1035
       131        1.0000           -0.3505847              -9.5399
       132        1.0000           -0.2851773              -7.7601 (HOMO)
       133        0.0000           -0.2632967              -7.1647 (LUMO)
       134                         -0.2566711              -6.9844
       135                         -0.2547546              -6.9322
       136                         -0.2507053              -6.8220
       137                         -0.2474810              -6.7343
       138                         -0.2357417              -6.4149
       139                         -0.2273862              -6.1875
       140                         -0.2260780              -6.1519
       141                         -0.2237260              -6.0879
       142                         -0.2155274              -5.8648
       143                         -0.2111488              -5.7457
       ...                                ...                  ...
       262                          0.7265387              19.7701
      -------------------------------------------------------------
                  HL-Gap            0.0218806 Eh            0.5954 eV

     #   Z          covCN         q      C6AA      α(0)
     1   6 C        2.921    -0.033    28.818     8.803
     2   6 C        2.923    -0.031    28.779     8.797
     3   6 C        2.913    -0.033    28.824     8.804
     4   6 C        3.061     0.008    27.782     8.644
     5   6 C        3.031     0.001    27.967     8.674
     6   6 C        2.914    -0.035    28.860     8.809
     7   6 C        3.031     0.002    27.960     8.673
     8   6 C        2.914    -0.035    28.869     8.811
     9   6 C        2.921    -0.033    28.816     8.803
    10   6 C        2.923    -0.031    28.780     8.798
    11   6 C        2.913    -0.032    28.805     8.801
    12   6 C        3.057     0.007    27.800     8.647
    13   6 C        3.944     0.016    20.244     6.394
    14   6 C        2.968    -0.002    28.074     8.691
    15   6 C        2.971     0.003    27.949     8.672
    16   6 C        2.916    -0.039    28.979     8.828
    17   6 C        2.914    -0.039    28.964     8.825
    18   6 C        2.985     0.008    27.839     8.655
    19   6 C        2.928    -0.043    29.057     8.840
    20   6 C        2.972     0.005    27.897     8.664
    21   6 C        2.971     0.008    27.847     8.656
    22   6 C        2.919    -0.035    28.880     8.813
    23   6 C        2.915    -0.038    28.940     8.822
    24   6 C        2.987     0.009    27.803     8.649
    25   6 C        2.917    -0.037    28.911     8.817
    26   6 C        2.916    -0.033    28.811     8.802
    27   6 C        2.915    -0.032    28.791     8.799
    28   6 C        2.918    -0.037    28.928     8.820
    29   6 C        2.984     0.011    27.775     8.645
    30   6 C        2.924    -0.043    29.073     8.842
    31   6 C        2.919    -0.036    28.893     8.815
    32   6 C        2.916    -0.043    29.072     8.842
    33   6 C        2.975     0.004    27.939     8.670
    34   6 C        2.975    -0.001    28.043     8.686
    35   6 C        2.912    -0.039    28.966     8.825
    36   6 C        2.913    -0.036    28.902     8.816
    37   6 C        2.976     0.001    28.004     8.680
    38   6 C        2.969     0.004    27.925     8.668
    39   6 C        2.925    -0.045    29.112     8.848
    40   6 C        2.982     0.010    27.790     8.647
    41   6 C        2.922    -0.038    28.939     8.822
    42   6 C        2.914    -0.032    28.787     8.798
    43   6 C        2.917    -0.034    28.836     8.806
    44   6 C        2.918    -0.036    28.894     8.815
    45   6 C        2.979     0.003    27.943     8.671
    46   6 C        2.978     0.004    27.919     8.667
    47   6 C        2.921    -0.037    28.912     8.818
    48   6 C        2.917    -0.032    28.807     8.801
    49   6 C        2.916    -0.032    28.801     8.800
    50   6 C        2.922    -0.034    28.850     8.808
    51   6 C        2.985     0.008    27.835     8.654
    52   6 C        2.980     0.009    27.805     8.650
    53   6 C        2.922    -0.036    28.887     8.814
    54   6 C        2.913    -0.032    28.810     8.802
    55   6 C        2.921    -0.038    28.933     8.821
    56   6 C        2.992     0.011    27.767     8.644
    57   6 C        2.987     0.000    28.010     8.682
    58   1 H        0.926     0.034     2.528     2.486
    59   1 H        0.926     0.034     2.534     2.489
    60   1 H        0.926     0.028     2.612     2.527
    61   1 H        0.926     0.035     2.513     2.479
    62   1 H        0.926     0.034     2.525     2.485
    63   1 H        0.926     0.034     2.535     2.490
    64   1 H        0.926     0.033     2.540     2.492
    65   1 H        0.926     0.027     2.624     2.533
    66   1 H        0.926     0.037     2.494     2.470
    67   1 H        0.926     0.032     2.565     2.504
    68   1 H        0.926     0.033     2.549     2.497
    69   1 H        0.926     0.032     2.555     2.499
    70   1 H        0.925     0.031     2.574     2.509
    71   1 H        0.925     0.030     2.581     2.512
    72   1 H        0.926     0.029     2.595     2.519
    73   1 H        0.926     0.030     2.593     2.518
    74   1 H        0.926     0.030     2.581     2.513
    75   1 H        0.926     0.032     2.554     2.499
    76   1 H        0.926     0.029     2.598     2.521
    77   1 H        0.926     0.036     2.506     2.476
    78   1 H        0.926     0.036     2.507     2.476
    79   1 H        0.926     0.033     2.545     2.495
    80   1 H        0.926     0.032     2.556     2.500
    81   1 H        0.926     0.031     2.577     2.510
    82   1 H        0.926     0.030     2.589     2.516
    83   1 H        0.926     0.030     2.592     2.518
    84   1 H        0.926     0.033     2.546     2.495
    85   1 H        0.926     0.034     2.527     2.486
    86   1 H        0.926     0.030     2.580     2.512
    87   1 H        0.926     0.030     2.593     2.518
    88   1 H        0.926     0.031     2.572     2.508
    89   1 H        0.926     0.034     2.529     2.487
    90   1 H        0.926     0.032     2.559     2.501
    91   1 H        0.926     0.031     2.565     2.505

molecular dipole:
                 x           y           z       tot (Debye)
 q only:       -0.191      -0.265       0.019
   full:       -0.202      -0.272       0.032       0.865

 projected vibrational frequencies (cm⁻¹)
eigval :       -0.00    -0.00    -0.00    -0.00     0.00     0.00
eigval :        9.45    12.54    19.66    21.90    32.71    33.91
eigval :       36.78    50.17    55.94    57.94    69.22    76.53
eigval :       82.91    97.07   104.59   108.77   117.10   133.27
eigval :      138.96   145.27   161.06   165.45   174.50   187.60
eigval :      192.88   214.37   218.63   228.52   249.74   255.79
eigval :      265.11   268.32   278.64   288.13   296.94   311.62
eigval :      318.98   352.81   363.48   372.91   379.78   387.35
eigval :      391.14   402.73   409.46   410.10   412.53   424.79
eigval :      440.39   445.46   448.71   454.46   457.98   463.62
eigval :      471.64   482.13   491.42   498.03   498.60   500.94
eigval :      506.95   517.42   522.64   527.25   534.77   543.35
eigval :      550.20   560.03   574.13   577.97   583.84   587.27
eigval :      591.25   596.60   609.16   619.40   622.54   639.05
eigval :      646.48   652.17   665.21   680.58   681.75   703.33
eigval :      711.93   717.22   722.45   723.23   727.76   733.93
eigval :      746.11   750.85   752.60   756.66   764.55   777.40
eigval :      777.86   780.62   782.67   788.63   790.15   795.97
eigval :      810.59   816.11   816.96   830.91   845.34   853.03
eigval :      855.08   859.16   862.87   867.52   870.67   872.06
eigval :      874.98   876.65   878.90   885.75   886.12   891.93
eigval :      901.37   902.63   904.29   906.66   908.45   909.06
eigval :      910.97   911.91   913.17   921.19   922.78   923.94
eigval :      925.27   925.74   929.61   952.29   958.20   990.61
eigval :      997.60  1012.04  1055.29  1071.95  1076.89  1077.29
eigval :     1085.14  1085.46  1102.62  1105.39  1107.84  1129.40
eigval :     1137.65  1140.60  1142.71  1159.70  1162.99  1168.00
eigval :     1169.79  1172.21  1174.81  1178.79  1178.98  1181.02
eigval :     1186.07  1189.75  1195.08  1196.52  1201.85  1206.84
eigval :     1207.13  1213.58  1222.93  1230.94  1231.39  1245.40
eigval :     1247.78  1253.09  1254.86  1261.37  1262.52  1269.75
eigval :     1279.64  1283.75  1287.19  1295.75  1316.89  1324.40
eigval :     1326.16  1331.96  1337.86  1339.66  1346.56  1357.34
eigval :     1358.00  1361.05  1363.61  1369.97  1374.23  1383.40
eigval :     1394.25  1404.13  1411.59  1416.32  1420.13  1422.95
eigval :     1424.84  1426.53  1428.60  1432.79  1441.86  1455.00
eigval :     1455.98  1465.47  1466.35  1467.84  1485.77  1496.32
eigval :     1498.93  1516.94  1528.55  1532.90  1535.71  1548.03
eigval :     1552.77  1565.92  1581.95  1585.89  1588.13  1593.89
eigval :     1593.97  1596.51  1596.90  1599.29  1602.29  3062.28
eigval :     3062.97  3064.10  3064.54  3066.45  3068.90  3069.23
eigval :     3069.92  3070.15  3070.67  3071.94  3072.96  3073.78
eigval :     3073.83  3074.13  3074.37  3075.17  3078.36  3078.84
eigval :     3080.52  3081.40  3081.63  3082.25  3084.26  3088.59
eigval :     3090.46  3092.75  3094.73  3097.88  3097.95  3102.71
eigval :     3103.97  3108.52  3181.49

   temp. (K)  partition function   enthalpy   heat capacity  entropy
                                   cal/mol     cal/K/mol   cal/K/mol   J/K/mol
 298.15  VIB  0.300E+19            24996.264    164.774    152.624
         ROT  0.139E+09              888.752      2.981     40.246
         INT  0.418E+27            25885.016    167.755    192.870
         TR   0.186E+29             1481.254      4.968     45.577
         TOT                       27366.2700   172.7232   238.4465   997.6602

       T/K    H(0)-H(T)+PV         H(T)/Eh          T*S/Eh         G(T)/Eh
   ------------------------------------------------------------------------
    298.15    0.436109E-01    0.740146E+00    0.113294E+00    0.626852E+00
   ------------------------------------------------------------------------

         :::::::::::::::::::::::::::::::::::::::::::::::::::::
         ::                  THERMODYNAMIC                  ::
         :::::::::::::::::::::::::::::::::::::::::::::::::::::
         :: total free energy        -138.810121462229 Eh   ::
         ::.................................................::
         :: total energy             -139.436973701101 Eh   ::
         :: zero point energy           0.696534946110 Eh   ::
         :: G(RRHO) w/o ZPVE           -0.069682707238 Eh   ::
         :: G(RRHO) contrib.            0.626852238872 Eh   ::
         :::::::::::::::::::::::::::::::::::::::::::::::::::::

           -------------------------------------------------
          | TOTAL ENERGY             -139.436973701101 Eh   |
          | TOTAL ENTHALPY           -138.696827827840 Eh   |
          | TOTAL FREE ENERGY        -138.810121462229 Eh   |
          | GRADIENT NORM               0.000053246418 Eh/α |
          | HOMO-LUMO GAP               0.595402567163 eV   |
           -------------------------------------------------

 * finished run on 2025/09/14 at 07:13:09.304
