   * xtb version 6.7.1 (edcfbbe) compiled by 'albert@albert-system' on 2024-07-22

   ID    Z sym.   atoms
    1    6 C      1-4, 6-20, 22-45, 47-49
    2    7 N      5, 21, 46
    3    1 H      50-80

          program call               : xtb data2507/toluene/NIDPA-2/NIDPA-2_toluene_T1_crest.xyz --gfn 2 --uhf 2 --gbsa toluene --ohess vtight --parallel 40 --molden --ceasefiles --namespace data2507/toluene/NIDPA-2/NIDPA-2_toluene_T1_finalOpt
      * Solvation model:               GBSA
        Solvent                        toluene
        Solvent mass                       9.2140E+01 g/mol
          :  Hamiltonian                  GFN2-xTB          :
 * total energy  :  -123.1083286 Eh     change       -0.1830639E-07 Eh
 * total energy  :  -123.1083710 Eh     change       -0.4242087E-04 Eh
 * total energy  :  -123.1083901 Eh     change       -0.1909262E-04 Eh
 * total energy  :  -123.1083960 Eh     change       -0.5906697E-05 Eh
 * total energy  :  -123.1084012 Eh     change       -0.5107791E-05 Eh
 * total energy  :  -123.1084058 Eh     change       -0.4659758E-05 Eh
 * total energy  :  -123.1084103 Eh     change       -0.4436554E-05 Eh
 * total energy  :  -123.1084132 Eh     change       -0.2937092E-05 Eh
 * total energy  :  -123.1084143 Eh     change       -0.1134296E-05 Eh
 * total energy  :  -123.1084149 Eh     change       -0.5602828E-06 Eh
 * total energy  :  -123.1084176 Eh     change       -0.6543282E-06 Eh
 * total energy  :  -123.1084184 Eh     change       -0.7972996E-06 Eh
 * total energy  :  -123.1084192 Eh     change       -0.7820334E-06 Eh
 * total energy  :  -123.1084199 Eh     change       -0.7137406E-06 Eh
 * total energy  :  -123.1084207 Eh     change       -0.8134254E-06 Eh
 * total energy  :  -123.1084216 Eh     change       -0.8969974E-06 Eh
 * total energy  :  -123.1084223 Eh     change       -0.6932591E-06 Eh
 * total energy  :  -123.1084226 Eh     change       -0.3198691E-06 Eh
 * total energy  :  -123.1084226 Eh     change       -0.1796650E-08 Eh
   *** GEOMETRY OPTIMIZATION CONVERGED AFTER 22 ITERATIONS ***

 final structure:
================
80
 xtb: 6.7.1 (edcfbbe)
C            7.93539456106881        2.21295866422452       -1.95419153602976
C            8.19906710694493        1.43421495929006       -0.83777706494776
C            7.18057598762821        0.74391908460083       -0.21013056048864
C            5.87530989223791        0.82104133474514       -0.69932498524784
N            4.83985224632409        0.12230164293625       -0.07007173215061
C            5.07795745165208       -1.15656482364790        0.44333994795855
C            5.92377205862310       -2.04167357813767       -0.22833655041912
C            6.15814682547381       -3.30267449442610        0.28441415851813
C            5.55229569363881       -3.70422676453768        1.46480611371372
C            4.71009613403698       -2.82991006814003        2.13462046279953
C            4.47352180342184       -1.56462370056546        1.63410629019107
C            3.57258555626620        0.69469401529671        0.03605550867792
C            3.45201201495950        2.08492826921500        0.24943921290499
C            2.21382604526992        2.68459524254339        0.36168197837802
C            1.07840765282739        1.89967905589118        0.25988783318752
C            1.18235891946855        0.46806859248833        0.03941725232160
C            2.43653839498546       -0.10851641572483       -0.06801163378656
C           -0.15391538615044       -0.06113357820967       -0.01090239398898
C           -0.87544189040651       -1.25594932014365       -0.17330072848521
C           -2.27962332572134       -1.18207244125924       -0.11692535238347
N           -2.99891670303329       -2.37628002703557       -0.27160193090904
C           -2.52208121008271       -3.55802105721775        0.29795410749862
C           -1.87878954773401       -3.53408188172332        1.53781982346831
C           -1.40221812807352       -4.70384704973545        2.09582008628624
C           -1.56058616773428       -5.91283677251792        1.43566559517751
C           -2.20057300509822       -5.94320683282312        0.20629287237420
C           -2.67693039377056       -4.77860116664260       -0.36345590891304
C           -4.18980092710197       -2.38268857232274       -0.99930597553667
C           -5.25894037334612       -3.19119904870449       -0.60645667096654
C           -6.43506487743483       -3.18806124653124       -1.33063747392600
C           -6.56870596010166       -2.38050524760266       -2.44963185708288
C           -5.51186626138344       -1.57359808936145       -2.84260719926993
C           -4.32941843656315       -1.57309756169842       -2.12942639017806
C           -3.02672496060614        0.00059833841222        0.08428034770003
C           -2.33424042210275        1.21462775789451        0.23270255608376
C           -2.50617088703525        2.62406395554116        0.44157114367754
C           -3.64760881658367        3.45211750552564        0.56624917106987
C           -4.96056954915701        2.96163259658368        0.49957110366871
C           -6.04469389955415        3.80595393104051        0.63138511517214
C           -5.84684722258988        5.16814395145991        0.83361418819373
C           -4.56732141890816        5.68074545512787        0.89855086996181
C           -3.44096308016454        4.85140780459664        0.76766329221059
C           -2.12947463168600        5.38315535772040        0.82961019254478
C           -1.01290801884503        4.58239196793409        0.69443442335901
C           -1.19244478479532        3.22512475362519        0.50083975842512
N           -0.25593402072479        2.21826709950059        0.33363965575750
C           -0.95148335910762        1.05836141233800        0.17586014288099
C            5.61530456072010        1.60436410353609       -1.82565654097986
C            6.64052483652438        2.29432964066802       -2.44260635493099
H            8.73390004292033        2.75260821402597       -2.44046728852981
H            9.20412876505439        1.37053657429053       -0.44766006034247
H            7.38472330717880        0.14884300826648        0.66784016145149
H            6.38484418660336       -1.73532181612374       -1.15577953741811
H            6.81113054099068       -3.97965551750879       -0.24645218122610
H            5.73561314883305       -4.69158125967577        1.86064235443706
H            4.23978927795662       -3.13268099315927        3.05851396645980
H            3.82826599678447       -0.87888557101190        2.16324715785484
H            4.34748775155126        2.67865644721996        0.34680997319463
H            2.13885736700044        3.74611376870585        0.54203228688590
H            2.53541824712643       -1.16826241436728       -0.25006404337996
H           -0.39335707171584       -2.20212565506119       -0.35931748194155
H           -1.76683788823393       -2.59373407086771        2.05678060358963
H           -0.91120552468227       -4.67242803875858        3.05729853222333
H           -1.18766867750039       -6.82502055046609        1.87617283731531
H           -2.32144349080143       -6.87971435508858       -0.31791758479842
H           -3.15998879763598       -4.80167053976768       -1.32929298928888
H           -5.16341130153188       -3.80639697457249        0.27625682170215
H           -7.25678172506073       -3.81297053171977       -1.01308576340812
H           -7.49081699179341       -2.37861381508379       -3.01087827216342
H           -5.60611150757487       -0.94503633511360       -3.71586221769661
H           -3.50183142032365       -0.95320118090459       -2.44109297817986
H           -4.10052854375689       -0.06984305414813        0.14704561401829
H           -5.11705330270456        1.90647453328907        0.33824934352641
H           -7.04857389813191        3.40861431772442        0.57707372710105
H           -6.69792352038503        5.82703864748652        0.93732230701078
H           -4.41621600311652        6.74069265916568        1.05325566143107
H           -2.01329579119227        6.44626671354641        0.98289308739849
H           -0.02162958208133        5.00915713845737        0.73673492203605
H            4.60864746301057        1.65709736876066       -2.21336343192250
H            6.42812252173532        2.89316046623231       -3.31604549678201

          :  Hamiltonian                  GFN2-xTB          :
         :: gradient norm              0.000054777516 Eh/a0 ::
         :: HOMO-LUMO gap              0.708021688773 eV    ::
         :: SCC energy              -125.418542119655 Eh    ::
         :: -> dispersion             -0.114027942413 Eh    ::
         :: -> Gsolv                  -0.051778938257 Eh    ::
         :: repulsion energy           2.310119491037 Eh    ::

    * Orbital Energies and Occupations

         #    Occupation            Energy/Eh            Energy/eV
      -------------------------------------------------------------
         1        2.0000           -0.6769778             -18.4215
       ...           ...                  ...                  ...
       104        2.0000           -0.4114608             -11.1964
       105        2.0000           -0.4111613             -11.1883
       106        2.0000           -0.4100763             -11.1587
       107        2.0000           -0.4030135             -10.9666
       108        2.0000           -0.4015315             -10.9262
       109        2.0000           -0.4005392             -10.8992
       110        2.0000           -0.3940719             -10.7232
       111        2.0000           -0.3798625             -10.3366
       112        2.0000           -0.3765067             -10.2453
       113        1.9998           -0.3558021              -9.6819
       114        1.8799           -0.3496405              -9.5142
       115        1.1203           -0.3458582              -9.4113
       116        1.0000           -0.2638667              -7.1802 (HOMO)
       117        0.0000           -0.2378481              -6.4722 (LUMO)
       118        0.0000           -0.2369734              -6.4484
       119        0.0000           -0.2368792              -6.4458
       120                         -0.2314402              -6.2978
       121                         -0.2310593              -6.2874
       122                         -0.2302764              -6.2661
       123                         -0.2280227              -6.2048
       124                         -0.2272068              -6.1826
       125                         -0.2229766              -6.0675
       126                         -0.2102108              -5.7201
       127                         -0.2047771              -5.5723
       ...                                ...                  ...
       227                          0.7775210              21.1574
      -------------------------------------------------------------
                  HL-Gap            0.0260186 Eh            0.7080 eV

     #   Z          covCN         q      C6AA      α(0)
     1   6 C        2.919    -0.034    28.841     8.807
     2   6 C        2.919    -0.028    28.697     8.785
     3   6 C        2.921    -0.044    29.084     8.844
     4   6 C        2.925     0.065    26.553     8.450
     5   7 N        2.753    -0.046    22.127     6.986
     6   6 C        2.925     0.065    26.552     8.450
     7   6 C        2.921    -0.044    29.090     8.845
     8   6 C        2.919    -0.028    28.690     8.784
     9   6 C        2.919    -0.034    28.837     8.806
    10   6 C        2.919    -0.027    28.688     8.783
    11   6 C        2.921    -0.042    29.051     8.839
    12   6 C        2.922     0.056    26.750     8.482
    13   6 C        2.921    -0.063    29.571     8.918
    14   6 C        2.905    -0.042    29.032     8.835
    15   6 C        3.081     0.034    27.163     8.544
    16   6 C        3.113    -0.020    28.357     8.723
    17   6 C        2.911    -0.050    29.244     8.867
    18   6 C        3.019    -0.028    28.680     8.785
    19   6 C        2.930    -0.074    29.851     8.960
    20   6 C        2.922     0.055    26.757     8.483
    21   7 N        2.756    -0.045    22.116     6.985
    22   6 C        2.925     0.067    26.501     8.442
    23   6 C        2.922    -0.041    29.025     8.835
    24   6 C        2.919    -0.028    28.692     8.784
    25   6 C        2.919    -0.033    28.834     8.806
    26   6 C        2.919    -0.028    28.699     8.785
    27   6 C        2.921    -0.044    29.093     8.845
    28   6 C        2.925     0.067    26.495     8.441
    29   6 C        2.921    -0.044    29.096     8.846
    30   6 C        2.919    -0.028    28.701     8.785
    31   6 C        2.919    -0.033    28.830     8.805
    32   6 C        2.918    -0.027    28.688     8.783
    33   6 C        2.922    -0.041    29.019     8.834
    34   6 C        2.934    -0.073    29.808     8.954
    35   6 C        3.017    -0.023    28.550     8.765
    36   6 C        3.105    -0.035    28.720     8.781
    37   6 C        2.976     0.004    27.926     8.668
    38   6 C        2.918    -0.047    29.161     8.855
    39   6 C        2.914    -0.042    29.053     8.839
    40   6 C        2.914    -0.037    28.931     8.820
    41   6 C        2.920    -0.050    29.231     8.866
    42   6 C        2.980     0.003    27.945     8.671
    43   6 C        2.922    -0.065    29.611     8.924
    44   6 C        2.902    -0.050    29.249     8.868
    45   6 C        3.076     0.028    27.290     8.565
    46   7 N        2.833    -0.015    21.542     6.893
    47   6 C        3.462     0.033    22.213     7.095
    48   6 C        2.921    -0.043    29.059     8.840
    49   6 C        2.919    -0.028    28.689     8.783
    50   1 H        0.926     0.039     2.465     2.455
    51   1 H        0.926     0.040     2.444     2.445
    52   1 H        0.926     0.039     2.463     2.454
    53   1 H        0.926     0.039     2.467     2.456
    54   1 H        0.926     0.040     2.442     2.444
    55   1 H        0.926     0.039     2.459     2.452
    56   1 H        0.926     0.040     2.447     2.446
    57   1 H        0.926     0.039     2.466     2.456
    58   1 H        0.926     0.032     2.556     2.500
    59   1 H        0.926     0.032     2.551     2.498
    60   1 H        0.926     0.036     2.501     2.473
    61   1 H        0.926     0.021     2.716     2.577
    62   1 H        0.926     0.039     2.458     2.452
    63   1 H        0.926     0.040     2.444     2.445
    64   1 H        0.926     0.040     2.452     2.449
    65   1 H        0.926     0.041     2.439     2.442
    66   1 H        0.926     0.038     2.470     2.458
    67   1 H        0.926     0.039     2.466     2.456
    68   1 H        0.926     0.041     2.441     2.443
    69   1 H        0.926     0.039     2.462     2.454
    70   1 H        0.926     0.039     2.458     2.452
    71   1 H        0.926     0.039     2.461     2.453
    72   1 H        0.926     0.017     2.784     2.609
    73   1 H        0.926     0.022     2.707     2.573
    74   1 H        0.926     0.016     2.800     2.617
    75   1 H        0.925     0.016     2.793     2.613
    76   1 H        0.925     0.014     2.819     2.625
    77   1 H        0.926     0.013     2.837     2.634
    78   1 H        0.926     0.018     2.771     2.603
    79   1 H        0.926     0.039     2.466     2.456
    80   1 H        0.926     0.039     2.456     2.451

molecular dipole:
                 x           y           z       tot (Debye)
 q only:        2.294      -2.812      -0.425
   full:        2.300      -2.629      -0.410       8.941

 projected vibrational frequencies (cm⁻¹)
eigval :       -0.00    -0.00    -0.00    -0.00    -0.00     0.00
eigval :       12.76    13.12    19.77    24.11    32.89    38.07
eigval :       49.49    52.42    55.07    60.24    61.53    70.87
eigval :       81.76    82.91    93.62   108.83   112.62   128.68
eigval :      155.22   176.14   194.99   204.84   208.93   223.87
eigval :      231.74   233.86   240.09   250.11   283.22   297.41
eigval :      305.39   314.72   316.04   328.94   355.92   363.71
eigval :      370.89   375.46   377.43   381.68   382.40   391.71
eigval :      402.64   410.39   436.45   451.69   461.77   468.30
eigval :      483.92   488.53   494.40   500.20   506.13   525.97
eigval :      540.18   554.05   561.95   569.08   584.27   586.01
eigval :      586.93   588.45   589.63   608.23   614.85   617.29
eigval :      628.96   635.41   644.31   658.34   659.35   662.86
eigval :      666.03   668.36   671.65   678.82   702.77   705.09
eigval :      732.12   741.64   754.65   756.82   757.24   758.47
eigval :      762.03   768.16   782.13   794.19   798.34   804.77
eigval :      839.36   852.48   855.91   863.78   868.50   871.15
eigval :      871.52   872.48   876.93   880.86   882.97   891.23
eigval :      894.93   895.14   896.70   905.63   908.16   909.05
eigval :      924.33   925.17   926.58   928.34   929.93   930.04
eigval :      930.11   930.87   939.46   967.69   980.47   989.70
eigval :      998.61  1001.51  1006.41  1022.14  1068.17  1078.60
eigval :     1079.73  1081.09  1081.16  1085.15  1098.33  1118.20
eigval :     1120.19  1121.53  1122.52  1137.90  1139.88  1151.49
eigval :     1169.32  1175.22  1176.36  1178.70  1178.87  1179.97
eigval :     1188.27  1189.53  1190.83  1194.57  1202.14  1211.65
eigval :     1217.55  1231.56  1237.80  1250.68  1264.73  1265.78
eigval :     1272.02  1274.52  1276.19  1284.98  1291.61  1294.91
eigval :     1300.31  1306.22  1317.34  1320.00  1324.20  1324.51
eigval :     1330.89  1336.31  1338.96  1372.30  1373.99  1397.27
eigval :     1410.49  1411.70  1422.44  1430.48  1432.21  1438.04
eigval :     1438.38  1446.47  1452.39  1457.83  1459.51  1460.09
eigval :     1460.99  1475.82  1496.34  1509.34  1522.67  1535.64
eigval :     1545.12  1560.00  1566.56  1567.99  1570.17  1571.76
eigval :     1580.06  1580.89  1587.62  1587.78  1605.45  3052.31
eigval :     3059.79  3067.18  3071.09  3076.59  3076.74  3077.32
eigval :     3077.59  3078.09  3078.18  3078.63  3079.00  3079.16
eigval :     3085.48  3085.98  3086.28  3086.64  3087.08  3087.59
eigval :     3089.62  3089.69  3090.70  3090.78  3096.52  3097.02
eigval :     3097.33  3097.71  3098.20  3098.91  3099.72  3101.93

   temp. (K)  partition function   enthalpy   heat capacity  entropy
                                   cal/mol     cal/K/mol   cal/K/mol   J/K/mol
 298.15  VIB  0.104E+18            22328.755    144.179    138.117
         ROT  0.940E+08              888.752      2.981     39.464
         INT  0.977E+25            23217.507    147.160    177.581
         TR   0.151E+29             1481.254      4.968     45.164
         TOT                       24698.7614   152.1285   222.7445   931.9629

       T/K    H(0)-H(T)+PV         H(T)/Eh          T*S/Eh         G(T)/Eh
   ------------------------------------------------------------------------
    298.15    0.393600E-01    0.652603E+00    0.105833E+00    0.546770E+00
   ------------------------------------------------------------------------

         :::::::::::::::::::::::::::::::::::::::::::::::::::::
         ::                  THERMODYNAMIC                  ::
         :::::::::::::::::::::::::::::::::::::::::::::::::::::
         :: total free energy        -122.561653050952 Eh   ::
         ::.................................................::
         :: total energy             -123.108422629109 Eh   ::
         :: zero point energy           0.613242682678 Eh   ::
         :: G(RRHO) w/o ZPVE           -0.066473104521 Eh   ::
         :: G(RRHO) contrib.            0.546769578156 Eh   ::
         :::::::::::::::::::::::::::::::::::::::::::::::::::::

           -------------------------------------------------
          | TOTAL ENERGY             -123.108422629109 Eh   |
          | TOTAL ENTHALPY           -122.455819964743 Eh   |
          | TOTAL FREE ENERGY        -122.561653050952 Eh   |
          | GRADIENT NORM               0.000053870339 Eh/α |
          | HOMO-LUMO GAP               0.708002475832 eV   |
           -------------------------------------------------

 * finished run on 2025/09/04 at 12:26:50.427
