   * xtb version 6.7.1 (edcfbbe) compiled by 'albert@albert-system' on 2024-07-22

   ID    Z sym.   atoms
    1    6 C      1-4, 6-20, 22-45, 47-49
    2    7 N      5, 21, 46
    3    1 H      50-80

          program call               : xtb data2507/toluene/NIDPA-2/NIDPA-2_toluene_S0_crest.xyz --gfn 2 --gbsa toluene --ohess vtight --parallel 40 --molden --ceasefiles --namespace data2507/toluene/NIDPA-2/NIDPA-2_toluene_S0_finalOpt
      * Solvation model:               GBSA
        Solvent                        toluene
        Solvent mass                       9.2140E+01 g/mol
          :  Hamiltonian                  GFN2-xTB          :
 * total energy  :  -123.1859985 Eh     change       -0.9013519E-09 Eh
 * total energy  :  -123.1860286 Eh     change       -0.3001153E-04 Eh
 * total energy  :  -123.1860408 Eh     change       -0.1222101E-04 Eh
 * total energy  :  -123.1860448 Eh     change       -0.4032080E-05 Eh
 * total energy  :  -123.1860475 Eh     change       -0.2658223E-05 Eh
 * total energy  :  -123.1860488 Eh     change       -0.1383046E-05 Eh
 * total energy  :  -123.1860499 Eh     change       -0.1079679E-05 Eh
 * total energy  :  -123.1860507 Eh     change       -0.7291757E-06 Eh
 * total energy  :  -123.1860512 Eh     change       -0.5326770E-06 Eh
 * total energy  :  -123.1860517 Eh     change       -0.5366766E-06 Eh
 * total energy  :  -123.1860545 Eh     change       -0.5157037E-06 Eh
 * total energy  :  -123.1860550 Eh     change       -0.4766498E-06 Eh
 * total energy  :  -123.1860554 Eh     change       -0.4564371E-06 Eh
 * total energy  :  -123.1860559 Eh     change       -0.4513546E-06 Eh
 * total energy  :  -123.1860564 Eh     change       -0.4863145E-06 Eh
 * total energy  :  -123.1860569 Eh     change       -0.5111414E-06 Eh
 * total energy  :  -123.1860570 Eh     change       -0.1271018E-06 Eh
 * total energy  :  -123.1860573 Eh     change       -0.2570928E-06 Eh
 * total energy  :  -123.1860573 Eh     change       -0.8601694E-07 Eh
   *** GEOMETRY OPTIMIZATION CONVERGED AFTER 24 ITERATIONS ***

 final structure:
================
80
 xtb: 6.7.1 (edcfbbe)
C            7.88721346765973        2.24236792087839       -2.06345193939868
C            8.17655078202391        1.48806483414437       -0.93756067662535
C            7.17554714989673        0.80049363402502       -0.27868904325211
C            5.86207648921881        0.85063486045391       -0.74632599663027
N            4.84451459830120        0.15290867669061       -0.08432957154125
C            5.09816712076847       -1.11361093621218        0.45489697051906
C            5.94881981029106       -2.00452094614021       -0.20054542294426
C            6.20162505992510       -3.25161982095461        0.33761021077822
C            5.60526774190596       -3.63736510317546        1.52741703926167
C            4.75461177963878       -2.75929250787149        2.17962897737425
C            4.50383770165629       -1.50614901522010        1.65473462238750
C            3.56800429569884        0.71989014831961        0.02694494828700
C            3.43369042392114        2.09422470093671        0.25471204237484
C            2.19248801266686        2.69464585409672        0.36294485990118
C            1.06520267307070        1.90159708036915        0.25877987073534
C            1.18354993273663        0.49286907492282        0.03546540190603
C            2.43312868163919       -0.08364785357949       -0.08667722913744
C           -0.16183568630327       -0.05805768412046       -0.02190198458877
C           -0.86474019137638       -1.24070122524161       -0.19701379512002
C           -2.27168261182674       -1.19360279723715       -0.13716051257078
N           -2.97688824189852       -2.40308418047879       -0.29737018031934
C           -2.51683342279318       -3.56109686069911        0.33653086488381
C           -1.92132741315218       -3.48885639799028        1.59677770709787
C           -1.45590244644486       -4.63286843815082        2.21550344618554
C           -1.58165879024338       -5.86699254120526        1.59812020588770
C           -2.17491849081323       -5.94590290678673        0.34827061316318
C           -2.63471167505590       -4.80629057469692       -0.28280950738657
C           -4.13599718157845       -2.43234089310314       -1.07842174538788
C           -5.21730200674731       -3.23775561717466       -0.71793693575526
C           -6.36004904942286       -3.26026483032468       -1.49393913403333
C           -6.45264087047294       -2.47547913129791       -2.63221295131557
C           -5.38553647325628       -1.66761893042514       -2.99125726854745
C           -4.23466389284493       -1.64621338893787       -2.22759736806601
C           -3.01902613684477       -0.02169472406861        0.07385382427121
C           -2.34615579640754        1.18884373905665        0.22364203428857
C           -2.52780214754036        2.61195291444425        0.44688129767653
C           -3.67801602701937        3.42078750162879        0.58852083967877
C           -4.99081935710665        2.91465060395880        0.52132742045500
C           -6.07035341681539        3.74302887399496        0.66610022798294
C           -5.88747032120936        5.11567520448445        0.88550652332674
C           -4.62464831358429        5.63760929460554        0.95154287737457
C           -3.48920924062705        4.81489221136496        0.80561003711539
C           -2.18314084624148        5.35635408237525        0.86867066303939
C           -1.06950207539403        4.57645486407164        0.72352554864192
C           -1.24090900741350        3.20511693249379        0.51185019354776
N           -0.28438042298078        2.22109047075054        0.33593634629469
C           -0.96387854888167        1.05760006260634        0.16919619512457
C            5.57725817182841        1.60889791010434       -1.88232552766134
C            6.58349655334830        2.29995524564091       -2.52941545081378
H            8.67175005210521        2.78081961015894       -2.57372254450316
H            9.18897634697283        1.44118996437804       -0.56318917718786
H            7.40296588904779        0.22086120625746        0.60424182765769
H            6.40725374315851       -1.71161240805523       -1.13399078586360
H            6.86219953948976       -3.93072519741502       -0.18190542671254
H            5.80164405890743       -4.61441134837218        1.94277812232302
H            4.28811261568258       -3.04891553858588        3.11017798756458
H            3.84764126791253       -0.82140641217449        2.17211904173480
H            4.32509095733445        2.69654272022562        0.34715550716938
H            2.11605083270423        3.75642499575191        0.53739183738632
H            2.53249502834284       -1.14339902669060       -0.26696479033550
H           -0.37574211380304       -2.18718323801923       -0.37038064924708
H           -1.82837899495166       -2.52990681830855        2.08578779535976
H           -0.99867392011152       -4.56026023217813        3.19185554408214
H           -1.22013345321956       -6.75961116149778        2.08629013849741
H           -2.27227518424766       -6.90230122120946       -0.14502710340038
H           -3.08567569041021       -4.87154987778184       -1.26246660924135
H           -5.15503151672909       -3.84137074196553        0.17600428893135
H           -7.18877351515216       -3.88861612571143       -1.20073651169455
H           -7.34913837713423       -2.49253742696770       -3.23372591348238
H           -5.44582590346071       -1.05435402139790       -3.87885975740369
H           -3.40209821065890       -1.02071360116629       -2.51577209567675
H           -4.09438295088514       -0.10280695110283        0.11214545203039
H           -5.13440663081969        1.85975381065912        0.34952346151263
H           -7.07253242717145        3.34247160280765        0.61162180703754
H           -6.74991064829454        5.75643465411880        0.99951438390362
H           -4.47803671110108        6.69574147799862        1.11810062948320
H           -2.07866687114466        6.41887921987611        1.03492862817991
H           -0.07897230011542        5.00197705665039        0.76975507854148
H            4.56335193973482        1.64817348743541       -2.25345114582029
H            6.34871043811611        2.88053687715596       -3.40990764029015

          :  Hamiltonian                  GFN2-xTB          :
         :: gradient norm              0.000067121989 Eh/a0 ::
         :: HOMO-LUMO gap              1.892984951286 eV    ::
         :: SCC energy              -125.510650187843 Eh    ::
         :: -> dispersion             -0.113669136355 Eh    ::
         :: -> Gsolv                  -0.049038870662 Eh    ::
         :: repulsion energy           2.324592838144 Eh    ::

    * Orbital Energies and Occupations

         #    Occupation            Energy/Eh            Energy/eV
      -------------------------------------------------------------
         1        2.0000           -0.6870265             -18.6949
       ...           ...                  ...                  ...
       103        2.0000           -0.4091139             -11.1326
       104        2.0000           -0.4069620             -11.0740
       105        2.0000           -0.4064291             -11.0595
       106        2.0000           -0.4054626             -11.0332
       107        2.0000           -0.4053060             -11.0289
       108        2.0000           -0.4038092             -10.9882
       109        2.0000           -0.4036917             -10.9850
       110        2.0000           -0.4024536             -10.9513
       111        2.0000           -0.3896578             -10.6031
       112        2.0000           -0.3821481             -10.3988
       113        2.0000           -0.3701818             -10.0732
       114        2.0000           -0.3492556              -9.5037
       115        2.0000           -0.3435816              -9.3493 (HOMO)
       116                         -0.2740157              -7.4563 (LUMO)
       117                         -0.2446554              -6.6574
       118                         -0.2344788              -6.3805
       119                         -0.2298667              -6.2550
       120                         -0.2297861              -6.2528
       121                         -0.2284843              -6.2174
       122                         -0.2247965              -6.1170
       123                         -0.2233057              -6.0765
       124                         -0.2211048              -6.0166
       125                         -0.2198141              -5.9814
       126                         -0.2125039              -5.7825
       ...                                ...                  ...
       227                          0.7644570              20.8019
      -------------------------------------------------------------
                  HL-Gap            0.0695659 Eh            1.8930 eV

     #   Z          covCN         q      C6AA      α(0)
     1   6 C        2.919    -0.040    28.985     8.829
     2   6 C        2.919    -0.030    28.757     8.794
     3   6 C        2.922    -0.048    29.196     8.861
     4   6 C        2.923     0.065    26.540     8.448
     5   7 N        2.752    -0.079    22.778     7.088
     6   6 C        2.923     0.065    26.538     8.448
     7   6 C        2.922    -0.049    29.206     8.862
     8   6 C        2.919    -0.030    28.759     8.794
     9   6 C        2.919    -0.040    28.989     8.829
    10   6 C        2.919    -0.030    28.756     8.794
    11   6 C        2.922    -0.049    29.209     8.863
    12   6 C        2.922     0.059    26.669     8.469
    13   6 C        2.926    -0.050    29.246     8.869
    14   6 C        2.907    -0.046    29.133     8.850
    15   6 C        3.084     0.043    26.939     8.508
    16   6 C        3.109    -0.011    28.130     8.689
    17   6 C        2.914    -0.050    29.241     8.867
    18   6 C        3.021    -0.016    28.393     8.741
    19   6 C        2.935    -0.049    29.209     8.864
    20   6 C        2.924     0.055    26.758     8.483
    21   7 N        2.754    -0.083    22.853     7.100
    22   6 C        2.922     0.066    26.525     8.446
    23   6 C        2.922    -0.049    29.227     8.866
    24   6 C        2.919    -0.031    28.766     8.795
    25   6 C        2.919    -0.041    29.013     8.833
    26   6 C        2.919    -0.031    28.770     8.796
    27   6 C        2.922    -0.049    29.228     8.866
    28   6 C        2.922     0.066    26.526     8.446
    29   6 C        2.922    -0.050    29.231     8.866
    30   6 C        2.919    -0.031    28.769     8.796
    31   6 C        2.919    -0.041    29.012     8.833
    32   6 C        2.919    -0.031    28.765     8.795
    33   6 C        2.922    -0.049    29.225     8.865
    34   6 C        2.938    -0.049    29.213     8.864
    35   6 C        3.024    -0.015    28.368     8.737
    36   6 C        3.111    -0.024    28.449     8.738
    37   6 C        2.979     0.010    27.787     8.647
    38   6 C        2.917    -0.037    28.928     8.820
    39   6 C        2.916    -0.031    28.770     8.796
    40   6 C        2.915    -0.034    28.835     8.805
    41   6 C        2.920    -0.036    28.888     8.814
    42   6 C        2.984     0.005    27.907     8.665
    43   6 C        2.923    -0.039    28.958     8.825
    44   6 C        2.905    -0.045    29.124     8.849
    45   6 C        3.098     0.048    26.816     8.487
    46   7 N        2.835    -0.030    21.830     6.939
    47   6 C        3.478     0.029    22.013     7.019
    48   6 C        2.922    -0.049    29.207     8.863
    49   6 C        2.919    -0.030    28.758     8.794
    50   1 H        0.926     0.031     2.565     2.505
    51   1 H        0.926     0.033     2.545     2.494
    52   1 H        0.926     0.031     2.565     2.505
    53   1 H        0.926     0.031     2.571     2.508
    54   1 H        0.926     0.033     2.550     2.497
    55   1 H        0.926     0.031     2.570     2.507
    56   1 H        0.926     0.033     2.549     2.497
    57   1 H        0.926     0.031     2.577     2.510
    58   1 H        0.926     0.038     2.470     2.458
    59   1 H        0.926     0.040     2.455     2.450
    60   1 H        0.926     0.039     2.467     2.456
    61   1 H        0.926     0.035     2.517     2.481
    62   1 H        0.926     0.029     2.603     2.523
    63   1 H        0.926     0.032     2.564     2.504
    64   1 H        0.926     0.030     2.584     2.514
    65   1 H        0.926     0.032     2.563     2.503
    66   1 H        0.926     0.030     2.583     2.513
    67   1 H        0.926     0.030     2.584     2.514
    68   1 H        0.926     0.032     2.563     2.503
    69   1 H        0.926     0.030     2.584     2.514
    70   1 H        0.926     0.032     2.564     2.504
    71   1 H        0.926     0.029     2.603     2.523
    72   1 H        0.926     0.033     2.544     2.494
    73   1 H        0.926     0.035     2.516     2.480
    74   1 H        0.926     0.030     2.583     2.513
    75   1 H        0.926     0.030     2.586     2.515
    76   1 H        0.926     0.032     2.559     2.502
    77   1 H        0.926     0.038     2.480     2.462
    78   1 H        0.926     0.036     2.497     2.471
    79   1 H        0.926     0.031     2.573     2.509
    80   1 H        0.926     0.033     2.545     2.495

molecular dipole:
                 x           y           z       tot (Debye)
 q only:        0.342       0.331       0.037
   full:        0.391       0.381       0.042       1.391

 projected vibrational frequencies (cm⁻¹)
eigval :       -0.00    -0.00    -0.00     0.00     0.00     0.00
eigval :        8.55    13.60    18.02    22.85    32.29    37.11
eigval :       46.85    52.15    52.88    59.37    60.60    71.02
eigval :       80.98    82.91    93.58   109.34   111.30   126.80
eigval :      156.49   177.79   190.93   201.30   209.63   223.17
eigval :      233.83   236.61   243.05   249.88   283.98   294.91
eigval :      305.57   315.88   325.20   330.96   358.31   366.91
eigval :      375.52   378.03   380.54   382.29   384.07   398.90
eigval :      401.75   411.50   437.43   455.10   466.99   480.72
eigval :      485.24   488.22   490.66   501.99   503.18   542.87
eigval :      545.12   557.42   565.96   575.63   586.27   588.05
eigval :      588.87   590.27   595.89   611.27   618.60   627.98
eigval :      638.24   646.02   654.22   660.45   660.70   663.31
eigval :      667.21   672.62   689.31   702.11   710.43   721.98
eigval :      739.15   754.25   755.76   758.24   759.79   761.60
eigval :      802.00   810.62   815.89   824.27   830.32   860.25
eigval :      865.06   870.79   872.08   872.30   873.84   874.22
eigval :      875.68   883.15   887.05   890.52   890.90   893.04
eigval :      900.44   903.83   909.53   909.98   913.13   924.74
eigval :      925.66   925.85   926.27   926.33   927.82   928.25
eigval :      928.51   928.60   950.56   970.54   983.90  1000.56
eigval :     1003.10  1005.32  1012.87  1032.68  1080.86  1081.82
eigval :     1081.99  1082.83  1083.14  1089.19  1119.45  1120.24
eigval :     1120.50  1123.13  1125.93  1145.72  1156.99  1164.46
eigval :     1177.96  1178.06  1178.84  1179.26  1179.82  1181.97
eigval :     1192.31  1194.19  1195.13  1197.59  1208.28  1215.19
eigval :     1222.60  1239.80  1246.46  1252.05  1270.39  1276.83
eigval :     1277.09  1278.93  1290.24  1301.28  1309.35  1312.39
eigval :     1317.76  1319.31  1321.98  1325.07  1325.64  1329.93
eigval :     1341.50  1349.71  1374.13  1387.48  1397.44  1415.87
eigval :     1426.01  1431.27  1433.01  1437.83  1441.43  1442.30
eigval :     1444.84  1463.85  1470.86  1471.39  1472.79  1474.13
eigval :     1484.48  1528.59  1546.66  1560.54  1573.67  1574.52
eigval :     1575.65  1578.50  1579.19  1589.98  1591.45  1591.66
eigval :     1597.08  1597.88  1605.90  1608.80  1630.00  3064.90
eigval :     3068.65  3069.85  3070.20  3070.91  3071.41  3071.43
eigval :     3071.62  3072.03  3072.86  3075.72  3079.57  3081.31
eigval :     3081.63  3082.26  3082.83  3083.34  3084.12  3084.19
eigval :     3085.51  3087.31  3091.51  3092.12  3092.64  3093.08
eigval :     3093.38  3094.06  3094.28  3094.98  3100.07  3106.93

   temp. (K)  partition function   enthalpy   heat capacity  entropy
                                   cal/mol     cal/K/mol   cal/K/mol   J/K/mol
 298.15  VIB  0.176E+18            22165.552    142.422    137.778
         ROT  0.942E+08              888.752      2.981     39.469
         INT  0.166E+26            23054.305    145.403    177.247
         TR   0.151E+29             1481.254      4.968     45.164
         TOT                       24535.5586   150.3712   222.4106   930.5660

       T/K    H(0)-H(T)+PV         H(T)/Eh          T*S/Eh         G(T)/Eh
   ------------------------------------------------------------------------
    298.15    0.390999E-01    0.656196E+00    0.105674E+00    0.550521E+00
   ------------------------------------------------------------------------

         :::::::::::::::::::::::::::::::::::::::::::::::::::::
         ::                  THERMODYNAMIC                  ::
         :::::::::::::::::::::::::::::::::::::::::::::::::::::
         :: total free energy        -122.635536003523 Eh   ::
         ::.................................................::
         :: total energy             -123.186057348582 Eh   ::
         :: zero point energy           0.617095903314 Eh   ::
         :: G(RRHO) w/o ZPVE           -0.066574558255 Eh   ::
         :: G(RRHO) contrib.            0.550521345059 Eh   ::
         :::::::::::::::::::::::::::::::::::::::::::::::::::::

           -------------------------------------------------
          | TOTAL ENERGY             -123.186057348582 Eh   |
          | TOTAL ENTHALPY           -122.529861543857 Eh   |
          | TOTAL FREE ENERGY        -122.635536003523 Eh   |
          | GRADIENT NORM               0.000067135304 Eh/α |
          | HOMO-LUMO GAP               1.892985097905 eV   |
           -------------------------------------------------

 * finished run on 2025/09/04 at 12:18:24.523
