   * xtb version 6.7.1 (edcfbbe) compiled by 'albert@albert-system' on 2024-07-22

   ID    Z sym.   atoms
    1    6 C      1-4, 6-20, 22-45, 47-49
    2    7 N      5, 21, 46
    3    1 H      50-80

          program call               : xtb data2507/toluene/NIDPA-2/NIDPA-2.xyz --gfn 2 --gbsa toluene --ohess vtight --parallel 40 --molden --ceasefiles --namespace data2507/toluene/NIDPA-2/NIDPA-2_toluene_S0_preOpt
      * Solvation model:               GBSA
        Solvent                        toluene
        Solvent mass                       9.2140E+01 g/mol
          :  Hamiltonian                  GFN2-xTB          :
 * total energy  :  -123.1451096 Eh     change       -0.9697345E-09 Eh
 * total energy  :  -123.1708788 Eh     change       -0.2576916E-01 Eh
 * total energy  :  -123.1807169 Eh     change       -0.9838097E-02 Eh
 * total energy  :  -123.1834703 Eh     change       -0.2753432E-02 Eh
 * total energy  :  -123.1845459 Eh     change       -0.1075610E-02 Eh
 * total energy  :  -123.1849834 Eh     change       -0.4374599E-03 Eh
 * total energy  :  -123.1852804 Eh     change       -0.2970807E-03 Eh
 * total energy  :  -123.1855426 Eh     change       -0.2621174E-03 Eh
 * total energy  :  -123.1857373 Eh     change       -0.1947042E-03 Eh
 * total energy  :  -123.1858110 Eh     change       -0.7377441E-04 Eh
 * total energy  :  -123.1859870 Eh     change       -0.2886478E-06 Eh
 * total energy  :  -123.1859872 Eh     change       -0.1791654E-06 Eh
 * total energy  :  -123.1859873 Eh     change       -0.1222406E-06 Eh
 * total energy  :  -123.1859874 Eh     change       -0.1342222E-06 Eh
 * total energy  :  -123.1859876 Eh     change       -0.1827344E-06 Eh
 * total energy  :  -123.1859879 Eh     change       -0.2434189E-06 Eh
 * total energy  :  -123.1859880 Eh     change       -0.1835476E-06 Eh
 * total energy  :  -123.1859881 Eh     change       -0.1144673E-06 Eh
 * total energy  :  -123.1859882 Eh     change       -0.5777018E-07 Eh
   *** GEOMETRY OPTIMIZATION CONVERGED AFTER 43 ITERATIONS ***

 final structure:
================
80
 xtb: 6.7.1 (edcfbbe)
C            8.07583696735236       -1.65118546950925        1.70169813450846
C            6.80916742885055       -1.70369100794612        2.26101913384734
C            5.72726025551673       -1.15835269973164        1.59720383258586
C            5.89688837598691       -0.55529709863373        0.35044253510167
N            4.80029490650040       -0.00979569197839       -0.32731306045660
C            4.94179989199183        1.16762124067186       -1.06974067184280
C            4.23600188812482        1.34254856132134       -2.26077513965084
C            4.37545256585047        2.50792478350578       -2.98950726694192
C            5.22373857421513        3.51271024232405       -2.55263857535128
C            5.92908190984018        3.34378401460615       -1.37191252677674
C            5.78847235979236        2.18625124123628       -0.63088679099109
C            3.55516965860718       -0.65157923627954       -0.26514679034041
C            3.48972568919210       -2.04857589223486       -0.31214344598182
C            2.28317190593068       -2.72147096370435       -0.24940750870489
C            1.12027901912148       -1.98073787868114       -0.15138786110293
C            1.16757909911871       -0.55075568794386       -0.10795285157329
C            2.38514665526428        0.10051747302939       -0.15829089343525
C           -0.20097537494733       -0.06853373543087        0.00106829953352
C           -0.96158238381842        1.08844925996973        0.08429270844767
C           -2.36032281062713        0.95842578334670        0.19228643228066
N           -3.12590655081082        2.13718124464434        0.29392009566581
C           -4.32167360700424        2.24721077657965       -0.42270753979093
C           -5.42698345506477        2.89602490866614        0.12936676101180
C           -6.60529003264122        2.99635285459686       -0.58499204829984
C           -6.70835598720805        2.44611496124922       -1.85262781396801
C           -5.61674887426230        1.79360557485008       -2.40307043832532
C           -4.43145964242528        1.69640174061335       -1.70040074203345
C           -2.69420934115391        3.17733397825444        1.12137132992109
C           -2.91464321468344        4.50848413265324        0.76384124885080
C           -2.48556098567557        5.53212841911614        1.58616128188095
C           -1.82133779074927        5.25210079988492        2.76969715848381
C           -1.59205408346937        3.93289855676229        3.12623447992208
C           -2.02668697069768        2.90203645147287        2.31589209612308
C           -3.04555158605378       -0.26917226277956        0.20610404549821
C           -2.31517642038747       -1.44997499689558        0.09514041178436
C           -2.42489222969807       -2.89701949922305        0.04983281866769
C           -3.53115263734921       -3.77574969859490        0.08366460944868
C           -4.86630263391213       -3.33387376089960        0.16430913056996
C           -5.90084124619574       -4.22906054477262        0.19345113080022
C           -5.64851343957431       -5.60730822284568        0.14397800417536
C           -4.36264505257201       -6.06707288817943        0.06271363849134
C           -3.27220890390787       -5.17436369879345        0.02718925090799
C           -1.94257948075648       -5.65039508106830       -0.06480895750095
C           -0.87190768132203       -4.80110732188263       -0.10790054655821
C           -1.11228170519229       -3.42501508903870       -0.05150536589441
N           -0.20851332565973       -2.37758500938954       -0.07710222199618
C           -0.94418822542645       -1.23990034254937        0.00991111147373
C            7.17367353094823       -0.51003522206433       -0.21019893805770
C            8.25099037314316       -1.05029120721481        0.46536782611437
H            8.91960801503909       -2.07536731386404        2.22504685526969
H            6.66280056178245       -2.16520170453494        3.22697658687584
H            4.74267768337100       -1.19275127240079        2.04052347448921
H            3.58156886738329        0.55726846031464       -2.61052950307057
H            3.82384324490170        2.62802829680148       -3.91081702754471
H            5.33388549788284        4.42008685464308       -3.12736978466505
H            6.58784469299024        4.12420011046288       -1.01903207539706
H            6.33224529759760        2.06344397363636        0.29456359182978
H            4.40797332995342       -2.60986346786403       -0.40017482209355
H            2.25928931792455       -3.79925209369932       -0.28803396247809
H            2.43332169708787        1.17821233192242       -0.11588464828076
H           -0.52275465786117        2.07454515583200        0.07337499409087
H           -5.35496479541720        3.31553568536711        1.12243686430046
H           -7.45306009949265        3.50021290049475       -0.14336176492189
H           -7.63222457669951        2.52349291722982       -2.40607021889666
H           -5.68545682474551        1.36342903013555       -3.39189423261572
H           -3.58021597611676        1.19292177080598       -2.13540302691628
H           -3.42141886143602        4.73217065546129       -0.16381891413643
H           -2.66311848552677        6.55741938259393        1.29501237951139
H           -1.48459477971152        6.05527163830788        3.40795766541703
H           -1.07826436757694        3.70313811684621        4.04866387022321
H           -1.85363414104692        1.87491500584749        2.60299550746210
H           -4.12014600869746       -0.25184479221783        0.30312131249014
H           -5.06342919721229       -2.27417284429399        0.19907391480420
H           -6.92089605396520       -3.87757471603431        0.25384772874699
H           -6.47593741883324       -6.30161674829173        0.16952562507318
H           -4.16289797327514       -7.12883266700392        0.02202105204031
H           -1.78456267798870       -6.71856055030123       -0.10417536950694
H            0.13699138686774       -5.17654496482807       -0.18181120733007
H            7.31266868021499       -0.05168278898987       -1.17860597785055
H            9.23367424050476       -1.00923115347130        0.01809860255842

          :  Hamiltonian                  GFN2-xTB          :
         :: gradient norm              0.000039449817 Eh/a0 ::
         :: HOMO-LUMO gap              1.900934316184 eV    ::
         :: SCC energy              -125.510569034621 Eh    ::
         :: -> dispersion             -0.113525227777 Eh    ::
         :: -> Gsolv                  -0.049085033990 Eh    ::
         :: repulsion energy           2.324580827998 Eh    ::

    * Orbital Energies and Occupations

         #    Occupation            Energy/Eh            Energy/eV
      -------------------------------------------------------------
         1        2.0000           -0.6872382             -18.7007
       ...           ...                  ...                  ...
       103        2.0000           -0.4092019             -11.1350
       104        2.0000           -0.4067807             -11.0691
       105        2.0000           -0.4064284             -11.0595
       106        2.0000           -0.4055066             -11.0344
       107        2.0000           -0.4052695             -11.0279
       108        2.0000           -0.4038810             -10.9902
       109        2.0000           -0.4036236             -10.9832
       110        2.0000           -0.4024603             -10.9515
       111        2.0000           -0.3897494             -10.6056
       112        2.0000           -0.3822889             -10.4026
       113        2.0000           -0.3702715             -10.0756
       114        2.0000           -0.3488817              -9.4936
       115        2.0000           -0.3440474              -9.3620 (HOMO)
       116                         -0.2741893              -7.4611 (LUMO)
       117                         -0.2448354              -6.6623
       118                         -0.2346530              -6.3852
       119                         -0.2299167              -6.2564
       120                         -0.2297001              -6.2505
       121                         -0.2285042              -6.2179
       122                         -0.2246219              -6.1123
       123                         -0.2233402              -6.0774
       124                         -0.2209888              -6.0134
       125                         -0.2198243              -5.9817
       126                         -0.2124998              -5.7824
       ...                                ...                  ...
       227                          0.7641935              20.7948
      -------------------------------------------------------------
                  HL-Gap            0.0698581 Eh            1.9009 eV

     #   Z          covCN         q      C6AA      α(0)
     1   6 C        2.919    -0.040    28.989     8.829
     2   6 C        2.919    -0.030    28.759     8.794
     3   6 C        2.922    -0.049    29.211     8.863
     4   6 C        2.923     0.065    26.540     8.448
     5   7 N        2.752    -0.079    22.783     7.089
     6   6 C        2.922     0.065    26.538     8.448
     7   6 C        2.922    -0.049    29.218     8.864
     8   6 C        2.919    -0.030    28.759     8.794
     9   6 C        2.919    -0.040    28.995     8.830
    10   6 C        2.919    -0.030    28.760     8.794
    11   6 C        2.922    -0.049    29.210     8.863
    12   6 C        2.923     0.059    26.670     8.469
    13   6 C        2.926    -0.050    29.235     8.867
    14   6 C        2.907    -0.046    29.132     8.850
    15   6 C        3.085     0.043    26.932     8.507
    16   6 C        3.109    -0.010    28.129     8.689
    17   6 C        2.914    -0.049    29.228     8.865
    18   6 C        3.021    -0.016    28.392     8.740
    19   6 C        2.935    -0.049    29.206     8.863
    20   6 C        2.924     0.055    26.758     8.483
    21   7 N        2.754    -0.083    22.852     7.100
    22   6 C        2.922     0.066    26.526     8.446
    23   6 C        2.922    -0.049    29.225     8.865
    24   6 C        2.919    -0.031    28.768     8.796
    25   6 C        2.919    -0.041    29.008     8.832
    26   6 C        2.919    -0.031    28.763     8.795
    27   6 C        2.922    -0.049    29.221     8.865
    28   6 C        2.922     0.066    26.526     8.446
    29   6 C        2.922    -0.050    29.233     8.866
    30   6 C        2.919    -0.031    28.770     8.796
    31   6 C        2.919    -0.041    29.018     8.834
    32   6 C        2.919    -0.031    28.768     8.796
    33   6 C        2.922    -0.050    29.235     8.867
    34   6 C        2.939    -0.049    29.210     8.864
    35   6 C        3.025    -0.015    28.365     8.736
    36   6 C        3.110    -0.024    28.448     8.738
    37   6 C        2.979     0.010    27.786     8.647
    38   6 C        2.917    -0.037    28.927     8.820
    39   6 C        2.916    -0.031    28.769     8.795
    40   6 C        2.915    -0.033    28.834     8.805
    41   6 C        2.920    -0.036    28.887     8.814
    42   6 C        2.984     0.005    27.905     8.665
    43   6 C        2.923    -0.038    28.957     8.825
    44   6 C        2.905    -0.045    29.123     8.849
    45   6 C        3.097     0.048    26.816     8.487
    46   7 N        2.835    -0.030    21.826     6.939
    47   6 C        3.477     0.029    22.019     7.020
    48   6 C        2.922    -0.048    29.201     8.862
    49   6 C        2.919    -0.030    28.758     8.794
    50   1 H        0.926     0.031     2.568     2.506
    51   1 H        0.926     0.033     2.547     2.496
    52   1 H        0.926     0.031     2.577     2.510
    53   1 H        0.926     0.030     2.583     2.513
    54   1 H        0.926     0.032     2.554     2.499
    55   1 H        0.926     0.031     2.574     2.509
    56   1 H        0.926     0.032     2.552     2.498
    57   1 H        0.926     0.031     2.570     2.507
    58   1 H        0.926     0.038     2.469     2.457
    59   1 H        0.926     0.040     2.451     2.448
    60   1 H        0.926     0.039     2.464     2.455
    61   1 H        0.926     0.035     2.514     2.479
    62   1 H        0.926     0.030     2.581     2.512
    63   1 H        0.926     0.032     2.561     2.502
    64   1 H        0.926     0.030     2.582     2.513
    65   1 H        0.926     0.032     2.562     2.503
    66   1 H        0.926     0.029     2.601     2.522
    67   1 H        0.926     0.030     2.583     2.513
    68   1 H        0.926     0.032     2.564     2.504
    69   1 H        0.926     0.030     2.588     2.515
    70   1 H        0.926     0.031     2.568     2.506
    71   1 H        0.926     0.029     2.605     2.524
    72   1 H        0.926     0.033     2.543     2.494
    73   1 H        0.926     0.035     2.515     2.480
    74   1 H        0.926     0.030     2.582     2.513
    75   1 H        0.926     0.030     2.585     2.514
    76   1 H        0.926     0.032     2.558     2.501
    77   1 H        0.926     0.038     2.478     2.462
    78   1 H        0.926     0.037     2.495     2.470
    79   1 H        0.926     0.031     2.566     2.505
    80   1 H        0.926     0.033     2.547     2.496

molecular dipole:
                 x           y           z       tot (Debye)
 q only:        0.310      -0.341      -0.036
   full:        0.364      -0.390      -0.041       1.359

 projected vibrational frequencies (cm⁻¹)
eigval :       -0.00    -0.00    -0.00    -0.00     0.00     0.00
eigval :       13.86    15.80    18.13    23.22    34.19    36.18
eigval :       50.22    53.49    56.75    61.20    63.71    72.72
eigval :       80.26    88.10    95.39   111.90   112.56   126.67
eigval :      157.06   177.35   191.06   204.59   211.75   224.96
eigval :      231.39   238.41   244.28   253.45   284.99   296.07
eigval :      304.83   316.22   323.50   332.79   359.50   372.69
eigval :      376.71   377.95   379.92   383.46   385.91   393.29
eigval :      408.16   412.59   439.33   454.53   468.35   483.23
eigval :      485.02   489.56   490.84   502.37   503.52   542.80
eigval :      545.41   560.27   564.87   575.97   585.88   588.78
eigval :      589.84   590.20   596.92   610.25   617.65   631.74
eigval :      638.65   644.98   654.42   660.56   661.22   663.91
eigval :      668.02   673.11   690.92   705.75   710.60   722.31
eigval :      739.36   754.77   755.11   758.18   760.70   762.90
eigval :      801.98   810.66   815.50   824.86   830.38   860.17
eigval :      865.71   872.23   872.34   873.05   874.13   875.37
eigval :      875.91   883.33   888.51   890.05   892.50   893.47
eigval :      900.52   903.96   909.83   910.20   914.51   925.49
eigval :      926.20   926.23   926.38   927.02   927.56   929.23
eigval :      929.78   931.00   950.67   970.87   984.09  1000.92
eigval :     1003.64  1005.69  1013.32  1033.72  1080.96  1081.57
eigval :     1082.49  1083.40  1083.44  1089.68  1119.87  1121.04
eigval :     1122.32  1124.41  1126.73  1147.00  1158.67  1166.27
eigval :     1176.76  1179.49  1179.61  1180.37  1180.82  1183.05
eigval :     1194.59  1195.04  1196.60  1198.87  1209.39  1217.54
eigval :     1223.67  1241.36  1246.95  1252.50  1271.41  1276.84
eigval :     1277.30  1278.77  1290.61  1301.14  1309.70  1312.84
eigval :     1318.23  1319.59  1322.18  1325.21  1325.83  1330.08
eigval :     1341.07  1350.28  1374.48  1387.36  1397.65  1416.00
eigval :     1425.95  1431.17  1433.17  1438.42  1441.40  1442.59
eigval :     1444.85  1464.40  1470.84  1471.46  1472.75  1474.26
eigval :     1484.61  1528.83  1546.77  1560.46  1573.70  1574.38
eigval :     1575.75  1578.50  1579.00  1590.18  1591.55  1591.76
eigval :     1597.23  1597.98  1606.40  1608.53  1630.24  3064.86
eigval :     3069.46  3069.58  3070.27  3070.54  3070.56  3070.83
eigval :     3071.85  3071.88  3071.95  3075.61  3080.24  3080.64
eigval :     3081.38  3081.81  3082.89  3083.17  3083.62  3084.39
eigval :     3084.66  3087.42  3091.39  3091.96  3092.39  3092.53
eigval :     3092.83  3093.35  3094.49  3094.82  3100.27  3107.69

   temp. (K)  partition function   enthalpy   heat capacity  entropy
                                   cal/mol     cal/K/mol   cal/K/mol   J/K/mol
 298.15  VIB  0.626E+17            22088.675    142.560    136.614
         ROT  0.943E+08              888.752      2.981     39.470
         INT  0.590E+25            22977.427    145.541    176.084
         TR   0.151E+29             1481.254      4.968     45.164
         TOT                       24458.6813   150.5088   221.2480   925.7016

       T/K    H(0)-H(T)+PV         H(T)/Eh          T*S/Eh         G(T)/Eh
   ------------------------------------------------------------------------
    298.15    0.389774E-01    0.656380E+00    0.105122E+00    0.551258E+00
   ------------------------------------------------------------------------

         :::::::::::::::::::::::::::::::::::::::::::::::::::::
         ::                  THERMODYNAMIC                  ::
         :::::::::::::::::::::::::::::::::::::::::::::::::::::
         :: total free energy        -122.634730210728 Eh   ::
         ::.................................................::
         :: total energy             -123.185988204968 Eh   ::
         :: zero point energy           0.617402669368 Eh   ::
         :: G(RRHO) w/o ZPVE           -0.066144675128 Eh   ::
         :: G(RRHO) contrib.            0.551257994240 Eh   ::
         :::::::::::::::::::::::::::::::::::::::::::::::::::::

           -------------------------------------------------
          | TOTAL ENERGY             -123.185988204968 Eh   |
          | TOTAL ENTHALPY           -122.529608145872 Eh   |
          | TOTAL FREE ENERGY        -122.634730210728 Eh   |
          | GRADIENT NORM               0.000039449060 Eh/α |
          | HOMO-LUMO GAP               1.900934403426 eV   |
           -------------------------------------------------

 * finished run on 2025/09/04 at 12:12:26.038
