   * xtb version 6.7.1 (edcfbbe) compiled by 'albert@albert-system' on 2024-07-22

   ID    Z sym.   atoms
    1    6 C      1-4, 6-20, 22-45, 47-49
    2    7 N      5, 21, 46
    3    1 H      50-80

          program call               : xtb data2507/toluene/NIDPA-2/NIDPA-2_toluene_S0_finalOpt.xtbopt.xyz --gfn 2 --uhf 2 --gbsa toluene --ohess vtight --parallel 40 --molden --ceasefiles --namespace data2507/toluene/NIDPA-2/NIDPA-2_toluene_T1_preOpt
      * Solvation model:               GBSA
        Solvent                        toluene
        Solvent mass                       9.2140E+01 g/mol
          :  Hamiltonian                  GFN2-xTB          :
 * total energy  :  -123.1058199 Eh     change       -0.1837172E-07 Eh
 * total energy  :  -123.1078265 Eh     change       -0.2006632E-02 Eh
 * total energy  :  -123.1083207 Eh     change       -0.4941864E-03 Eh
 * total energy  :  -123.1083558 Eh     change       -0.3515072E-04 Eh
 * total energy  :  -123.1083665 Eh     change       -0.1070630E-04 Eh
 * total energy  :  -123.1083700 Eh     change       -0.3496971E-05 Eh
 * total energy  :  -123.1083731 Eh     change       -0.3025292E-05 Eh
 * total energy  :  -123.1083764 Eh     change       -0.3351875E-05 Eh
 * total energy  :  -123.1083793 Eh     change       -0.2859614E-05 Eh
 * total energy  :  -123.1083817 Eh     change       -0.2400065E-05 Eh
 * total energy  :  -123.1084122 Eh     change       -0.1600495E-06 Eh
 * total energy  :  -123.1084124 Eh     change       -0.2248595E-06 Eh
 * total energy  :  -123.1084128 Eh     change       -0.3671899E-06 Eh
 * total energy  :  -123.1084133 Eh     change       -0.4902654E-06 Eh
 * total energy  :  -123.1084138 Eh     change       -0.4764366E-06 Eh
 * total energy  :  -123.1084142 Eh     change       -0.3709984E-06 Eh
 * total energy  :  -123.1084144 Eh     change       -0.2866627E-06 Eh
 * total energy  :  -123.1084146 Eh     change       -0.1825844E-06 Eh
 * total energy  :  -123.1084146 Eh     change       -0.1831152E-07 Eh
   *** GEOMETRY OPTIMIZATION CONVERGED AFTER 44 ITERATIONS ***

 final structure:
================
80
 xtb: 6.7.1 (edcfbbe)
C            7.89729483434810        2.27573583884454       -1.98992924797182
C            8.17865076722396        1.50596599665949       -0.87160054390906
C            7.17319046110707        0.80710044051836       -0.23249195651499
C            5.86344264483328        0.86632105261364       -0.71206485982212
N            4.84073800729042        0.15883849357420       -0.07159250996148
C            5.09677187927707       -1.11501321658209        0.44512020954674
C            5.95039807585588       -1.99211515958774       -0.22731394258145
C            6.20392153337309       -3.24767362549525        0.28958565249639
C            5.60969418823415       -3.65183379947676        1.47499937055228
C            4.75931405475560       -2.78578962377933        2.14523032084000
C            4.50344495456909       -1.52593244755248        1.64048241826437
C            3.56814128949518        0.71848626241155        0.03988870104808
C            3.43576733469639        2.10826353178922        0.24938764869659
C            2.19267755446398        2.69743428436249        0.36165029226748
C            1.06409068615947        1.90228195036468        0.26331904835554
C            1.18001814036734        0.47055773029683        0.04915503187060
C            2.43919881871180       -0.09547663080765       -0.05749836612614
C           -0.15206144284151       -0.06941145521498       -0.00183004201758
C           -0.86441706383496       -1.27015231901042       -0.16268919463436
C           -2.26924084668530       -1.20546900279890       -0.11599597776974
N           -2.97961563991010       -2.40548420878731       -0.27119240605761
C           -2.50623138793960       -3.57698905252716        0.32135104768350
C           -1.88310419400967       -3.53220641897520        1.57092410152146
C           -1.41030230849331       -4.69156236931492        2.15326426582473
C           -1.55237889530003       -5.91058079005014        1.50796789507101
C           -2.17171918582627       -5.96148763484294        0.26872290828246
C           -2.64416248260254       -4.80747262093628       -0.32530985285660
C           -4.15825645451157       -2.42457350553720       -1.01768301025992
C           -5.22816523372394       -3.23872333154309       -0.63851938194920
C           -6.39164635579383       -3.24858184443014       -1.38274644978488
C           -6.51235410277293       -2.44794206489633       -2.50815820960812
C           -5.45523708511476       -1.63469356700667       -2.88709531466321
C           -4.28511074777299       -1.62147353093938       -2.15403844411988
C           -3.02611963099085       -0.02769312338992        0.07549571252444
C           -2.34300649352251        1.19136641340253        0.22575446381578
C           -2.52637411516602        2.60014913841747        0.42850992151908
C           -3.67458285847426        3.41976847035485        0.54624391098812
C           -4.98344654162254        2.91900118739443        0.47590754462654
C           -6.07454640901715        3.75529689956304        0.60152311860881
C           -5.88792461578234        5.11937512087602        0.80132793233500
C           -4.61256616206738        5.64200820212716        0.86967753512708
C           -3.47943123503562        4.82109315170969        0.74474778066824
C           -2.17220455624824        5.36298762397271        0.80996790624816
C           -1.04900221145328        4.57038032373872        0.68186447708473
C           -1.21734920339687        3.21116510722856        0.49183259405793
N           -0.27275931946097        2.21064171458480        0.33310027422375
C           -0.95887324551712        1.04469901897110        0.17745402700372
C            5.58562002270404        1.64083351339805       -1.84024059726544
C            6.59784193238783        2.33958076803037       -2.46864733123557
H            8.68571400956803        2.82204768841628       -2.48513830067613
H            9.18738226293049        1.45613815799737       -0.48900272844308
H            7.39105011988735        0.21907480956638        0.64693819222611
H            6.40247862187948       -1.68392190305683       -1.15855164725108
H            6.86299034975559       -3.91834983659932       -0.24177255322785
H            5.80822757821380       -4.63483336324948        1.87430967097052
H            4.29786678191273       -3.09070166770370        3.07287565385342
H            3.85188525241230       -0.84643832852459        2.16995414398681
H            4.32623810901280        2.71014560956859        0.34251336625545
H            2.10858721741962        3.75892284840594        0.53800612420169
H            2.54735609075563       -1.15497185065852       -0.23576714170357
H           -0.37518845499130       -2.21425275144622       -0.34072869218099
H           -1.78439559556249       -2.58392775148057        2.07808750956627
H           -0.93514989250148       -4.64405033478467        3.12203490569462
H           -1.18298940137078       -6.81467750436809        1.96773098230291
H           -2.27989245369389       -6.90594682684658       -0.24385054225718
H           -3.11114497372018       -4.84656531861250       -1.29851968476486
H           -5.14340444767552       -3.84829855887931        0.24915758854268
H           -7.21394596013072       -3.87803890149126       -1.07578261073281
H           -7.42464067465699       -2.45624618182218       -3.08518075823146
H           -5.53966606595072       -1.01104821545510       -3.76487375571846
H           -3.45705584935335       -0.99687615390537       -2.45495274550793
H           -4.09991655204285       -0.10557453220547        0.12923622212157
H           -5.13123302892997        1.86228485941817        0.31672778626110
H           -7.07510593824057        3.35006636692166        0.54446212213323
H           -6.74446749544408        5.77182649493584        0.90057246773792
H           -4.47019616169387        6.70340762387321        1.02265463247506
H           -2.06471549922516        6.42740215184705        0.96049657009315
H           -0.06123663667389        5.00491328406639        0.72709221460788
H            4.57542354327418        1.67975135232241       -2.22028753065312
H            6.37169709739407        2.93142017747700       -3.34340440318898

          :  Hamiltonian                  GFN2-xTB          :
         :: gradient norm              0.000046626462 Eh/a0 ::
         :: HOMO-LUMO gap              0.709193554431 eV    ::
         :: SCC energy              -125.418499479852 Eh    ::
         :: -> dispersion             -0.114000660990 Eh    ::
         :: -> Gsolv                  -0.051759827995 Eh    ::
         :: repulsion energy           2.310084840660 Eh    ::

    * Orbital Energies and Occupations

         #    Occupation            Energy/Eh            Energy/eV
      -------------------------------------------------------------
         1        2.0000           -0.6770188             -18.4226
       ...           ...                  ...                  ...
       104        2.0000           -0.4114207             -11.1953
       105        2.0000           -0.4111772             -11.1887
       106        2.0000           -0.4100202             -11.1572
       107        2.0000           -0.4030691             -10.9681
       108        2.0000           -0.4015730             -10.9274
       109        2.0000           -0.4005771             -10.9003
       110        2.0000           -0.3940668             -10.7231
       111        2.0000           -0.3798838             -10.3372
       112        2.0000           -0.3764984             -10.2450
       113        1.9998           -0.3558302              -9.6826
       114        1.8784           -0.3497012              -9.5159
       115        1.1218           -0.3459454              -9.4137
       116        1.0000           -0.2639316              -7.1819 (HOMO)
       117        0.0000           -0.2378694              -6.4728 (LUMO)
       118        0.0000           -0.2369781              -6.4485
       119        0.0000           -0.2368515              -6.4451
       120                         -0.2314473              -6.2980
       121                         -0.2310409              -6.2869
       122                         -0.2302506              -6.2654
       123                         -0.2280346              -6.2051
       124                         -0.2271353              -6.1807
       125                         -0.2228564              -6.0642
       126                         -0.2102160              -5.7203
       127                         -0.2048040              -5.5730
       ...                                ...                  ...
       227                          0.7774477              21.1554
      -------------------------------------------------------------
                  HL-Gap            0.0260622 Eh            0.7092 eV

     #   Z          covCN         q      C6AA      α(0)
     1   6 C        2.919    -0.034    28.840     8.806
     2   6 C        2.919    -0.028    28.697     8.785
     3   6 C        2.921    -0.044    29.083     8.844
     4   6 C        2.925     0.065    26.553     8.450
     5   7 N        2.753    -0.046    22.125     6.986
     6   6 C        2.925     0.065    26.552     8.450
     7   6 C        2.921    -0.044    29.091     8.845
     8   6 C        2.919    -0.028    28.690     8.784
     9   6 C        2.919    -0.034    28.837     8.806
    10   6 C        2.919    -0.027    28.688     8.783
    11   6 C        2.921    -0.042    29.052     8.839
    12   6 C        2.922     0.056    26.750     8.482
    13   6 C        2.922    -0.063    29.569     8.917
    14   6 C        2.905    -0.042    29.032     8.835
    15   6 C        3.081     0.034    27.162     8.544
    16   6 C        3.113    -0.020    28.357     8.723
    17   6 C        2.911    -0.050    29.243     8.867
    18   6 C        3.019    -0.028    28.680     8.785
    19   6 C        2.930    -0.074    29.847     8.960
    20   6 C        2.922     0.055    26.760     8.483
    21   7 N        2.756    -0.046    22.120     6.985
    22   6 C        2.925     0.067    26.500     8.442
    23   6 C        2.922    -0.041    29.026     8.835
    24   6 C        2.919    -0.028    28.691     8.784
    25   6 C        2.919    -0.034    28.835     8.806
    26   6 C        2.919    -0.028    28.699     8.785
    27   6 C        2.921    -0.044    29.095     8.845
    28   6 C        2.925     0.067    26.494     8.441
    29   6 C        2.921    -0.044    29.099     8.846
    30   6 C        2.919    -0.028    28.701     8.785
    31   6 C        2.919    -0.033    28.832     8.805
    32   6 C        2.918    -0.027    28.688     8.783
    33   6 C        2.922    -0.041    29.022     8.834
    34   6 C        2.934    -0.072    29.805     8.954
    35   6 C        3.017    -0.023    28.551     8.765
    36   6 C        3.105    -0.034    28.717     8.781
    37   6 C        2.976     0.004    27.925     8.668
    38   6 C        2.918    -0.047    29.160     8.855
    39   6 C        2.914    -0.042    29.053     8.839
    40   6 C        2.914    -0.037    28.930     8.820
    41   6 C        2.920    -0.050    29.230     8.866
    42   6 C        2.980     0.003    27.944     8.671
    43   6 C        2.922    -0.065    29.610     8.923
    44   6 C        2.902    -0.050    29.249     8.868
    45   6 C        3.076     0.028    27.289     8.565
    46   7 N        2.833    -0.015    21.542     6.893
    47   6 C        3.461     0.033    22.219     7.097
    48   6 C        2.921    -0.043    29.058     8.840
    49   6 C        2.919    -0.028    28.689     8.783
    50   1 H        0.926     0.039     2.465     2.455
    51   1 H        0.926     0.040     2.443     2.444
    52   1 H        0.926     0.039     2.462     2.454
    53   1 H        0.926     0.039     2.467     2.456
    54   1 H        0.926     0.040     2.442     2.444
    55   1 H        0.926     0.039     2.459     2.452
    56   1 H        0.926     0.040     2.447     2.446
    57   1 H        0.926     0.039     2.465     2.455
    58   1 H        0.926     0.032     2.555     2.500
    59   1 H        0.926     0.033     2.550     2.497
    60   1 H        0.926     0.036     2.501     2.473
    61   1 H        0.926     0.021     2.717     2.578
    62   1 H        0.926     0.039     2.461     2.453
    63   1 H        0.926     0.040     2.445     2.445
    64   1 H        0.926     0.040     2.453     2.449
    65   1 H        0.926     0.041     2.440     2.443
    66   1 H        0.926     0.038     2.470     2.458
    67   1 H        0.926     0.039     2.466     2.456
    68   1 H        0.926     0.040     2.442     2.444
    69   1 H        0.926     0.039     2.463     2.454
    70   1 H        0.926     0.039     2.459     2.452
    71   1 H        0.926     0.039     2.463     2.454
    72   1 H        0.926     0.017     2.785     2.610
    73   1 H        0.926     0.022     2.706     2.572
    74   1 H        0.926     0.016     2.799     2.616
    75   1 H        0.925     0.016     2.792     2.613
    76   1 H        0.925     0.015     2.817     2.625
    77   1 H        0.926     0.013     2.836     2.633
    78   1 H        0.926     0.018     2.770     2.603
    79   1 H        0.926     0.039     2.466     2.456
    80   1 H        0.926     0.039     2.455     2.450

molecular dipole:
                 x           y           z       tot (Debye)
 q only:        2.328      -2.774      -0.417
   full:        2.332      -2.592      -0.402       8.921

 projected vibrational frequencies (cm⁻¹)
eigval :       -0.00    -0.00    -0.00    -0.00     0.00     0.00
eigval :        9.62    14.79    20.79    24.16    32.62    37.54
eigval :       48.49    51.96    54.38    59.50    60.79    71.97
eigval :       81.26    82.37    93.52   108.51   113.24   128.21
eigval :      155.67   176.20   194.41   204.77   208.53   223.58
eigval :      231.56   233.54   239.50   249.48   283.18   296.56
eigval :      305.31   314.36   316.25   329.18   356.63   363.17
eigval :      371.75   374.49   377.56   380.76   382.58   391.53
eigval :      402.86   410.15   436.44   451.38   461.42   468.59
eigval :      483.45   488.25   494.38   499.90   505.89   525.83
eigval :      540.25   553.70   561.54   568.98   584.37   585.89
eigval :      586.87   588.38   589.55   608.17   614.83   617.23
eigval :      629.34   635.42   644.18   657.99   659.11   662.54
eigval :      665.73   667.49   671.26   678.77   703.81   705.10
eigval :      732.20   741.01   754.82   756.08   757.08   758.21
eigval :      761.62   767.46   782.17   794.72   798.26   804.73
eigval :      839.59   852.42   855.75   863.59   868.81   870.05
eigval :      870.77   871.86   876.83   880.91   884.14   890.50
eigval :      894.15   894.86   896.56   904.53   908.17   908.98
eigval :      925.12   926.22   926.64   927.24   927.68   928.13
eigval :      929.11   930.25   939.43   967.76   980.35   989.45
eigval :      998.69  1001.31  1006.51  1021.81  1067.90  1078.78
eigval :     1079.82  1080.51  1081.16  1084.28  1098.67  1118.52
eigval :     1119.77  1120.41  1122.61  1137.78  1140.21  1151.02
eigval :     1168.88  1175.72  1176.05  1178.49  1178.72  1179.07
eigval :     1188.28  1189.72  1191.09  1193.03  1202.10  1210.36
eigval :     1217.20  1231.33  1237.55  1250.12  1264.91  1265.19
eigval :     1271.70  1274.64  1276.23  1284.68  1291.68  1295.17
eigval :     1300.30  1306.55  1317.29  1320.01  1324.18  1324.51
eigval :     1330.91  1336.00  1338.82  1372.46  1373.91  1397.33
eigval :     1410.26  1411.94  1422.56  1430.38  1432.15  1437.86
eigval :     1438.21  1446.40  1452.26  1458.08  1459.32  1460.08
eigval :     1460.93  1475.74  1496.39  1509.16  1523.00  1535.47
eigval :     1545.01  1559.90  1566.43  1567.92  1570.07  1571.70
eigval :     1580.03  1580.86  1587.58  1587.74  1605.38  3052.45
eigval :     3060.09  3066.63  3071.37  3076.21  3076.84  3077.00
eigval :     3077.32  3077.97  3078.19  3078.40  3078.42  3078.71
eigval :     3085.84  3085.94  3086.49  3086.56  3086.97  3087.83
eigval :     3089.83  3089.96  3090.30  3090.60  3094.96  3096.92
eigval :     3097.16  3097.44  3097.79  3097.95  3099.81  3101.62

   temp. (K)  partition function   enthalpy   heat capacity  entropy
                                   cal/mol     cal/K/mol   cal/K/mol   J/K/mol
 298.15  VIB  0.127E+18            22342.582    144.154    138.318
         ROT  0.940E+08              888.752      2.981     39.465
         INT  0.119E+26            23231.335    147.135    177.784
         TR   0.151E+29             1481.254      4.968     45.164
         TOT                       24712.5885   152.1028   222.9473   932.8115

       T/K    H(0)-H(T)+PV         H(T)/Eh          T*S/Eh         G(T)/Eh
   ------------------------------------------------------------------------
    298.15    0.393820E-01    0.652532E+00    0.105929E+00    0.546603E+00
   ------------------------------------------------------------------------

         :::::::::::::::::::::::::::::::::::::::::::::::::::::
         ::                  THERMODYNAMIC                  ::
         :::::::::::::::::::::::::::::::::::::::::::::::::::::
         :: total free energy        -122.561811810897 Eh   ::
         ::.................................................::
         :: total energy             -123.108414639344 Eh   ::
         :: zero point energy           0.613150272923 Eh   ::
         :: G(RRHO) w/o ZPVE           -0.066547444476 Eh   ::
         :: G(RRHO) contrib.            0.546602828447 Eh   ::
         :::::::::::::::::::::::::::::::::::::::::::::::::::::

           -------------------------------------------------
          | TOTAL ENERGY             -123.108414639344 Eh   |
          | TOTAL ENTHALPY           -122.455882349811 Eh   |
          | TOTAL FREE ENERGY        -122.561811810897 Eh   |
          | GRADIENT NORM               0.000050112564 Eh/α |
          | HOMO-LUMO GAP               0.709187972027 eV   |
           -------------------------------------------------

 * finished run on 2025/09/04 at 12:18:32.491
