   * xtb version 6.7.1 (edcfbbe) compiled by 'albert@albert-system' on 2024-07-22

   ID    Z sym.   atoms
    1    6 C      1-18, 20-26, 28-41, 43-47, 49-71
    2    7 N      19, 27, 42, 48
    3    1 H      72-125

          program call               : xtb data2507/toluene/mCP-BmPy/mCP-BmPy_toluene_S0_crest.xyz --gfn 2 --gbsa toluene --ohess vtight --parallel 40 --molden --ceasefiles --namespace data2507/toluene/mCP-BmPy/mCP-BmPy_toluene_S0_finalOpt
      * Solvation model:               GBSA
        Solvent                        toluene
        Solvent mass                       9.2140E+01 g/mol
          :  Hamiltonian                  GFN2-xTB          :
 * total energy  :  -182.8967330 Eh     change       -0.4251916E-08 Eh
 * total energy  :  -182.8967891 Eh     change       -0.5611915E-04 Eh
 * total energy  :  -182.8968160 Eh     change       -0.2684654E-04 Eh
 * total energy  :  -182.8968282 Eh     change       -0.1221030E-04 Eh
 * total energy  :  -182.8968421 Eh     change       -0.1389240E-04 Eh
 * total energy  :  -182.8968560 Eh     change       -0.1394166E-04 Eh
 * total energy  :  -182.8968664 Eh     change       -0.1043827E-04 Eh
 * total energy  :  -182.8968759 Eh     change       -0.9480697E-05 Eh
 * total energy  :  -182.8968853 Eh     change       -0.9392825E-05 Eh
 * total energy  :  -182.8968960 Eh     change       -0.1068845E-04 Eh
 * total energy  :  -182.8970688 Eh     change       -0.4555679E-06 Eh
 * total energy  :  -182.8970691 Eh     change       -0.3565360E-06 Eh
 * total energy  :  -182.8970695 Eh     change       -0.3551178E-06 Eh
 * total energy  :  -182.8970699 Eh     change       -0.4092863E-06 Eh
 * total energy  :  -182.8970704 Eh     change       -0.5315962E-06 Eh
 * total energy  :  -182.8970710 Eh     change       -0.5431663E-06 Eh
 * total energy  :  -182.8970715 Eh     change       -0.5135356E-06 Eh
 * total energy  :  -182.8970719 Eh     change       -0.4678678E-06 Eh
 * total energy  :  -182.8970719 Eh     change       -0.2724647E-08 Eh
   *** GEOMETRY OPTIMIZATION CONVERGED AFTER 68 ITERATIONS ***

 final structure:
================
125
 xtb: 6.7.1 (edcfbbe)
C           -4.75832185900313        5.95604652813241        2.33748488126472
C           -3.94990841092138        4.65506745480616        2.34216190435189
C           -2.47074562023863        5.01371905672543        2.55027595292006
C           -4.44524211761825        3.78837098425504        3.51046794882792
C           -4.09241908865171        3.86513847895535        1.04949668709820
C           -4.89707350975958        4.28116449681569       -0.00685904628153
C           -5.01833045602675        3.53996814303038       -1.17281037349235
C           -4.32222032665092        2.35075433063195       -1.29032461729828
C           -3.50917507384225        1.91836728006320       -0.23355318609132
C           -3.39163236968485        2.66377130280624        0.91573683268575
C           -2.83536394900454        0.60204764807860       -0.57590270886528
C           -3.28019594092278       -0.54721254949814        0.30584005480906
C           -4.47507115571739       -0.48605520192297        1.00715121592733
C           -4.91098132002789       -1.56533655156767        1.77116413089376
C           -6.17030658411981       -1.47522952269890        2.52226754880576
C           -7.30373424074945       -0.87012761555610        1.98013617479297
C           -8.46620585942113       -0.81560298019499        2.72902888750370
C           -8.45968791260326       -1.37058165840209        4.00026640072487
N           -7.39067180371081       -1.94023094970240        4.53370658308361
C           -6.28380451213969       -1.98747941534220        3.81594509096288
C           -4.14266324450671       -2.72305573842519        1.81564382029381
C           -2.94886948933237       -2.80571136599909        1.10623580933544
C           -2.13965744218026       -4.03123601052441        1.14951624680700
C           -2.72227323796903       -5.29748251669139        1.11038100829352
C           -1.91194894268080       -6.41843808981325        1.15765110943343
C           -0.53918178633637       -6.23778271594242        1.23884944760072
N            0.03064257679218       -5.04373459025594        1.27975460223935
C           -0.74712148793091       -3.97796183236129        1.23791989651740
C           -2.52618074632681       -1.71221603955272        0.35697654253050
C           -1.33256423511065        0.80541912080658       -0.54300009386228
C           -0.65402659778497        0.70989553791680        0.67729126754842
C            0.70369878623488        0.93629597224863        0.78250537101895
C            1.39827374871045        1.27834995016071       -0.36890599918480
C            0.73152523552320        1.36490654700187       -1.61117205283402
C           -0.63577191308249        1.13998483402045       -1.69118043168604
C            1.73271660603013        1.68260307277577       -2.59058877238012
C            1.68965212900811        1.90713740026029       -3.96062666716535
C            2.86354957205818        2.21999385125042       -4.61661042922840
C            4.06666127407456        2.32277772673076       -3.92078412509920
C            4.13443600641660        2.10283492771632       -2.55801436604248
C            2.96201564300412        1.76551399772573       -1.89626155672759
N            2.74535261938219        1.52114504328483       -0.55337824728287
C            3.72148572064145        1.52486500069587        0.45299091990051
C            3.52894655922437        2.26810744082593        1.61490834522822
C            4.49893117761061        2.26486520365231        2.60089103104733
C            5.66291900855748        1.53439782769436        2.44338958650874
C            5.86332660132155        0.79647794286759        1.27949733552188
N            7.03844124522253        0.05139530471914        1.10699156433864
C            8.32595125376164        0.52632138487442        1.26531142400434
C            8.76493994529906        1.80773287553793        1.56799592934382
C           10.12822057773459        2.02330030150846        1.63926534868582
C           11.04057210079319        0.99569853577582        1.40780262078761
C           10.61014791719118       -0.27571169882115        1.08361652041268
C            9.24435452192789       -0.51717967580433        1.00584753765597
C            8.46242724441597       -1.67818063505989        0.68227921448631
C            8.78805866752381       -2.98953779553533        0.35932679753602
C            7.76529118465454       -3.88570317234518        0.11957280956204
C            6.43172391522406       -3.49196583535151        0.21165830476007
C            6.08303387219582       -2.19349037533038        0.53183410145947
C            7.10666108267924       -1.28238858711333        0.75156483677134
C            4.89018054794968        0.79076393019207        0.28668177366621
C           -3.38060193942500        0.34474474672669       -1.96970673263205
C           -3.12904366296753       -0.72166544696270       -2.80023220167667
C           -3.73490028935375       -0.79153585949437       -4.05733269012241
C           -3.41764719674629       -1.97671832939847       -4.95742428691008
C           -4.17498358996955       -1.93330465209756       -6.28815375781541
C           -1.91193431377088       -1.97653856225683       -5.26362433893521
C           -3.80102776556681       -3.27617304869777       -4.23299853582613
C           -4.59634000573004        0.23501967964158       -4.43268304287578
C           -4.86106715727564        1.31219070447786       -3.60021280251877
C           -4.25134590519102        1.37100982181801       -2.36019242197879
H           -4.43323402976843        6.61594775267907        1.53615581834627
H           -5.82214579807790        5.75715759826667        2.22793316175435
H           -4.61088861050748        6.47652825579885        3.28185900539915
H           -2.35167696640293        5.59345800354363        3.46340713025321
H           -1.85234807623514        4.12371411467844        2.62889830543762
H           -2.10692907123442        5.60748089072675        1.71365239875707
H           -4.36527932652954        4.33889014828286        4.44560800162533
H           -3.86373194307351        2.87486172255435        3.60264692990343
H           -5.48801461045073        3.51351179754838        3.36091906830859
H           -5.45015751718193        5.20362951522034        0.06380214464747
H           -5.65064857932799        3.89209267330046       -1.97512137866073
H           -2.75852850408143        2.30910572066550        1.71418720936716
H           -5.06436327672853        0.41817520380858        0.98062205389968
H           -7.27469376549439       -0.46644634034949        0.97791258389868
H           -9.36074770292887       -0.35880327620072        2.33417941979149
H           -9.34402056730186       -1.36243152338857        4.62421136950618
H           -5.43384339923479       -2.44644925350007        4.30562780010046
H           -4.47637382972870       -3.56367606386878        2.40584030653810
H           -3.79493771654487       -5.39842243164776        1.02570863023095
H           -2.33443743056145       -7.41089528713341        1.12609094281499
H            0.13981164893442       -7.07995276655829        1.27256344793023
H           -0.23234806669188       -3.02684737757774        1.29240576994845
H           -1.60126372312814       -1.77499673164098       -0.19684890530105
H           -1.20617939999049        0.43346079231496        1.56394657085210
H            1.20517147870547        0.83659495754360        1.73335477062522
H           -1.14172306670363        1.21730017875152       -2.64133385639531
H            0.75359597952619        1.84214230445712       -4.49523141273268
H            2.85314283711670        2.39661866521324       -5.68223023881538
H            4.96693386740725        2.58355362559590       -4.45800417486545
H            5.07022004809005        2.20206282209570       -2.02888586172490
H            2.62971695867881        2.85297823474375        1.73148227389124
H            4.34617201571396        2.83861872562222        3.50263289745507
H            6.41151327192018        1.51990396669063        3.22038305651600
H            8.06719918536522        2.61503008660631        1.73264554633850
H           10.49490521784163        3.01157748709004        1.87613388319577
H           12.09846940232019        1.20361000853519        1.47517965125300
H           11.31755778310418       -1.06807489252123        0.88922226096834
H            9.82123907604505       -3.29842553783832        0.30285250069883
H            7.99716712998561       -4.90964499058112       -0.13482523511129
H            5.65172275873678       -4.21796443166351        0.03387025749165
H            5.04592844603633       -1.90638407053516        0.61765333540789
H            5.04290758240508        0.21529035765683       -0.61353031944270
H           -2.45326972048525       -1.49796045969873       -2.47580641361752
H           -3.91352508690239       -2.80751223676103       -6.88136023615746
H           -5.25076002555708       -1.94619717512549       -6.12738781796252
H           -3.90964010103105       -1.04832645524211       -6.86225898850236
H           -1.66194289892994       -2.81124692951177       -5.91533006892071
H           -1.32126168105946       -2.06533274543927       -4.35561421497936
H           -1.62942503509554       -1.05210853666929       -5.76423795905866
H           -3.23963887878635       -3.39989103359408       -3.31069556527912
H           -4.86158928887817       -3.27166787258051       -3.98778173413143
H           -3.59786985139964       -4.13367512466565       -4.87135444429932
H           -5.08081835022738        0.21115064983800       -5.39528793932165
H           -5.53474811228654        2.09297603345291       -3.92262022881950

          :  Hamiltonian                  GFN2-xTB          :
         :: gradient norm              0.000041250104 Eh/a0 ::
         :: HOMO-LUMO gap              2.674068378490 eV    ::
         :: SCC energy              -186.241189470381 Eh    ::
         :: -> dispersion             -0.175702971243 Eh    ::
         :: -> Gsolv                  -0.074093272982 Eh    ::
         :: repulsion energy           3.344117529885 Eh    ::

    * Orbital Energies and Occupations

         #    Occupation            Energy/Eh            Energy/eV
      -------------------------------------------------------------
         1        2.0000           -0.6777124             -18.4415
       ...           ...                  ...                  ...
       159        2.0000           -0.4048262             -11.0159
       160        2.0000           -0.4046485             -11.0110
       161        2.0000           -0.3978699             -10.8266
       162        2.0000           -0.3972318             -10.8092
       163        2.0000           -0.3939667             -10.7204
       164        2.0000           -0.3916704             -10.6579
       165        2.0000           -0.3788875             -10.3101
       166        2.0000           -0.3781791             -10.2908
       167        2.0000           -0.3724315             -10.1344
       168        2.0000           -0.3712186             -10.1014
       169        2.0000           -0.3708581             -10.0916
       170        2.0000           -0.3633503              -9.8873
       171        2.0000           -0.3622377              -9.8570 (HOMO)
       172                         -0.2639675              -7.1829 (LUMO)
       173                         -0.2568121              -6.9882
       174                         -0.2490806              -6.7778
       175                         -0.2484034              -6.7594
       176                         -0.2480585              -6.7500
       177                         -0.2466223              -6.7109
       178                         -0.2459846              -6.6936
       179                         -0.2380246              -6.4770
       180                         -0.2374867              -6.4623
       181                         -0.2248577              -6.1187
       182                         -0.2236726              -6.0864
       ...                                ...                  ...
       338                          0.7446817              20.2638
      -------------------------------------------------------------
                  HL-Gap            0.0982702 Eh            2.6741 eV

     #   Z          covCN         q      C6AA      α(0)
     1   6 C        3.761    -0.107    22.584     6.775
     2   6 C        3.903     0.025    20.092     6.372
     3   6 C        3.761    -0.104    22.528     6.766
     4   6 C        3.761    -0.103    22.505     6.763
     5   6 C        2.974     0.005    27.902     8.665
     6   6 C        2.925    -0.045    29.108     8.848
     7   6 C        2.914    -0.039    28.973     8.826
     8   6 C        3.034    -0.005    28.125     8.699
     9   6 C        3.054    -0.001    27.996     8.677
    10   6 C        2.922    -0.041    29.022     8.834
    11   6 C        3.947     0.009    20.360     6.412
    12   6 C        2.977     0.020    27.556     8.611
    13   6 C        2.929    -0.041    29.011     8.833
    14   6 C        2.974     0.007    27.862     8.658
    15   6 C        2.973     0.002    27.975     8.676
    16   6 C        2.933    -0.015    28.398     8.739
    17   6 C        2.911    -0.039    28.979     8.827
    18   6 C        2.913     0.058    26.703     8.474
    19   7 N        1.835    -0.240    27.112     7.716
    20   6 C        2.917     0.057    26.729     8.478
    21   6 C        2.929    -0.042    29.055     8.840
    22   6 C        2.973     0.007    27.859     8.658
    23   6 C        2.973     0.002    27.984     8.677
    24   6 C        2.933    -0.016    28.416     8.742
    25   6 C        2.911    -0.040    28.982     8.828
    26   6 C        2.912     0.058    26.700     8.473
    27   7 N        1.835    -0.240    27.114     7.717
    28   6 C        2.917     0.057    26.718     8.476
    29   6 C        2.929    -0.039    28.970     8.827
    30   6 C        2.977     0.005    27.907     8.665
    31   6 C        2.928    -0.039    28.962     8.826
    32   6 C        2.909    -0.053    29.320     8.879
    33   6 C        3.076     0.045    26.909     8.505
    34   6 C        3.066    -0.018    28.399     8.738
    35   6 C        2.916    -0.040    28.999     8.831
    36   6 C        3.068    -0.018    28.378     8.735
    37   6 C        2.912    -0.034    28.844     8.807
    38   6 C        2.920    -0.042    29.044     8.838
    39   6 C        2.924    -0.035    28.861     8.810
    40   6 C        2.910    -0.052    29.282     8.873
    41   6 C        3.075     0.047    26.863     8.498
    42   7 N        2.802    -0.044    22.097     6.982
    43   6 C        2.912     0.067    26.509     8.443
    44   6 C        2.921    -0.047    29.173     8.857
    45   6 C        2.919    -0.027    28.670     8.781
    46   6 C        2.921    -0.047    29.166     8.856
    47   6 C        2.912     0.067    26.503     8.442
    48   7 N        2.802    -0.045    22.115     6.984
    49   6 C        3.074     0.047    26.870     8.499
    50   6 C        2.910    -0.052    29.297     8.875
    51   6 C        2.924    -0.035    28.871     8.811
    52   6 C        2.919    -0.042    29.056     8.839
    53   6 C        2.912    -0.035    28.863     8.810
    54   6 C        3.067    -0.018    28.391     8.737
    55   6 C        3.067    -0.018    28.395     8.738
    56   6 C        2.912    -0.035    28.864     8.810
    57   6 C        2.920    -0.042    29.045     8.838
    58   6 C        2.924    -0.034    28.855     8.809
    59   6 C        2.910    -0.051    29.277     8.872
    60   6 C        3.073     0.047    26.870     8.499
    61   6 C        2.926    -0.057    29.419     8.895
    62   6 C        3.056    -0.000    27.976     8.674
    63   6 C        2.922    -0.041    29.008     8.832
    64   6 C        2.974     0.005    27.899     8.664
    65   6 C        3.903     0.025    20.091     6.371
    66   6 C        3.761    -0.107    22.584     6.775
    67   6 C        3.761    -0.103    22.504     6.762
    68   6 C        3.761    -0.103    22.513     6.764
    69   6 C        2.925    -0.045    29.106     8.847
    70   6 C        2.914    -0.039    28.972     8.826
    71   6 C        3.034    -0.005    28.119     8.698
    72   1 H        0.925     0.036     2.503     2.474
    73   1 H        0.925     0.036     2.509     2.477
    74   1 H        0.925     0.038     2.481     2.463
    75   1 H        0.925     0.039     2.463     2.454
    76   1 H        0.925     0.036     2.501     2.473
    77   1 H        0.925     0.032     2.554     2.499
    78   1 H        0.925     0.039     2.466     2.456
    79   1 H        0.925     0.035     2.515     2.480
    80   1 H        0.925     0.031     2.579     2.512
    81   1 H        0.926     0.037     2.493     2.469
    82   1 H        0.926     0.027     2.628     2.535
    83   1 H        0.926     0.029     2.597     2.520
    84   1 H        0.926     0.037     2.486     2.466
    85   1 H        0.926     0.042     2.418     2.431
    86   1 H        0.926     0.042     2.421     2.433
    87   1 H        0.925     0.037     2.487     2.466
    88   1 H        0.925     0.037     2.494     2.470
    89   1 H        0.926     0.035     2.511     2.478
    90   1 H        0.926     0.043     2.412     2.429
    91   1 H        0.926     0.043     2.415     2.430
    92   1 H        0.925     0.037     2.488     2.467
    93   1 H        0.925     0.037     2.493     2.469
    94   1 H        0.926     0.035     2.514     2.480
    95   1 H        0.926     0.029     2.599     2.521
    96   1 H        0.926     0.032     2.561     2.502
    97   1 H        0.926     0.032     2.564     2.504
    98   1 H        0.926     0.031     2.579     2.511
    99   1 H        0.926     0.028     2.610     2.526
   100   1 H        0.926     0.030     2.580     2.512
   101   1 H        0.926     0.030     2.593     2.518
   102   1 H        0.926     0.048     2.341     2.393
   103   1 H        0.926     0.049     2.337     2.391
   104   1 H        0.926     0.048     2.343     2.394
   105   1 H        0.926     0.031     2.579     2.511
   106   1 H        0.926     0.030     2.581     2.512
   107   1 H        0.926     0.028     2.615     2.529
   108   1 H        0.926     0.030     2.580     2.512
   109   1 H        0.926     0.031     2.577     2.510
   110   1 H        0.926     0.028     2.610     2.526
   111   1 H        0.926     0.032     2.564     2.504
   112   1 H        0.926     0.030     2.589     2.516
   113   1 H        0.926     0.050     2.320     2.382
   114   1 H        0.926     0.028     2.618     2.530
   115   1 H        0.925     0.038     2.482     2.464
   116   1 H        0.925     0.036     2.506     2.476
   117   1 H        0.925     0.036     2.499     2.472
   118   1 H        0.925     0.038     2.472     2.459
   119   1 H        0.925     0.035     2.511     2.478
   120   1 H        0.925     0.032     2.554     2.499
   121   1 H        0.925     0.034     2.530     2.487
   122   1 H        0.925     0.032     2.561     2.502
   123   1 H        0.925     0.038     2.470     2.458
   124   1 H        0.926     0.037     2.489     2.467
   125   1 H        0.926     0.027     2.623     2.533

molecular dipole:
                 x           y           z       tot (Debye)
 q only:       -0.412       0.614      -0.125
   full:       -0.770       0.713      -0.437       2.891

 projected vibrational frequencies (cm⁻¹)
eigval :       -0.00     0.00     0.00     0.00     0.00     0.00
eigval :        4.85     9.86    10.65    16.05    17.39    20.22
eigval :       22.81    25.02    28.10    32.18    37.97    45.94
eigval :       49.94    50.66    52.49    55.87    65.65    67.96
eigval :       73.42    75.28    81.01    91.18    97.16   104.68
eigval :      113.17   118.86   127.78   143.33   144.45   146.51
eigval :      149.36   169.46   177.19   180.87   184.12   186.29
eigval :      199.46   210.13   216.40   218.28   221.26   228.20
eigval :      232.57   233.95   240.33   244.87   267.19   272.06
eigval :      273.77   277.18   278.50   286.39   296.57   305.71
eigval :      310.63   318.49   322.77   326.11   328.90   336.72
eigval :      340.31   351.12   353.97   363.01   364.66   367.20
eigval :      371.13   384.60   386.66   397.80   398.89   399.30
eigval :      415.39   422.35   424.96   428.76   434.31   436.73
eigval :      439.94   448.55   449.72   460.23   465.71   468.78
eigval :      478.41   513.37   519.48   522.23   527.98   535.63
eigval :      539.25   541.22   543.15   543.32   556.52   568.72
eigval :      584.13   585.24   588.02   594.34   596.32   603.58
eigval :      604.37   612.62   616.69   617.70   628.90   631.38
eigval :      636.18   640.49   646.42   670.28   674.99   676.24
eigval :      679.63   682.10   691.78   693.01   693.76   709.23
eigval :      709.68   712.03   721.05   730.26   747.62   750.00
eigval :      762.14   768.60   773.48   780.21   783.42   784.42
eigval :      789.31   801.45   819.50   820.10   828.51   831.13
eigval :      838.84   842.46   866.81   870.40   871.38   872.62
eigval :      881.27   884.76   886.80   888.52   892.85   893.57
eigval :      896.67   899.28   899.85   902.44   903.89   904.19
eigval :      905.22   908.13   908.69   909.37   910.02   913.07
eigval :      913.83   914.66   920.64   921.84   923.87   924.50
eigval :      928.68   931.23   931.67   956.07   959.17   959.26
eigval :      960.68   962.03   963.06   963.47   965.82   971.91
eigval :      996.78   999.91  1004.95  1008.66  1011.90  1015.69
eigval :     1017.54  1033.92  1034.78  1035.54  1036.41  1036.71
eigval :     1069.61  1071.41  1072.52  1093.15  1094.53  1102.88
eigval :     1113.57  1120.90  1122.15  1125.28  1125.81  1127.70
eigval :     1138.30  1138.89  1140.68  1151.45  1155.20  1169.00
eigval :     1176.79  1177.15  1177.63  1180.07  1180.56  1188.03
eigval :     1192.69  1195.06  1196.09  1198.95  1208.93  1212.55
eigval :     1224.28  1224.37  1231.52  1232.23  1234.47  1235.38
eigval :     1236.19  1242.52  1245.94  1250.08  1250.42  1253.99
eigval :     1256.86  1266.28  1268.42  1279.27  1279.98  1282.64
eigval :     1283.80  1287.25  1297.98  1298.22  1301.43  1309.22
eigval :     1315.75  1319.17  1327.69  1336.05  1344.40  1352.04
eigval :     1355.78  1358.45  1361.67  1372.15  1374.52  1385.84
eigval :     1397.33  1400.45  1401.49  1403.03  1403.45  1414.65
eigval :     1416.58  1421.02  1423.18  1425.43  1426.73  1427.48
eigval :     1428.03  1432.68  1435.27  1451.21  1458.45  1463.78
eigval :     1467.06  1471.01  1472.78  1476.11  1477.29  1485.77
eigval :     1486.64  1489.33  1489.37  1492.17  1492.30  1498.77
eigval :     1499.19  1502.68  1503.31  1511.30  1512.04  1516.97
eigval :     1517.27  1559.02  1559.57  1566.77  1568.77  1570.80
eigval :     1571.19  1575.20  1577.24  1579.32  1581.23  1582.85
eigval :     1585.34  1587.85  1593.45  1597.59  1599.12  1604.71
eigval :     1610.40  1612.95  1614.89  3018.44  3018.57  3019.13
eigval :     3019.18  3022.44  3022.68  3023.61  3023.68  3026.59
eigval :     3026.91  3030.04  3030.19  3035.30  3035.65  3041.32
eigval :     3042.82  3044.94  3046.45  3047.64  3050.70  3054.52
eigval :     3054.73  3070.68  3070.80  3071.29  3071.79  3071.88
eigval :     3071.91  3073.23  3074.80  3077.04  3077.15  3077.86
eigval :     3084.19  3084.56  3084.75  3085.40  3085.83  3086.12
eigval :     3088.52  3089.45  3090.42  3091.28  3091.44  3092.29
eigval :     3092.66  3093.25  3093.65  3095.18  3100.46  3102.92
eigval :     3105.69  3110.92  3112.10

   temp. (K)  partition function   enthalpy   heat capacity  entropy
                                   cal/mol     cal/K/mol   cal/K/mol   J/K/mol
 298.15  VIB  0.150E+30            36141.132    223.918    226.487
         ROT  0.260E+09              888.752      2.981     41.485
         INT  0.390E+38            37029.885    226.898    267.971
         TR   0.268E+29             1481.254      4.968     46.296
         TOT                       38511.1386   231.8666   314.2676  1314.8956

       T/K    H(0)-H(T)+PV         H(T)/Eh          T*S/Eh         G(T)/Eh
   ------------------------------------------------------------------------
    298.15    0.613714E-01    0.105808E+01    0.149319E+00    0.908758E+00
   ------------------------------------------------------------------------

         :::::::::::::::::::::::::::::::::::::::::::::::::::::
         ::                  THERMODYNAMIC                  ::
         :::::::::::::::::::::::::::::::::::::::::::::::::::::
         :: total free energy        -181.988314389002 Eh   ::
         ::.................................................::
         :: total energy             -182.897071941768 Eh   ::
         :: zero point energy           0.996704821318 Eh   ::
         :: G(RRHO) w/o ZPVE           -0.087947268552 Eh   ::
         :: G(RRHO) contrib.            0.908757552766 Eh   ::
         :::::::::::::::::::::::::::::::::::::::::::::::::::::

           -------------------------------------------------
          | TOTAL ENERGY             -182.897071941768 Eh   |
          | TOTAL ENTHALPY           -181.838995714705 Eh   |
          | TOTAL FREE ENERGY        -181.988314389002 Eh   |
          | GRADIENT NORM               0.000041254467 Eh/α |
          | HOMO-LUMO GAP               2.674068551347 eV   |
           -------------------------------------------------

 * finished run on 2025/08/24 at 20:56:15.310
