   * xtb version 6.7.1 (edcfbbe) compiled by 'albert@albert-system' on 2024-07-22

   ID    Z sym.   atoms
    1    6 C      1-18, 20-26, 28-41, 43-47, 49-71
    2    7 N      19, 27, 42, 48
    3    1 H      72-125

          program call               : xtb data2507/toluene/mCP-BmPy/mCP-BmPy_toluene_S0_finalOpt.xtbopt.xyz --gfn 2 --uhf 2 --gbsa toluene --ohess vtight --parallel 40 --molden --ceasefiles --namespace data2507/toluene/mCP-BmPy/mCP-BmPy_toluene_T1_preOpt
      * Solvation model:               GBSA
        Solvent                        toluene
        Solvent mass                       9.2140E+01 g/mol
          :  Hamiltonian                  GFN2-xTB          :
 * total energy  :  -182.7874546 Eh     change       -0.5755629E-07 Eh
 * total energy  :  -182.7888727 Eh     change       -0.1418101E-02 Eh
 * total energy  :  -182.7893944 Eh     change       -0.5216742E-03 Eh
 * total energy  :  -182.7895452 Eh     change       -0.1508374E-03 Eh
 * total energy  :  -182.7897331 Eh     change       -0.1879213E-03 Eh
 * total energy  :  -182.7898869 Eh     change       -0.1537882E-03 Eh
 * total energy  :  -182.7900510 Eh     change       -0.1640542E-03 Eh
 * total energy  :  -182.7902144 Eh     change       -0.1633869E-03 Eh
 * total energy  :  -182.7903441 Eh     change       -0.1297170E-03 Eh
 * total energy  :  -182.7904425 Eh     change       -0.9844340E-04 Eh
 * total energy  :  -182.7907513 Eh     change       -0.4947645E-06 Eh
 * total energy  :  -182.7907518 Eh     change       -0.5171137E-06 Eh
 * total energy  :  -182.7907523 Eh     change       -0.5463792E-06 Eh
 * total energy  :  -182.7907529 Eh     change       -0.5667314E-06 Eh
 * total energy  :  -182.7907534 Eh     change       -0.5202384E-06 Eh
 * total energy  :  -182.7907539 Eh     change       -0.4564140E-06 Eh
 * total energy  :  -182.7907541 Eh     change       -0.2786097E-06 Eh
 * total energy  :  -182.7907541 Eh     change        0.3713856E-07 Eh
 * total energy  :  -182.7907541 Eh     change       -0.3332934E-07 Eh
   *** GEOMETRY OPTIMIZATION CONVERGED AFTER 45 ITERATIONS ***

 final structure:
================
125
 xtb: 6.7.1 (edcfbbe)
C           -4.75901303185495        5.94796946398630        2.34121455220358
C           -3.94881152756877        4.64807769076451        2.33581566097275
C           -2.46935661432834        5.00766133146339        2.54086132792088
C           -4.43866284270069        3.77345835131927        3.50059725630209
C           -4.09574683192662        3.86436159504729        1.04035737736905
C           -4.91696795110178        4.27851330632466       -0.00587500405405
C           -5.04612795014352        3.54138100849510       -1.17222045222073
C           -4.34071188130073        2.35760119013183       -1.30344727970937
C           -3.51271690520609        1.92613694346340       -0.25553556921154
C           -3.38621677095295        2.66975869822879        0.89372658813549
C           -2.84290768997197        0.61061622828627       -0.60853799689938
C           -3.27546067713815       -0.54522277891978        0.27945412637223
C           -4.45225995608761       -0.47775899634787        0.99698217850158
C           -4.88758113520129       -1.58266104332734        1.78848337756579
C           -6.13800765278296       -1.52813456012158        2.49687278695460
C           -7.21255841979886       -0.68157218948388        2.11258724001370
C           -8.37002387681494       -0.64796773062776        2.85131388940818
C           -8.48766705236867       -1.47412927997397        3.96861185064858
N           -7.47536825093153       -2.24983509777082        4.35348661351111
C           -6.36428465336376       -2.27979321781236        3.67220838543205
C           -4.08021439054447       -2.71826442897157        1.82603408110859
C           -2.89492969024329       -2.80875701321385        1.10765390185159
C           -2.07421322122408       -3.99636251740682        1.17407112985222
C           -2.59847001933835       -5.28538678463104        1.42324645126676
C           -1.75828392697064       -6.37079639783876        1.51043675547933
C           -0.39015557269917       -6.18149334353219        1.32667891245539
N            0.11758943890636       -4.97240263095531        1.10814643987945
C           -0.67242267193551       -3.93223887463588        1.03628044517877
C           -2.49786433178432       -1.69310956641284        0.31918489955665
C           -1.34555683547056        0.82074140277880       -0.57293305880762
C           -0.67029941446893        0.71949159228836        0.65065155456979
C            0.68907513642933        0.94054568818013        0.75755192958065
C            1.38659180389458        1.27913988881046       -0.39430186537245
C            0.72294100246547        1.37122818829736       -1.64133259205342
C           -0.64480130260452        1.15547685159457       -1.72281952886500
C            1.73040115755399        1.68028735125032       -2.61781574896618
C            1.69616265076228        1.90259183224263       -3.98792869424398
C            2.87867087326591        2.20709928864560       -4.63832046674258
C            4.07867851988589        2.30330138709886       -3.93895114619595
C            4.13731123076327        2.08373940331944       -2.57261046007507
C            2.95925816945943        1.75491569816990       -1.91907994262450
N            2.73327784492776        1.51206442363184       -0.57588364813863
C            3.70414010968154        1.51477384028125        0.43359102401646
C            3.50645309828906        2.26187800946640        1.59459259018290
C            4.47349387332926        2.26216162091382        2.58289693458540
C            5.63752052255180        1.52969251103765        2.43261528219385
C            5.84116508557906        0.78536162828369        1.27110324989307
N            7.01258535380491        0.03389536235648        1.11024921038511
C            8.30092634634559        0.50098365498425        1.28427914255226
C            8.74363430744594        1.78046985555508        1.59082145199968
C           10.10798182002136        1.98765335522542        1.67797716953549
C           11.01565432095675        0.95397012946157        1.45778105104371
C           10.58123022638598       -0.31640728398251        1.12876245588074
C            9.21571435483401       -0.54895319212249        1.03558846411479
C            8.42926710793267       -1.70578955474754        0.70326817259399
C            8.74933673892822       -3.01875350744956        0.38520257775444
C            7.72153662688793       -3.90887796170923        0.13602925693288
C            6.38993171539144       -3.50711542201224        0.21480191565390
C            6.04674942559509       -2.20513492467101        0.52956994858806
C            7.07497359474410       -1.30078265686904        0.75731330151803
C            4.87345803943346        0.77915076939442        0.27327391989157
C           -3.39214945881157        0.36178508833056       -1.99929169383738
C           -3.14116815884217       -0.69744280792387       -2.83902435805499
C           -3.75927544651673       -0.76422790388684       -4.09049866487757
C           -3.44561002579801       -1.94266352702579       -4.99980676141211
C           -4.20637984579600       -1.88990590821747       -6.32827271377160
C           -1.94064278256806       -1.94243489871664       -5.31019222793666
C           -3.82829712411240       -3.24598741933452       -4.28197118147201
C           -4.63285681612847        0.25887573636517       -4.45200223304759
C           -4.89808346124386        1.32826898389100       -3.61140961305291
C           -4.27500615122141        1.38495985201383       -2.37657283722524
H           -4.44048573057424        6.61099496508324        1.53983420881076
H           -5.82328583051896        5.74795698358985        2.23881789865512
H           -4.60581100208406        6.46500007053363        3.28652089547716
H           -2.34930048590164        5.58473229586645        3.45547129714130
H           -1.85035523658386        4.11791618470491        2.61601644055071
H           -2.10874182300963        5.60437599876883        1.70503133783464
H           -4.35118230416417        4.31620235735834        4.43960016408910
H           -3.85991794117995        2.85705730495263        3.58106333996332
H           -5.48292962243741        3.50182542524245        3.35572191768245
H           -5.47633583994935        5.19621187795000        0.07582919088591
H           -5.68998714268088        3.89087668868631       -1.96636578280689
H           -2.74523705256872        2.31486569324468        1.68547011774433
H           -5.04532682689254        0.42187556993908        0.97611048076531
H           -7.13164621384586       -0.09296018750858        1.21118368492057
H           -9.19843289228375       -0.01911481916122        2.56054283409780
H           -9.38805261308565       -1.52733442318570        4.56128279189682
H           -5.57631778379004       -2.88982891113639        4.09460461382678
H           -4.39122691235503       -3.56077832999243        2.42606349853240
H           -3.66695678602839       -5.41888925897762        1.51125160467448
H           -2.14580588355926       -7.36242894252421        1.68993464001153
H            0.31379900149305       -7.00022322954840        1.34796253844750
H           -0.17513437591859       -2.98078829436999        0.90194416797740
H           -1.58365108393384       -1.74748821564184       -0.24994520757409
H           -1.22621680265399        0.43941534581035        1.53282800221145
H            1.18895909839351        0.83547894276388        1.70835510504486
H           -1.15202113380932        1.23525221384514       -2.67183982853411
H            0.76356570575115        1.84308671518649       -4.52831408088789
H            2.87309249022350        2.38205430556921       -5.70405832987525
H            4.98324498582568        2.55747988093715       -4.47106919158814
H            5.07056263226140        2.17828238905067       -2.03891531533832
H            2.60843854875859        2.84955099115208        1.70426712718922
H            4.31809744971898        2.83931398778520        3.48174270257017
H            6.38112914989592        1.51404098219539        3.21404360645030
H            8.04942437326756        2.59229972870964        1.74607882612391
H           10.47801865674848        2.97349761950984        1.91849002181305
H           12.07392411884114        1.15454714333543        1.53740829234442
H           11.28635662962512       -1.11252027294920        0.94308545101867
H            9.78034828570617       -3.33559576701487        0.33952129459424
H            7.94955862096614       -4.93446109490992       -0.11443158277823
H            5.60689275842367       -4.22810305635538        0.03143764799867
H            5.01078247993958       -1.91221870526474        0.60646859634251
H            5.02811988630878        0.19976113329388       -0.62396219126015
H           -2.46132096468052       -1.47310610711435       -2.52172032051217
H           -3.94375253854474       -2.75842223666156       -6.92919225548249
H           -5.28165141596348       -1.90812501272695       -6.16495127877786
H           -3.94537371326059       -0.99907304943741       -6.89526661235518
H           -1.69468939126314       -2.77297250772880       -5.96860865007240
H           -1.34833933301214       -2.04004133136471       -4.40429827188654
H           -1.65837142221026       -1.01479204876815       -5.80484911321135
H           -3.27061658774506       -3.37217756832671       -3.35771279707789
H           -4.88950623995265       -3.24500111854179       -4.03940772797234
H           -3.62144653435733       -4.10056815245316       -4.92307210975483
H           -5.12707903367531        0.23523164516589       -5.40957075828554
H           -5.58210855348346        2.10499661598581       -3.92133220996202

          :  Hamiltonian                  GFN2-xTB          :
         :: gradient norm              0.000096834942 Eh/a0 ::
         :: HOMO-LUMO gap              0.147508757436 eV    ::
         :: SCC energy              -186.118775395738 Eh    ::
         :: -> dispersion             -0.176070855711 Eh    ::
         :: -> Gsolv                  -0.075618558855 Eh    ::
         :: repulsion energy           3.328021242741 Eh    ::

    * Orbital Energies and Occupations

         #    Occupation            Energy/Eh            Energy/eV
      -------------------------------------------------------------
         1        2.0000           -0.6856383             -18.6572
       ...           ...                  ...                  ...
       160        2.0000           -0.4019651             -10.9380
       161        2.0000           -0.3981270             -10.8336
       162        2.0000           -0.3922304             -10.6731
       163        2.0000           -0.3850910             -10.4789
       164        2.0000           -0.3832081             -10.4276
       165        2.0000           -0.3820255             -10.3954
       166        1.9999           -0.3757992             -10.2260
       167        1.9949           -0.3716122             -10.1121
       168        1.9779           -0.3702042             -10.0738
       169        1.9205           -0.3689280             -10.0390
       170        1.7505           -0.3676481             -10.0042
       171        1.3562           -0.3660395              -9.9604
       172        0.9426           -0.2589544              -7.0465 (HOMO)
       173        0.0518           -0.2535332              -6.8990 (LUMO)
       174        0.0040           -0.2510596              -6.8317
       175        0.0014           -0.2500418              -6.8040
       176        0.0002           -0.2479460              -6.7470
       177        0.0000           -0.2436977              -6.6314
       178        0.0000           -0.2427114              -6.6045
       179                         -0.2377340              -6.4691
       180                         -0.2364470              -6.4340
       181                         -0.2296694              -6.2496
       182                         -0.2268698              -6.1734
       183                         -0.2206811              -6.0050
       ...                                ...                  ...
       338                          0.7394853              20.1224
      -------------------------------------------------------------
                  HL-Gap            0.0054212 Eh            0.1475 eV

     #   Z          covCN         q      C6AA      α(0)
     1   6 C        3.761    -0.107    22.592     6.776
     2   6 C        3.903     0.026    20.086     6.371
     3   6 C        3.761    -0.104    22.542     6.768
     4   6 C        3.761    -0.102    22.499     6.762
     5   6 C        2.974     0.007    27.852     8.657
     6   6 C        2.925    -0.044    29.083     8.844
     7   6 C        2.913    -0.039    28.959     8.824
     8   6 C        3.035    -0.003    28.076     8.691
     9   6 C        3.055     0.003    27.902     8.663
    10   6 C        2.921    -0.040    28.996     8.830
    11   6 C        3.948     0.010    20.347     6.410
    12   6 C        2.968     0.014    27.709     8.634
    13   6 C        2.923    -0.062    29.535     8.912
    14   6 C        2.967    -0.005    28.138     8.701
    15   6 C        2.968    -0.012    28.318     8.729
    16   6 C        2.928    -0.031    28.783     8.798
    17   6 C        2.908    -0.039    28.968     8.825
    18   6 C        2.896     0.029    27.345     8.574
    19   7 N        1.836    -0.206    26.311     7.601
    20   6 C        2.900     0.053    26.819     8.491
    21   6 C        2.926    -0.044    29.082     8.844
    22   6 C        2.967    -0.005    28.137     8.701
    23   6 C        2.969    -0.010    28.270     8.721
    24   6 C        2.929    -0.029    28.724     8.789
    25   6 C        2.908    -0.040    28.991     8.829
    26   6 C        2.900     0.035    27.214     8.553
    27   7 N        1.836    -0.215    26.509     7.630
    28   6 C        2.904     0.053    26.810     8.490
    29   6 C        2.924    -0.062    29.536     8.913
    30   6 C        2.979     0.015    27.680     8.630
    31   6 C        2.926    -0.037    28.926     8.820
    32   6 C        2.908    -0.049    29.222     8.864
    33   6 C        3.072     0.046    26.905     8.505
    34   6 C        3.064    -0.015    28.327     8.728
    35   6 C        2.915    -0.038    28.953     8.823
    36   6 C        3.066    -0.015    28.314     8.725
    37   6 C        2.912    -0.032    28.790     8.798
    38   6 C        2.919    -0.036    28.902     8.816
    39   6 C        2.923    -0.035    28.859     8.810
    40   6 C        2.909    -0.047    29.170     8.856
    41   6 C        3.071     0.046    26.902     8.504
    42   7 N        2.802    -0.025    21.729     6.923
    43   6 C        2.912     0.065    26.551     8.449
    44   6 C        2.921    -0.044    29.102     8.847
    45   6 C        2.919    -0.025    28.620     8.773
    46   6 C        2.921    -0.045    29.108     8.847
    47   6 C        2.912     0.066    26.512     8.443
    48   7 N        2.802    -0.034    21.892     6.949
    49   6 C        3.072     0.047    26.882     8.501
    50   6 C        2.909    -0.049    29.222     8.864
    51   6 C        2.923    -0.034    28.837     8.806
    52   6 C        2.920    -0.039    28.965     8.826
    53   6 C        2.912    -0.033    28.811     8.802
    54   6 C        3.066    -0.016    28.331     8.728
    55   6 C        3.066    -0.016    28.334     8.729
    56   6 C        2.912    -0.033    28.811     8.802
    57   6 C        2.920    -0.038    28.953     8.824
    58   6 C        2.923    -0.033    28.822     8.804
    59   6 C        2.909    -0.049    29.204     8.861
    60   6 C        3.071     0.047    26.883     8.501
    61   6 C        2.925    -0.056    29.389     8.890
    62   6 C        3.055     0.002    27.930     8.667
    63   6 C        2.921    -0.039    28.980     8.828
    64   6 C        2.974     0.007    27.850     8.656
    65   6 C        3.903     0.026    20.086     6.371
    66   6 C        3.761    -0.107    22.593     6.776
    67   6 C        3.761    -0.103    22.515     6.764
    68   6 C        3.761    -0.103    22.506     6.763
    69   6 C        2.925    -0.044    29.085     8.844
    70   6 C        2.913    -0.038    28.957     8.824
    71   6 C        3.034    -0.004    28.084     8.692
    72   1 H        0.925     0.037     2.491     2.468
    73   1 H        0.925     0.036     2.508     2.477
    74   1 H        0.925     0.038     2.470     2.458
    75   1 H        0.925     0.040     2.449     2.447
    76   1 H        0.925     0.037     2.491     2.468
    77   1 H        0.925     0.033     2.538     2.491
    78   1 H        0.925     0.039     2.459     2.452
    79   1 H        0.925     0.035     2.514     2.479
    80   1 H        0.925     0.030     2.580     2.512
    81   1 H        0.926     0.039     2.463     2.454
    82   1 H        0.926     0.029     2.599     2.521
    83   1 H        0.926     0.031     2.569     2.507
    84   1 H        0.926     0.019     2.749     2.593
    85   1 H        0.926     0.033     2.543     2.494
    86   1 H        0.926     0.034     2.532     2.488
    87   1 H        0.926     0.031     2.568     2.506
    88   1 H        0.925     0.036     2.500     2.473
    89   1 H        0.926     0.023     2.685     2.563
    90   1 H        0.926     0.033     2.545     2.495
    91   1 H        0.926     0.035     2.521     2.483
    92   1 H        0.926     0.032     2.565     2.504
    93   1 H        0.925     0.036     2.509     2.477
    94   1 H        0.926     0.017     2.785     2.610
    95   1 H        0.926     0.035     2.522     2.483
    96   1 H        0.926     0.038     2.482     2.463
    97   1 H        0.926     0.036     2.496     2.471
    98   1 H        0.926     0.036     2.507     2.476
    99   1 H        0.926     0.034     2.524     2.484
   100   1 H        0.926     0.036     2.504     2.475
   101   1 H        0.926     0.036     2.497     2.471
   102   1 H        0.926     0.053     2.288     2.366
   103   1 H        0.926     0.053     2.280     2.361
   104   1 H        0.926     0.053     2.286     2.364
   105   1 H        0.926     0.036     2.509     2.477
   106   1 H        0.926     0.034     2.524     2.484
   107   1 H        0.926     0.032     2.554     2.499
   108   1 H        0.926     0.035     2.520     2.483
   109   1 H        0.926     0.035     2.514     2.480
   110   1 H        0.926     0.032     2.551     2.498
   111   1 H        0.926     0.035     2.518     2.482
   112   1 H        0.926     0.034     2.531     2.488
   113   1 H        0.926     0.054     2.265     2.353
   114   1 H        0.926     0.030     2.593     2.518
   115   1 H        0.925     0.038     2.473     2.459
   116   1 H        0.925     0.036     2.506     2.476
   117   1 H        0.925     0.037     2.486     2.466
   118   1 H        0.925     0.039     2.460     2.453
   119   1 H        0.925     0.036     2.502     2.474
   120   1 H        0.925     0.034     2.536     2.490
   121   1 H        0.925     0.034     2.526     2.486
   122   1 H        0.925     0.031     2.569     2.507
   123   1 H        0.925     0.039     2.465     2.455
   124   1 H        0.926     0.039     2.463     2.454
   125   1 H        0.926     0.029     2.600     2.521

molecular dipole:
                 x           y           z       tot (Debye)
 q only:        2.830       2.025      -0.737
   full:        2.477       2.068      -0.842       8.476

 projected vibrational frequencies (cm⁻¹)
eigval :       -0.00    -0.00    -0.00     0.00     0.00     0.00
eigval :       -2.77     4.96     9.60    15.71    16.57    20.11
eigval :       20.37    22.34    24.29    28.01    31.42    37.80
eigval :       48.18    48.99    50.44    56.05    64.31    65.91
eigval :       73.62    76.77    80.14    90.17    96.97   104.64
eigval :      109.51   118.60   126.43   141.89   142.61   145.77
eigval :      148.27   166.70   174.83   180.46   182.21   183.97
eigval :      198.60   203.61   208.16   215.30   219.42   226.04
eigval :      230.34   231.83   238.64   243.04   259.47   263.29
eigval :      268.32   272.62   278.21   284.52   296.25   304.95
eigval :      308.69   317.33   320.94   323.71   328.35   333.27
eigval :      340.09   346.66   352.42   363.14   364.24   372.60
eigval :      378.44   384.00   386.97   393.66   396.79   399.56
eigval :      410.53   414.54   423.14   425.61   431.23   433.53
eigval :      435.98   439.60   447.92   449.39   457.95   462.71
eigval :      477.54   505.62   509.37   514.91   516.62   520.44
eigval :      530.29   534.06   538.26   539.98   543.80   544.48
eigval :      555.80   564.75   573.38   580.20   584.42   592.33
eigval :      594.15   600.53   610.22   616.48   617.73   623.11
eigval :      627.25   630.58   635.88   640.86   642.92   652.05
eigval :      667.63   674.83   675.62   679.40   685.68   699.49
eigval :      705.98   707.72   710.09   716.96   725.80   728.74
eigval :      741.88   746.98   755.73   760.30   768.10   769.57
eigval :      778.75   779.05   788.69   798.54   799.26   815.95
eigval :      817.38   818.14   820.90   824.42   829.15   837.76
eigval :      847.77   863.57   865.04   868.25   869.17   870.29
eigval :      873.82   882.34   885.74   888.60   889.97   891.04
eigval :      893.56   897.65   897.90   902.03   902.37   903.15
eigval :      905.51   908.29   908.97   910.89   912.94   914.42
eigval :      917.98   921.90   923.43   928.59   931.77   943.68
eigval :      959.20   959.31   960.67   961.76   963.26   963.80
eigval :      964.77   968.71   991.43   993.45  1006.66  1012.38
eigval :     1014.16  1030.16  1033.76  1034.74  1035.43  1036.41
eigval :     1065.82  1067.75  1068.73  1070.56  1073.43  1080.20
eigval :     1092.23  1110.17  1111.59  1117.14  1120.49  1124.15
eigval :     1125.42  1130.93  1135.80  1137.89  1144.26  1148.01
eigval :     1162.12  1164.06  1170.09  1173.58  1174.92  1176.78
eigval :     1177.55  1178.35  1185.52  1189.98  1192.12  1199.71
eigval :     1207.81  1212.57  1223.55  1223.67  1230.33  1230.90
eigval :     1231.74  1232.53  1234.16  1236.25  1243.40  1247.92
eigval :     1250.22  1252.88  1260.14  1265.23  1276.71  1281.73
eigval :     1284.71  1286.86  1288.43  1293.33  1293.60  1297.67
eigval :     1302.50  1314.30  1317.16  1327.25  1327.59  1331.71
eigval :     1339.08  1343.56  1349.63  1352.85  1355.78  1361.45
eigval :     1364.19  1365.49  1384.22  1386.20  1396.59  1400.96
eigval :     1402.60  1403.12  1404.99  1407.98  1415.07  1418.85
eigval :     1419.99  1426.32  1426.98  1428.56  1432.50  1433.23
eigval :     1440.14  1446.58  1447.02  1449.92  1457.55  1462.26
eigval :     1462.74  1466.85  1469.65  1476.36  1482.33  1488.96
eigval :     1489.32  1491.90  1492.01  1498.46  1498.63  1502.57
eigval :     1502.68  1509.34  1511.02  1511.72  1516.75  1517.23
eigval :     1523.41  1523.76  1542.85  1544.38  1565.18  1566.40
eigval :     1567.00  1571.91  1576.32  1579.22  1582.94  1586.66
eigval :     1586.72  1594.67  1604.38  3018.68  3019.04  3019.62
eigval :     3019.74  3022.77  3023.11  3023.79  3024.05  3026.79
eigval :     3027.06  3030.38  3030.42  3035.58  3035.68  3041.55
eigval :     3043.04  3043.41  3044.87  3047.04  3052.31  3066.53
eigval :     3069.40  3071.41  3071.72  3073.61  3075.13  3075.50
eigval :     3077.25  3077.41  3077.85  3080.87  3081.58  3083.01
eigval :     3083.21  3084.68  3085.86  3088.21  3088.84  3088.93
eigval :     3089.42  3089.88  3092.96  3094.10  3094.39  3094.96
eigval :     3095.29  3096.32  3097.82  3103.02  3104.40  3105.29
eigval :     3107.73  3111.46  3112.40

   temp. (K)  partition function   enthalpy   heat capacity  entropy
                                   cal/mol     cal/K/mol   cal/K/mol   J/K/mol
 298.15  VIB  0.269E+31            36686.848    226.991    230.949
         ROT  0.259E+09              888.752      2.981     41.481
         INT  0.697E+39            37575.601    229.971    272.430
         TR   0.268E+29             1481.254      4.968     46.296
         TOT                       39056.8545   234.9396   318.7263  1333.5507

       T/K    H(0)-H(T)+PV         H(T)/Eh          T*S/Eh         G(T)/Eh
   ------------------------------------------------------------------------
    298.15    0.622411E-01    0.105069E+01    0.151437E+00    0.899250E+00
   ------------------------------------------------------------------------

         :::::::::::::::::::::::::::::::::::::::::::::::::::::
         ::                  THERMODYNAMIC                  ::
         :::::::::::::::::::::::::::::::::::::::::::::::::::::
         :: total free energy        -181.891503862429 Eh   ::
         ::.................................................::
         :: total energy             -182.790754156636 Eh   ::
         :: zero point energy           0.988446369880 Eh   ::
         :: G(RRHO) w/o ZPVE           -0.089196075673 Eh   ::
         :: G(RRHO) contrib.            0.899250294207 Eh   ::
         :::::::::::::::::::::::::::::::::::::::::::::::::::::

           -------------------------------------------------
          | TOTAL ENERGY             -182.790754156636 Eh   |
          | TOTAL ENTHALPY           -181.740066727352 Eh   |
          | TOTAL FREE ENERGY        -181.891503862429 Eh   |
          | GRADIENT NORM               0.000098664388 Eh/α |
          | HOMO-LUMO GAP               0.147518593936 eV   |
           -------------------------------------------------

 * finished run on 2025/08/24 at 20:56:40.270
