   * xtb version 6.7.1 (edcfbbe) compiled by 'albert@albert-system' on 2024-07-22

   ID    Z sym.   atoms
    1    6 C      1-18, 20-26, 28-41, 43-47, 49-71
    2    7 N      19, 27, 42, 48
    3    1 H      72-125

          program call               : xtb data2507/toluene/mCP-BmPy/mCP-BmPy.xyz --gfn 2 --gbsa toluene --ohess vtight --parallel 40 --molden --ceasefiles --namespace data2507/toluene/mCP-BmPy/mCP-BmPy_toluene_S0_preOpt
      * Solvation model:               GBSA
        Solvent                        toluene
        Solvent mass                       9.2140E+01 g/mol
          :  Hamiltonian                  GFN2-xTB          :
 * total energy  :  -182.8622607 Eh     change       -0.4952284E-08 Eh
 * total energy  :  -182.8834728 Eh     change       -0.2121216E-01 Eh
 * total energy  :  -182.8903248 Eh     change       -0.6851989E-02 Eh
 * total energy  :  -182.8926359 Eh     change       -0.2311114E-02 Eh
 * total energy  :  -182.8938490 Eh     change       -0.1213054E-02 Eh
 * total energy  :  -182.8942656 Eh     change       -0.4165873E-03 Eh
 * total energy  :  -182.8945230 Eh     change       -0.2574602E-03 Eh
 * total energy  :  -182.8947504 Eh     change       -0.2274050E-03 Eh
 * total energy  :  -182.8949334 Eh     change       -0.1829955E-03 Eh
 * total energy  :  -182.8950791 Eh     change       -0.1456820E-03 Eh
 * total energy  :  -182.8960194 Eh     change       -0.6082442E-06 Eh
 * total energy  :  -182.8960198 Eh     change       -0.4506578E-06 Eh
 * total energy  :  -182.8960203 Eh     change       -0.4492023E-06 Eh
 * total energy  :  -182.8960209 Eh     change       -0.5976597E-06 Eh
 * total energy  :  -182.8960216 Eh     change       -0.7197640E-06 Eh
 * total energy  :  -182.8960222 Eh     change       -0.6680178E-06 Eh
 * total energy  :  -182.8960227 Eh     change       -0.4889618E-06 Eh
 * total energy  :  -182.8960230 Eh     change       -0.2915178E-06 Eh
 * total energy  :  -182.8960231 Eh     change       -0.6627326E-07 Eh
   *** GEOMETRY OPTIMIZATION CONVERGED AFTER 87 ITERATIONS ***

 final structure:
================
125
 xtb: 6.7.1 (edcfbbe)
C           -2.01674062194610        5.17474289342073        0.12801160547876
C           -2.06802997747013        5.05318841951424       -1.39832324793585
C           -3.37751936105373        5.69297053405309       -1.88428586271807
C           -0.86858205028155        5.81815908776511       -1.97775432861598
C           -2.01396254368106        3.60859997293658       -1.87395162458579
C           -2.04326745363417        3.33749072885220       -3.24257861681058
C           -1.99469069535096        2.04799019136013       -3.74148678667559
C           -1.92043730252231        0.98946086761399       -2.85152598391298
C           -1.89976041349701        1.24553102852019       -1.47562578381237
C           -1.93815707548476        2.53458247076907       -0.98933674531693
C           -1.82069655575717       -0.05045060473338       -0.68901258953330
C           -3.06945066102292       -0.32945579628137        0.12477803050899
C           -3.03222657760459       -1.26060500896237        1.15438795340683
C           -4.17970196368139       -1.57579749212055        1.87516410909790
C           -4.12136879904844       -2.55770162325973        2.96653792130613
C           -5.13161145249772       -3.49854660698520        3.16253031717790
C           -5.02562109076927       -4.39921740059204        4.20799344659337
C           -3.90706495159025       -4.33276805562546        5.02539910476749
N           -2.94130588422241       -3.44353848821177        4.85671776642590
C           -3.04878775069726       -2.58437178076964        3.86036447879568
C           -5.37875252689102       -0.94771383544096        1.55454166460399
C           -5.43468742940690       -0.02072190608691        0.51994398774053
C           -6.70005388258031        0.64300136470507        0.17849148332969
C           -7.07254341150705        0.87117492119991       -1.14600512157490
C           -8.27698189728851        1.49839708599460       -1.41266685375771
C           -9.07586551457093        1.87682858927334       -0.34373348730048
N           -8.73452517068187        1.67538453116244        0.91912614548109
C           -7.58288988895252        1.07992787099914        1.16790581289112
C           -4.27580409216087        0.27634014976091       -0.19259941196252
C           -0.57326837808396       -0.02113958632245        0.17203600699497
C            0.63361927898558       -0.54024419018365       -0.30299866778807
C            1.79638467381871       -0.49183406934330        0.44229940878982
C            1.74830946883428        0.10907029812700        1.69123258187414
C            0.53565693432644        0.63959705317310        2.18662305362334
C           -0.61870178604672        0.57918968693924        1.42083354681830
C            0.81445577479546        1.14104925972743        3.50340086135714
C            0.04318682989952        1.78032939232780        4.46555301391528
C            0.64353877631056        2.15809666152592        5.65021273353514
C            1.99790190944574        1.91855330146900        5.87455554358925
C            2.78500403926934        1.28318967619444        4.93271753940147
C            2.18198549298646        0.87989169492261        3.74962817637872
N            2.73540953268474        0.25847244036414        2.64618843094949
C            4.06229994754939       -0.18133826163571        2.53724259717148
C            4.61938111733090       -0.97238238427595        3.53903548991095
C            5.92956174536499       -1.40076120691203        3.42748881408180
C            6.69255384938225       -1.05438764126636        2.32708044070117
C            6.13632447168290       -0.27264134347994        1.31765021360612
N            6.90485381013283        0.08390293625524        0.19995523240429
C            7.08993412892769        1.36566218349567       -0.28161733947422
C            6.59858777645524        2.57147818994814        0.19873071076770
C            6.96659559069984        3.72821281799214       -0.46213207701858
C            7.81031220927691        3.69632486839152       -1.57070307920282
C            8.31992152877464        2.50193747450609       -2.04017425593865
C            7.96381764227957        1.32542713628458       -1.39292612526795
C            8.31374021073816       -0.05424369575430       -1.58806847485342
C            9.11273806966143       -0.71700141789443       -2.51130719435887
C            9.22400244733979       -2.09070240175657       -2.42525761332173
C            8.53941728061752       -2.80479402473763       -1.44366064388890
C            7.73853234380927       -2.16805469035327       -0.51463231902122
C            7.64276348022703       -0.78497853122934       -0.58050306976766
C            4.82091354425938        0.16470826140083        1.42466810727778
C           -1.78166463522564       -1.07545860958634       -1.80895592790660
C           -1.71836152277763       -2.44836396835099       -1.70445154102606
C           -1.71728976097640       -3.23327451606368       -2.85588560420584
C           -1.64279874171740       -4.75254716251938       -2.80618626940804
C           -2.89788628986738       -5.33801137671197       -3.47079495708848
C           -0.38878837226232       -5.22040069704162       -3.56026210286219
C           -1.56622590562071       -5.29343295477089       -1.37481349181187
C           -1.78919650628001       -2.59241811627508       -4.09342938574319
C           -1.86052379471404       -1.21566973855810       -4.20919787497458
C           -1.85796893212595       -0.44690639767630       -3.05729748888898
H           -2.86655691644513        4.67678323574327        0.59029373137702
H           -1.09572126509506        4.75293192259215        0.52486061281873
H           -2.05255229604186        6.22586738936102        0.40796191493324
H           -3.43896274754616        6.72441642124962       -1.54323288817984
H           -3.44297108116856        5.68904486593166       -2.96893342814437
H           -4.23292028230745        5.14792550882912       -1.48864224094849
H           -0.87788773587906        6.84850415651392       -1.62801632620130
H           -0.89027727075069        5.82827200090999       -3.06405589680090
H            0.06277959147200        5.35345643824866       -1.65930790561591
H           -2.10362428267313        4.15397475074825       -3.94669170961689
H           -2.01492931553025        1.87469617768592       -4.80776903005251
H           -1.91245308118182        2.69238823468949        0.07581560851410
H           -2.10257590523405       -1.75231413250396        1.39879718863713
H           -5.97823154598982       -3.53273352637751        2.49147815109708
H           -5.79003919476814       -5.14077563657376        4.38207186674073
H           -3.77165401247251       -5.01752103955427        5.85255506776593
H           -2.24173163708211       -1.86705704641286        3.77868567408680
H           -6.27347407705273       -1.18211941027701        2.11204505130078
H           -6.43249113253434        0.54360196805300       -1.95305634051804
H           -8.59367904052540        1.68418194613903       -2.42747888059896
H          -10.03092448317374        2.36253614057745       -0.49682013597511
H           -7.34261163736646        0.95768683734934        2.21677770376095
H           -4.31377504277238        1.00522477681166       -0.98808819215402
H            0.65814907377212       -1.00011123816372       -1.27981205251323
H            2.70904194865172       -0.92289705871494        0.05940340305721
H           -1.54440430243696        0.97796284238237        1.80847113575069
H           -1.00304268395686        1.97884928276436        4.28545023190648
H            0.06129758823568        2.65386673430698        6.41306024870219
H            2.44352746919468        2.23878114267626        6.80510512692110
H            3.83656253782202        1.11644441672856        5.11142054177785
H            4.01911737775981       -1.25614492570760        4.38973021215930
H            6.36120498953138       -2.01042963975918        4.20697499117913
H            7.72051254010462       -1.37319250890709        2.24926739980810
H            5.95820174806828        2.61121012312281        1.06704658139218
H            6.59415788786383        4.67874768796907       -0.10858778385915
H            8.07341016118099        4.62220191862051       -2.06103551217320
H            8.98611711127960        2.47869524239408       -2.88973105378361
H            9.63144531259268       -0.16567280262521       -3.28142346306316
H            9.84305570394672       -2.62445944910487       -3.13150576839032
H            8.63378122272706       -3.88055863034090       -1.41048740708557
H            7.19948008691862       -2.73207161334787        0.23166168033054
H            4.38893979828856        0.77281114962364        0.64444856904730
H           -1.66445318876633       -2.89653041129737       -0.72642506899045
H           -3.79207634427873       -4.99176504489078       -2.95558216080466
H           -2.96975879185189       -5.04233927303899       -4.51392593393893
H           -2.87253004884845       -6.42492686404618       -3.42607456598571
H           -0.31086067759548       -6.30494526251490       -3.51948298355910
H            0.50425894789899       -4.79311227180756       -3.10782607657826
H           -0.41792942854160       -4.92109263744529       -4.60439290362466
H           -1.51400316428629       -6.38020528396626       -1.40158087581874
H           -0.67790284823826       -4.92784697197042       -0.86418323715180
H           -2.44769764858659       -5.01425771957952       -0.80119072328518
H           -1.79136444804042       -3.18036178164737       -4.99916589732091
H           -1.91691082258917       -0.75260759059680       -5.18375863267437

          :  Hamiltonian                  GFN2-xTB          :
         :: gradient norm              0.000130898176 Eh/a0 ::
         :: HOMO-LUMO gap              2.676787851091 eV    ::
         :: SCC energy              -186.239554011590 Eh    ::
         :: -> dispersion             -0.174655634489 Eh    ::
         :: -> Gsolv                  -0.074127033938 Eh    ::
         :: repulsion energy           3.343530923334 Eh    ::

    * Orbital Energies and Occupations

         #    Occupation            Energy/Eh            Energy/eV
      -------------------------------------------------------------
         1        2.0000           -0.6777936             -18.4437
       ...           ...                  ...                  ...
       159        2.0000           -0.4058649             -11.0441
       160        2.0000           -0.4050873             -11.0230
       161        2.0000           -0.3981979             -10.8355
       162        2.0000           -0.3966778             -10.7942
       163        2.0000           -0.3940782             -10.7234
       164        2.0000           -0.3906449             -10.6300
       165        2.0000           -0.3792735             -10.3206
       166        2.0000           -0.3791114             -10.3161
       167        2.0000           -0.3721008             -10.1254
       168        2.0000           -0.3706417             -10.0857
       169        2.0000           -0.3701964             -10.0736
       170        2.0000           -0.3642972              -9.9130
       171        2.0000           -0.3620117              -9.8508 (HOMO)
       172                         -0.2636416              -7.1741 (LUMO)
       173                         -0.2564796              -6.9792
       174                         -0.2488172              -6.7707
       175                         -0.2484933              -6.7618
       176                         -0.2478779              -6.7451
       177                         -0.2468782              -6.7179
       178                         -0.2456923              -6.6856
       179                         -0.2387288              -6.4961
       180                         -0.2380160              -6.4767
       181                         -0.2251885              -6.1277
       182                         -0.2234968              -6.0817
       ...                                ...                  ...
       338                          0.7436471              20.2357
      -------------------------------------------------------------
                  HL-Gap            0.0983701 Eh            2.6768 eV

     #   Z          covCN         q      C6AA      α(0)
     1   6 C        3.761    -0.105    22.555     6.770
     2   6 C        3.902     0.025    20.095     6.372
     3   6 C        3.761    -0.104    22.526     6.766
     4   6 C        3.761    -0.104    22.537     6.767
     5   6 C        2.974     0.005    27.899     8.664
     6   6 C        2.928    -0.040    29.001     8.832
     7   6 C        2.913    -0.039    28.972     8.826
     8   6 C        3.035    -0.006    28.129     8.699
     9   6 C        3.055    -0.001    27.999     8.678
    10   6 C        2.919    -0.045    29.124     8.850
    11   6 C        3.948     0.009    20.364     6.412
    12   6 C        2.977     0.021    27.544     8.609
    13   6 C        2.929    -0.039    28.969     8.827
    14   6 C        2.974     0.007    27.856     8.657
    15   6 C        2.973     0.002    27.980     8.677
    16   6 C        2.933    -0.016    28.419     8.743
    17   6 C        2.911    -0.040    28.985     8.828
    18   6 C        2.912     0.058    26.701     8.473
    19   7 N        1.835    -0.239    27.103     7.715
    20   6 C        2.917     0.057    26.711     8.475
    21   6 C        2.929    -0.043    29.058     8.840
    22   6 C        2.974     0.007    27.871     8.660
    23   6 C        2.973     0.002    27.981     8.677
    24   6 C        2.933    -0.016    28.401     8.740
    25   6 C        2.911    -0.039    28.980     8.827
    26   6 C        2.912     0.058    26.704     8.474
    27   7 N        1.835    -0.240    27.120     7.717
    28   6 C        2.917     0.057    26.732     8.478
    29   6 C        2.929    -0.041    29.011     8.833
    30   6 C        2.977     0.005    27.899     8.664
    31   6 C        2.927    -0.040    28.986     8.829
    32   6 C        2.909    -0.052    29.303     8.876
    33   6 C        3.073     0.045    26.912     8.506
    34   6 C        3.067    -0.019    28.407     8.740
    35   6 C        2.917    -0.039    28.976     8.827
    36   6 C        3.067    -0.018    28.383     8.736
    37   6 C        2.912    -0.034    28.843     8.807
    38   6 C        2.920    -0.042    29.037     8.837
    39   6 C        2.924    -0.034    28.852     8.809
    40   6 C        2.910    -0.052    29.284     8.873
    41   6 C        3.075     0.047    26.859     8.497
    42   7 N        2.802    -0.045    22.108     6.983
    43   6 C        2.912     0.067    26.507     8.442
    44   6 C        2.921    -0.047    29.163     8.856
    45   6 C        2.919    -0.027    28.667     8.780
    46   6 C        2.921    -0.047    29.165     8.856
    47   6 C        2.912     0.067    26.508     8.443
    48   7 N        2.802    -0.046    22.119     6.985
    49   6 C        3.073     0.047    26.866     8.498
    50   6 C        2.909    -0.052    29.288     8.874
    51   6 C        2.924    -0.035    28.865     8.811
    52   6 C        2.919    -0.042    29.051     8.839
    53   6 C        2.912    -0.035    28.863     8.810
    54   6 C        3.067    -0.018    28.392     8.737
    55   6 C        3.067    -0.018    28.393     8.737
    56   6 C        2.912    -0.035    28.862     8.809
    57   6 C        2.920    -0.042    29.052     8.839
    58   6 C        2.924    -0.035    28.867     8.811
    59   6 C        2.910    -0.052    29.292     8.875
    60   6 C        3.074     0.047    26.867     8.499
    61   6 C        2.925    -0.057    29.417     8.894
    62   6 C        3.057    -0.000    27.983     8.675
    63   6 C        2.919    -0.045    29.123     8.850
    64   6 C        2.974     0.005    27.902     8.664
    65   6 C        3.902     0.025    20.093     6.372
    66   6 C        3.761    -0.104    22.536     6.767
    67   6 C        3.761    -0.104    22.537     6.767
    68   6 C        3.761    -0.105    22.551     6.770
    69   6 C        2.928    -0.040    29.000     8.831
    70   6 C        2.913    -0.039    28.971     8.826
    71   6 C        3.036    -0.005    28.124     8.699
    72   1 H        0.925     0.034     2.526     2.486
    73   1 H        0.925     0.036     2.509     2.477
    74   1 H        0.925     0.037     2.487     2.466
    75   1 H        0.925     0.039     2.465     2.455
    76   1 H        0.925     0.037     2.494     2.470
    77   1 H        0.925     0.031     2.572     2.508
    78   1 H        0.925     0.039     2.465     2.455
    79   1 H        0.925     0.037     2.494     2.470
    80   1 H        0.925     0.032     2.554     2.499
    81   1 H        0.926     0.029     2.594     2.518
    82   1 H        0.926     0.027     2.632     2.537
    83   1 H        0.926     0.036     2.496     2.471
    84   1 H        0.926     0.037     2.489     2.467
    85   1 H        0.926     0.042     2.421     2.433
    86   1 H        0.926     0.042     2.418     2.432
    87   1 H        0.925     0.037     2.488     2.466
    88   1 H        0.925     0.038     2.480     2.463
    89   1 H        0.926     0.035     2.513     2.479
    90   1 H        0.926     0.042     2.418     2.432
    91   1 H        0.926     0.042     2.418     2.432
    92   1 H        0.925     0.037     2.487     2.466
    93   1 H        0.925     0.037     2.494     2.470
    94   1 H        0.926     0.036     2.498     2.471
    95   1 H        0.926     0.031     2.578     2.511
    96   1 H        0.926     0.029     2.594     2.518
    97   1 H        0.926     0.030     2.580     2.512
    98   1 H        0.926     0.030     2.587     2.515
    99   1 H        0.926     0.029     2.606     2.524
   100   1 H        0.926     0.031     2.571     2.507
   101   1 H        0.926     0.031     2.574     2.509
   102   1 H        0.926     0.049     2.334     2.389
   103   1 H        0.926     0.049     2.334     2.389
   104   1 H        0.926     0.048     2.344     2.394
   105   1 H        0.926     0.029     2.599     2.521
   106   1 H        0.926     0.030     2.583     2.513
   107   1 H        0.926     0.028     2.610     2.526
   108   1 H        0.926     0.031     2.574     2.509
   109   1 H        0.926     0.031     2.578     2.511
   110   1 H        0.926     0.028     2.611     2.527
   111   1 H        0.926     0.031     2.576     2.510
   112   1 H        0.926     0.031     2.576     2.510
   113   1 H        0.926     0.049     2.327     2.385
   114   1 H        0.926     0.035     2.509     2.477
   115   1 H        0.925     0.032     2.563     2.504
   116   1 H        0.925     0.037     2.491     2.468
   117   1 H        0.925     0.039     2.464     2.455
   118   1 H        0.925     0.039     2.464     2.455
   119   1 H        0.925     0.033     2.551     2.498
   120   1 H        0.925     0.037     2.492     2.469
   121   1 H        0.925     0.037     2.486     2.465
   122   1 H        0.925     0.035     2.515     2.480
   123   1 H        0.925     0.033     2.539     2.492
   124   1 H        0.926     0.030     2.589     2.516
   125   1 H        0.926     0.027     2.628     2.535

molecular dipole:
                 x           y           z       tot (Debye)
 q only:        0.408      -0.476      -0.255
   full:        0.342      -0.613      -0.733       2.578

 projected vibrational frequencies (cm⁻¹)
eigval :       -0.00     0.00     0.00     0.00     0.00     0.00
eigval :        6.70    10.20    10.87    13.81    16.22    19.15
eigval :       21.01    23.53    25.60    26.88    33.38    43.66
eigval :       46.12    48.42    50.12    58.44    60.41    68.93
eigval :       73.04    76.28    77.35    84.27   100.06   103.95
eigval :      114.87   116.39   126.85   140.97   142.64   152.46
eigval :      159.99   170.74   180.02   187.07   190.01   191.87
eigval :      201.95   206.92   215.18   220.32   221.18   228.86
eigval :      229.66   233.57   238.09   253.14   265.56   268.69
eigval :      271.30   272.65   276.66   280.89   287.78   304.14
eigval :      307.74   320.09   323.33   328.27   332.86   342.63
eigval :      345.11   348.03   352.94   364.06   364.86   370.57
eigval :      371.93   384.56   386.70   395.44   397.44   398.88
eigval :      417.54   421.31   423.49   429.56   434.42   436.96
eigval :      441.07   441.37   448.71   461.28   465.32   468.71
eigval :      482.43   513.26   519.36   524.91   530.57   533.96
eigval :      536.28   541.02   541.98   543.83   555.82   571.66
eigval :      582.31   585.32   588.24   590.51   596.96   604.34
eigval :      604.53   611.03   615.31   616.75   630.94   633.95
eigval :      634.89   639.99   648.62   671.77   675.37   675.88
eigval :      677.93   683.03   691.20   692.12   695.31   707.55
eigval :      708.02   711.25   721.24   730.77   748.34   754.70
eigval :      761.53   767.91   775.52   779.38   779.70   785.07
eigval :      790.45   806.77   817.53   820.43   823.78   833.88
eigval :      838.80   843.00   867.49   869.30   870.93   871.97
eigval :      877.46   879.82   887.38   890.42   892.63   894.58
eigval :      896.88   900.12   900.95   902.39   902.59   903.53
eigval :      905.89   909.56   910.26   912.83   913.01   915.15
eigval :      916.76   918.97   919.32   921.57   924.35   926.21
eigval :      929.90   931.52   934.20   954.14   959.42   959.63
eigval :      959.80   961.75   962.82   963.23   968.46   976.16
eigval :      996.78   999.35  1004.70  1008.43  1011.35  1014.98
eigval :     1018.03  1033.59  1034.51  1035.37  1035.56  1036.95
eigval :     1069.43  1070.37  1073.07  1093.01  1094.14  1103.44
eigval :     1111.76  1118.94  1123.81  1125.30  1126.55  1129.81
eigval :     1137.35  1138.20  1139.64  1151.18  1154.47  1167.59
eigval :     1174.89  1176.13  1177.31  1180.08  1180.52  1186.10
eigval :     1191.73  1195.20  1195.69  1199.17  1208.84  1212.46
eigval :     1224.94  1225.01  1229.41  1230.12  1233.71  1236.05
eigval :     1239.54  1243.61  1247.45  1248.96  1251.36  1253.94
eigval :     1258.74  1267.41  1269.53  1278.92  1279.73  1280.48
eigval :     1284.35  1292.18  1298.72  1300.54  1305.61  1308.64
eigval :     1315.57  1318.62  1322.26  1335.67  1342.92  1352.29
eigval :     1355.84  1358.12  1361.38  1365.29  1374.91  1385.82
eigval :     1397.74  1401.36  1402.13  1402.98  1403.20  1414.78
eigval :     1417.32  1420.54  1423.43  1424.29  1427.25  1427.44
eigval :     1427.53  1433.43  1436.08  1454.21  1459.38  1463.80
eigval :     1467.30  1470.50  1474.07  1476.59  1481.17  1484.25
eigval :     1486.61  1489.29  1489.63  1491.67  1491.99  1498.93
eigval :     1499.64  1502.55  1502.94  1511.79  1511.97  1518.39
eigval :     1518.52  1559.20  1559.69  1567.34  1568.74  1570.54
eigval :     1571.14  1574.91  1575.66  1579.16  1581.90  1582.75
eigval :     1585.67  1587.65  1588.72  1597.36  1598.43  1601.95
eigval :     1607.36  1612.72  1615.13  3018.15  3018.50  3019.02
eigval :     3020.05  3022.25  3022.27  3023.67  3024.59  3026.70
eigval :     3027.05  3028.53  3028.61  3034.22  3034.30  3043.44
eigval :     3043.60  3046.61  3046.75  3048.14  3051.06  3055.04
eigval :     3055.68  3069.26  3069.48  3070.24  3071.25  3071.30
eigval :     3071.63  3072.06  3076.47  3076.68  3077.25  3078.94
eigval :     3082.34  3083.85  3084.09  3084.13  3084.80  3085.26
eigval :     3085.30  3085.43  3089.84  3090.09  3090.84  3091.12
eigval :     3091.84  3092.98  3093.33  3093.76  3098.40  3099.75
eigval :     3103.94  3118.26  3119.94

   temp. (K)  partition function   enthalpy   heat capacity  entropy
                                   cal/mol     cal/K/mol   cal/K/mol   J/K/mol
 298.15  VIB  0.275E+30            36168.736    223.409    226.560
         ROT  0.243E+09              888.752      2.981     41.348
         INT  0.667E+38            37057.489    226.390    267.909
         TR   0.268E+29             1481.254      4.968     46.296
         TOT                       38538.7426   231.3581   314.2049  1314.6334

       T/K    H(0)-H(T)+PV         H(T)/Eh          T*S/Eh         G(T)/Eh
   ------------------------------------------------------------------------
    298.15    0.614154E-01    0.105807E+01    0.149289E+00    0.908780E+00
   ------------------------------------------------------------------------

         :::::::::::::::::::::::::::::::::::::::::::::::::::::
         ::                  THERMODYNAMIC                  ::
         :::::::::::::::::::::::::::::::::::::::::::::::::::::
         :: total free energy        -181.987242726882 Eh   ::
         ::.................................................::
         :: total energy             -182.896023090568 Eh   ::
         :: zero point energy           0.996653861451 Eh   ::
         :: G(RRHO) w/o ZPVE           -0.087873497765 Eh   ::
         :: G(RRHO) contrib.            0.908780363685 Eh   ::
         :::::::::::::::::::::::::::::::::::::::::::::::::::::

           -------------------------------------------------
          | TOTAL ENERGY             -182.896023090568 Eh   |
          | TOTAL ENTHALPY           -181.837953833465 Eh   |
          | TOTAL FREE ENERGY        -181.987242726882 Eh   |
          | GRADIENT NORM               0.000130896358 Eh/α |
          | HOMO-LUMO GAP               2.676787265247 eV   |
           -------------------------------------------------

 * finished run on 2025/08/24 at 20:32:49.978
