   * xtb version 6.7.1 (edcfbbe) compiled by 'albert@albert-system' on 2024-07-22

   ID    Z sym.   atoms
    1    6 C      1-18, 20-26, 28-41, 43-47, 49-71
    2    7 N      19, 27, 42, 48
    3    1 H      72-125

          program call               : xtb data2507/toluene/mCP-BmPy/mCP-BmPy_toluene_T1_crest.xyz --gfn 2 --uhf 2 --gbsa toluene --ohess vtight --parallel 40 --molden --ceasefiles --namespace data2507/toluene/mCP-BmPy/mCP-BmPy_toluene_T1_finalOpt
      * Solvation model:               GBSA
        Solvent                        toluene
        Solvent mass                       9.2140E+01 g/mol
          :  Hamiltonian                  GFN2-xTB          :
 * total energy  :  -182.7901973 Eh     change       -0.5585494E-07 Eh
 * total energy  :  -182.7903188 Eh     change       -0.1214886E-03 Eh
 * total energy  :  -182.7904141 Eh     change       -0.9536888E-04 Eh
 * total energy  :  -182.7904706 Eh     change       -0.5647670E-04 Eh
 * total energy  :  -182.7905245 Eh     change       -0.5391367E-04 Eh
 * total energy  :  -182.7906049 Eh     change       -0.8041800E-04 Eh
 * total energy  :  -182.7906540 Eh     change       -0.4908994E-04 Eh
 * total energy  :  -182.7906882 Eh     change       -0.3421310E-04 Eh
 * total energy  :  -182.7907219 Eh     change       -0.3364991E-04 Eh
 * total energy  :  -182.7907532 Eh     change       -0.3126900E-04 Eh
 * total energy  :  -182.7911578 Eh     change       -0.9593529E-06 Eh
 * total energy  :  -182.7911589 Eh     change       -0.1053086E-05 Eh
 * total energy  :  -182.7911597 Eh     change       -0.8087005E-06 Eh
 * total energy  :  -182.7911598 Eh     change       -0.1541867E-06 Eh
 * total energy  :  -182.7911604 Eh     change       -0.5372724E-06 Eh
 * total energy  :  -182.7911605 Eh     change       -0.1470973E-06 Eh
 * total energy  :  -182.7911601 Eh     change        0.4564167E-06 Eh
 * total energy  :  -182.7911609 Eh     change       -0.8329084E-06 Eh
 * total energy  :  -182.7911610 Eh     change       -0.9137244E-07 Eh
   *** GEOMETRY OPTIMIZATION CONVERGED AFTER 73 ITERATIONS ***

 final structure:
================
125
 xtb: 6.7.1 (edcfbbe)
C           -3.56914645449130       -0.23562481486300        5.27966223811812
C           -4.73547980841801       -0.82851895582616        4.47421617583087
C           -4.48407777985665       -2.32246993638065        4.21898400989888
C           -6.00887438252641       -0.69845412274930        5.31572859664755
C           -4.83087291211702       -0.10261115853694        3.14000739426735
C           -5.96761516305742        0.59374412416646        2.73881521489088
C           -6.02961017708394        1.25654251142019        1.52286354197252
C           -4.93123805739966        1.22728945722276        0.68231963139390
C           -3.78126384986734        0.52224935566076        1.06852630239436
C           -3.73050767926773       -0.12900748825415        2.27870825979135
C           -2.70826085840946        0.62622166100814        0.00196818954053
C           -2.33349538290698       -0.70644748479665       -0.62817201793206
C           -3.16556573242124       -1.79515982380502       -0.58105099836264
C           -2.75891647634643       -3.05764542301889       -1.12482802957727
C           -3.60146181404052       -4.20353911455415       -1.04629389844230
C           -4.72957884128934       -4.30725414605933       -0.17499740249285
C           -5.52819621383174       -5.41883215366913       -0.18914990470260
C           -5.21028885826776       -6.48007608244564       -1.04484148238419
N           -4.19512018117814       -6.37299772439353       -1.90064731786546
C           -3.44040756946964       -5.31578194474692       -1.92152274174891
C           -1.46298652896506       -3.13810882326393       -1.67706326682339
C           -0.62078220619379       -2.04800324200161       -1.73899395753082
C            0.75071104859589       -2.15962518816222       -2.21439514778058
C            1.15838028598430       -3.07573310584705       -3.19666868608856
C            2.48366179987826       -3.12217089806274       -3.57884803595078
C            3.38470930396959       -2.24740733501406       -2.98464598525266
N            3.01992492765562       -1.38010198429247       -2.04797627529807
C            1.75940938984229       -1.34415019071632       -1.67837234440240
C           -1.09204734729008       -0.79767883073132       -1.26397571154615
C           -1.45409711902582        1.25009032944883        0.58054269290857
C           -0.54288790580847        0.41308042192493        1.24375330123449
C            0.69496483138228        0.86393203844499        1.65305671478406
C            1.02578214573572        2.18461069249278        1.38569007720336
C            0.07255383435098        3.07308237021419        0.83492822119185
C           -1.16977382201655        2.59809958175933        0.43054486297476
C            0.70989941551596        4.35923470812620        0.77583489167341
C            0.29476961535191        5.60983351234966        0.33760207728278
C            1.19086245113997        6.66239745527848        0.39430387253029
C            2.48838195851694        6.47579013527256        0.86190867310458
C            2.92646514466571        5.23646487945222        1.30051123710247
C            2.02479898076285        4.18453442099969        1.27299326037722
N            2.19984298492995        2.85947410918822        1.63649842893451
C            3.40553719641388        2.25055524635770        2.00923798039410
C            4.18641522932533        2.77943246515137        3.03509389196734
C            5.38127059317688        2.16767544245705        3.37093597687320
C            5.80534925959022        1.03013825466951        2.70689918843706
C            5.02602749995539        0.49706868537914        1.68074332103634
N            5.44893057937548       -0.64590506683290        0.98856965350545
C            6.68140549440135       -0.80907866948130        0.38656643845156
C            7.75354933496400        0.06957337954670        0.31430036948572
C            8.88098258583184       -0.34247266336574       -0.37223160562940
C            8.94332575439368       -1.59281519224684       -0.98268630561543
C            7.86885696864295       -2.46207407278390       -0.93511648477147
C            6.72654200147662       -2.07084785628546       -0.25113999254831
C            5.45087473955958       -2.69195722142923       -0.01783824666778
C            4.90507498755027       -3.91628013110784       -0.37477571715812
C            3.62129034200061       -4.21644546798171        0.04060487293371
C            2.89227754490716       -3.32040466194906        0.81763481582954
C            3.41736329073129       -2.09652699768675        1.18549967741412
C            4.69265355856578       -1.77500273814113        0.74556249328347
C            3.82955388760107        1.11082535683672        1.33157457410343
C           -3.39823458116469        1.48952367555751       -1.03454301012027
C           -2.91202871703107        1.92540190449473       -2.24481794766139
C           -3.70777571457083        2.71540508238886       -3.07858793076362
C           -3.13185486567269        3.19092638041824       -4.40420310927382
C           -4.11590839160205        4.04459132521804       -5.21006214322309
C           -1.88003294932129        4.03831461384569       -4.12842250614237
C           -2.75558423690574        1.96693982976485       -5.25299606925961
C           -4.99432193193330        3.03649578912568       -2.65425116393295
C           -5.49733902980840        2.59655704657429       -1.43956232253885
C           -4.69757105853720        1.81803458165529       -0.62204581180239
H           -2.62227490787459       -0.36431833628635        4.76246718575821
H           -3.72683603827050        0.82922257355223        5.44066800010543
H           -3.49757652327978       -0.72515193771833        6.24878854563783
H           -4.39637049967755       -2.85403604457333        5.16438703278271
H           -5.31227249451505       -2.75321394710380        3.65924091819373
H           -3.57016407083499       -2.48255149821829        3.65311933258422
H           -5.87782895316646       -1.23463851530280        6.25372452058221
H           -6.86555467052411       -1.12868594229586        4.80149648736896
H           -6.21850357149392        0.34266168805450        5.55069499359296
H           -6.83410061703324        0.63220489724108        3.37872319379303
H           -6.92605671727349        1.78990196580775        1.24142422134007
H           -2.83702453192235       -0.66627578420188        2.55556425386051
H           -4.13477066994149       -1.70449425053727       -0.11804234711538
H           -4.92738984814739       -3.51727128122815        0.53241071520040
H           -6.36849840022998       -5.51115641363077        0.48283924223704
H           -5.75292432599767       -7.41216844716933       -1.04679379942763
H           -2.70168136990373       -5.28851212702715       -2.71109569731216
H           -1.09472027491146       -4.10187276436949       -1.99651057420033
H            0.43202586971104       -3.72429342987788       -3.66524073498015
H            2.81833147101988       -3.81500117804680       -4.33627689598004
H            4.42969098633158       -2.23001881131249       -3.26098701121751
H            1.52785331914890       -0.64137087243547       -0.88798867268381
H           -0.48315662505053        0.08061811631434       -1.39882056515164
H           -0.80240495375739       -0.62093147803080        1.41101787396397
H            1.38366711733122        0.20473323668690        2.15741752237512
H           -1.88483698234219        3.26309075244795       -0.02863734848281
H           -0.70615501405190        5.75145904399441       -0.04107234351004
H            0.88441373980107        7.64353833411357        0.06280352557465
H            3.17076537974950        7.31250547770078        0.87987488515762
H            3.94088479615034        5.09958569324183        1.64145341368874
H            3.84466320174492        3.64942516122389        3.57373304321907
H            5.98260494961191        2.57443358152805        4.16963730622695
H            6.72528399491639        0.54153213954642        2.98792275467240
H            7.70880400896854        1.04777850865543        0.76810196123633
H            9.73037301148962        0.32124773107907       -0.43971018431681
H            9.84212676822178       -1.88017667995633       -1.50805248485787
H            7.91325563341223       -3.42486650009630       -1.42174494687497
H            5.47342584299934       -4.62017058700153       -0.96411401937881
H            3.17513898075954       -5.16117463567256       -0.23429045876357
H            1.89545617281705       -3.58734626166392        1.13784867654503
H            2.85065649764816       -1.41736227895098        1.80210790110202
H            3.25036524206098        0.71715956480333        0.51024318669979
H           -1.91041456284706        1.65484475479212       -2.54140866338367
H           -3.64812908221060        4.34925529020989       -6.14431276848220
H           -5.01471693191877        3.48238742961563       -5.45333397970620
H           -4.39295969158684        4.94425824965850       -4.66505919261117
H           -1.46009113218436        4.40039005533538       -5.06461316510788
H           -1.11525724264018        3.46334130483351       -3.61321845922006
H           -2.13605517413728        4.89704824654878       -3.51057127619308
H           -2.00804241782023        1.35251422866880       -4.75810594661776
H           -3.63423592181055        1.35055942787395       -5.43481186665866
H           -2.35309154510029        2.28617851162864       -6.21226700433382
H           -5.63352747915747        3.64338526347260       -3.27466034380674
H           -6.50084185478635        2.86251657544664       -1.14027724409097

          :  Hamiltonian                  GFN2-xTB          :
         :: gradient norm              0.000078633726 Eh/a0 ::
         :: HOMO-LUMO gap              0.214805290921 eV    ::
         :: SCC energy              -186.119651995634 Eh    ::
         :: -> dispersion             -0.187739460722 Eh    ::
         :: -> Gsolv                  -0.070365853332 Eh    ::
         :: repulsion energy           3.328490985623 Eh    ::

    * Orbital Energies and Occupations

         #    Occupation            Energy/Eh            Energy/eV
      -------------------------------------------------------------
         1        2.0000           -0.6852725             -18.6472
       ...           ...                  ...                  ...
       160        2.0000           -0.4019557             -10.9378
       161        2.0000           -0.3976227             -10.8199
       162        2.0000           -0.3909644             -10.6387
       163        2.0000           -0.3859391             -10.5019
       164        2.0000           -0.3831064             -10.4249
       165        2.0000           -0.3817269             -10.3873
       166        1.9999           -0.3745756             -10.1927
       167        1.9969           -0.3710417             -10.0966
       168        1.9762           -0.3690757             -10.0431
       169        1.9511           -0.3683667             -10.0238
       170        1.7098           -0.3663966              -9.9702
       171        1.3660           -0.3650246              -9.9328
       172        0.9839           -0.2612789              -7.1098 (HOMO)
       173        0.0148           -0.2533826              -6.8949 (LUMO)
       174        0.0009           -0.2507359              -6.8229
       175        0.0005           -0.2500615              -6.8045
       176        0.0000           -0.2468681              -6.7176
       177        0.0000           -0.2434534              -6.6247
       178        0.0000           -0.2427490              -6.6055
       179                         -0.2389469              -6.5021
       180                         -0.2349247              -6.3926
       181                         -0.2291820              -6.2364
       182                         -0.2261974              -6.1551
       183                         -0.2198907              -5.9835
       ...                                ...                  ...
       338                          0.7419868              20.1905
      -------------------------------------------------------------
                  HL-Gap            0.0078963 Eh            0.2149 eV

     #   Z          covCN         q      C6AA      α(0)
     1   6 C        3.761    -0.104    22.533     6.767
     2   6 C        3.902     0.026    20.088     6.371
     3   6 C        3.761    -0.101    22.484     6.759
     4   6 C        3.761    -0.107    22.588     6.775
     5   6 C        2.974     0.006    27.879     8.661
     6   6 C        2.925    -0.044    29.094     8.846
     7   6 C        2.913    -0.039    28.959     8.824
     8   6 C        3.036    -0.004    28.092     8.693
     9   6 C        3.051     0.002    27.937     8.669
    10   6 C        2.921    -0.040    28.997     8.831
    11   6 C        3.949     0.010    20.343     6.409
    12   6 C        2.970     0.014    27.690     8.631
    13   6 C        2.920    -0.060    29.498     8.906
    14   6 C        2.966    -0.006    28.166     8.705
    15   6 C        2.966    -0.016    28.405     8.742
    16   6 C        2.926    -0.033    28.829     8.805
    17   6 C        2.906    -0.039    28.976     8.826
    18   6 C        2.894     0.024    27.464     8.592
    19   7 N        1.836    -0.200    26.159     7.579
    20   6 C        2.897     0.051    26.854     8.497
    21   6 C        2.924    -0.044    29.087     8.845
    22   6 C        2.966    -0.004    28.113     8.697
    23   6 C        2.971    -0.007    28.185     8.708
    24   6 C        2.931    -0.024    28.599     8.770
    25   6 C        2.910    -0.041    29.019     8.833
    26   6 C        2.909     0.048    26.915     8.507
    27   7 N        1.834    -0.239    27.103     7.715
    28   6 C        2.915     0.058    26.696     8.473
    29   6 C        2.927    -0.060    29.503     8.908
    30   6 C        2.979     0.015    27.671     8.629
    31   6 C        2.928    -0.036    28.892     8.815
    32   6 C        2.908    -0.050    29.247     8.868
    33   6 C        3.081     0.046    26.879     8.499
    34   6 C        3.061    -0.016    28.338     8.730
    35   6 C        2.914    -0.039    28.972     8.826
    36   6 C        3.068    -0.015    28.309     8.724
    37   6 C        2.912    -0.032    28.794     8.799
    38   6 C        2.919    -0.037    28.913     8.818
    39   6 C        2.923    -0.034    28.855     8.809
    40   6 C        2.909    -0.048    29.183     8.858
    41   6 C        3.072     0.046    26.896     8.503
    42   7 N        2.801    -0.027    21.774     6.930
    43   6 C        2.912     0.066    26.517     8.444
    44   6 C        2.920    -0.044    29.084     8.844
    45   6 C        2.919    -0.025    28.616     8.772
    46   6 C        2.921    -0.043    29.077     8.843
    47   6 C        2.911     0.068    26.488     8.439
    48   7 N        2.802    -0.029    21.802     6.935
    49   6 C        3.074     0.048    26.838     8.494
    50   6 C        2.909    -0.048    29.193     8.860
    51   6 C        2.923    -0.033    28.823     8.804
    52   6 C        2.920    -0.038    28.952     8.824
    53   6 C        2.912    -0.032    28.792     8.799
    54   6 C        3.067    -0.013    28.275     8.719
    55   6 C        3.067    -0.011    28.230     8.712
    56   6 C        2.913    -0.032    28.786     8.798
    57   6 C        2.920    -0.038    28.944     8.823
    58   6 C        2.923    -0.032    28.793     8.800
    59   6 C        2.911    -0.044    29.100     8.846
    60   6 C        3.075     0.053    26.732     8.477
    61   6 C        2.926    -0.054    29.343     8.883
    62   6 C        3.054     0.001    27.951     8.671
    63   6 C        2.921    -0.039    28.981     8.828
    64   6 C        2.974     0.007    27.869     8.659
    65   6 C        3.903     0.026    20.088     6.371
    66   6 C        3.761    -0.107    22.591     6.776
    67   6 C        3.761    -0.103    22.510     6.763
    68   6 C        3.761    -0.103    22.508     6.763
    69   6 C        2.925    -0.044    29.095     8.846
    70   6 C        2.913    -0.039    28.960     8.824
    71   6 C        3.034    -0.005    28.104     8.695
    72   1 H        0.925     0.036     2.499     2.472
    73   1 H        0.925     0.033     2.544     2.494
    74   1 H        0.925     0.039     2.456     2.451
    75   1 H        0.925     0.039     2.468     2.457
    76   1 H        0.925     0.030     2.579     2.512
    77   1 H        0.925     0.035     2.522     2.483
    78   1 H        0.925     0.038     2.473     2.459
    79   1 H        0.925     0.035     2.510     2.478
    80   1 H        0.925     0.037     2.494     2.470
    81   1 H        0.926     0.038     2.472     2.459
    82   1 H        0.926     0.029     2.608     2.525
    83   1 H        0.926     0.030     2.592     2.518
    84   1 H        0.926     0.019     2.753     2.595
    85   1 H        0.926     0.034     2.536     2.490
    86   1 H        0.926     0.033     2.546     2.495
    87   1 H        0.926     0.030     2.585     2.514
    88   1 H        0.925     0.036     2.506     2.475
    89   1 H        0.926     0.023     2.685     2.562
    90   1 H        0.926     0.032     2.554     2.499
    91   1 H        0.926     0.035     2.522     2.483
    92   1 H        0.926     0.029     2.600     2.522
    93   1 H        0.925     0.027     2.630     2.536
    94   1 H        0.926     0.017     2.780     2.607
    95   1 H        0.926     0.034     2.535     2.490
    96   1 H        0.926     0.032     2.564     2.504
    97   1 H        0.926     0.036     2.501     2.473
    98   1 H        0.926     0.035     2.512     2.479
    99   1 H        0.926     0.034     2.527     2.486
   100   1 H        0.926     0.036     2.496     2.471
   101   1 H        0.926     0.039     2.464     2.455
   102   1 H        0.926     0.056     2.250     2.346
   103   1 H        0.926     0.056     2.252     2.347
   104   1 H        0.926     0.055     2.259     2.351
   105   1 H        0.926     0.038     2.477     2.461
   106   1 H        0.926     0.037     2.492     2.469
   107   1 H        0.926     0.034     2.530     2.487
   108   1 H        0.926     0.035     2.519     2.482
   109   1 H        0.926     0.035     2.522     2.483
   110   1 H        0.926     0.028     2.615     2.529
   111   1 H        0.926     0.029     2.599     2.521
   112   1 H        0.926     0.032     2.558     2.501
   113   1 H        0.926     0.055     2.253     2.347
   114   1 H        0.926     0.028     2.612     2.528
   115   1 H        0.925     0.038     2.474     2.460
   116   1 H        0.925     0.036     2.506     2.476
   117   1 H        0.925     0.037     2.488     2.467
   118   1 H        0.925     0.039     2.464     2.455
   119   1 H        0.925     0.035     2.512     2.478
   120   1 H        0.925     0.033     2.538     2.491
   121   1 H        0.925     0.034     2.529     2.487
   122   1 H        0.925     0.031     2.567     2.505
   123   1 H        0.925     0.039     2.465     2.455
   124   1 H        0.926     0.038     2.470     2.458
   125   1 H        0.926     0.028     2.608     2.525

molecular dipole:
                 x           y           z       tot (Debye)
 q only:        2.211       2.285       1.676
   full:        1.904       2.150       1.631       8.395

 projected vibrational frequencies (cm⁻¹)
eigval :       -0.00    -0.00    -0.00     0.00     0.00     0.00
eigval :        9.78    12.23    14.87    16.20    19.21    22.28
eigval :       23.06    30.39    31.42    31.94    34.92    37.50
eigval :       47.59    51.66    54.18    62.13    65.81    74.02
eigval :       75.14    82.28    85.18    88.65   100.46   103.38
eigval :      107.90   118.49   134.83   140.93   147.32   150.07
eigval :      159.07   170.12   178.78   181.15   186.43   189.03
eigval :      195.30   202.94   210.99   218.85   225.12   229.51
eigval :      232.80   237.20   240.57   243.47   250.62   269.45
eigval :      272.62   273.42   280.59   283.34   302.49   308.20
eigval :      310.09   319.41   321.92   326.63   330.44   335.80
eigval :      346.13   346.39   349.90   354.64   365.48   371.72
eigval :      376.81   383.75   385.58   391.70   393.43   396.04
eigval :      414.40   421.29   422.07   424.05   429.28   432.83
eigval :      433.55   438.61   445.42   449.73   456.60   461.56
eigval :      477.51   505.59   513.82   517.47   518.85   529.90
eigval :      532.56   534.82   538.99   540.67   546.21   556.47
eigval :      560.35   562.89   572.43   578.59   587.16   588.49
eigval :      591.90   598.27   609.03   613.50   618.89   619.51
eigval :      628.74   629.84   634.89   637.84   649.33   667.70
eigval :      669.52   672.37   674.20   678.17   679.60   694.40
eigval :      703.74   706.35   709.69   718.06   728.54   736.16
eigval :      746.77   748.45   760.52   761.96   765.33   766.53
eigval :      776.90   777.48   784.75   791.26   797.84   803.38
eigval :      812.13   814.34   817.91   820.15   830.36   856.82
eigval :      861.01   861.24   865.63   870.62   871.41   873.70
eigval :      875.57   877.93   882.78   885.73   889.91   892.43
eigval :      895.40   897.30   899.51   900.31   902.68   904.96
eigval :      906.69   908.58   910.28   910.99   912.41   912.92
eigval :      914.98   920.19   924.87   930.32   932.97   958.37
eigval :      959.49   960.26   961.57   962.20   963.03   964.02
eigval :      966.31   970.66   989.91   994.15  1007.48  1012.38
eigval :     1015.38  1026.23  1034.09  1034.24  1034.72  1036.22
eigval :     1058.64  1065.73  1067.44  1067.87  1070.73  1085.28
eigval :     1095.18  1108.91  1111.24  1115.01  1119.60  1123.50
eigval :     1125.74  1131.83  1137.71  1140.82  1143.31  1148.03
eigval :     1162.59  1169.27  1171.24  1174.22  1176.88  1178.53
eigval :     1179.09  1182.13  1187.54  1193.55  1195.72  1200.32
eigval :     1209.66  1219.55  1224.10  1224.51  1226.61  1230.87
eigval :     1231.33  1231.76  1233.64  1234.74  1240.34  1247.55
eigval :     1249.97  1255.85  1258.87  1271.35  1277.65  1282.84
eigval :     1283.70  1286.94  1290.67  1291.14  1294.84  1298.01
eigval :     1306.92  1314.55  1317.17  1326.89  1327.27  1332.49
eigval :     1340.83  1348.65  1350.33  1353.04  1358.04  1359.72
eigval :     1363.21  1369.64  1378.66  1393.22  1397.81  1400.24
eigval :     1402.36  1402.85  1406.43  1409.90  1412.47  1417.67
eigval :     1418.87  1426.08  1427.14  1432.36  1439.54  1446.95
eigval :     1448.16  1451.84  1456.31  1464.15  1464.85  1465.68
eigval :     1467.81  1474.36  1475.79  1483.82  1489.53  1489.59
eigval :     1492.81  1493.07  1493.18  1499.10  1499.33  1503.05
eigval :     1503.32  1511.48  1511.66  1517.28  1517.95  1519.58
eigval :     1531.21  1538.91  1551.00  1559.88  1567.35  1568.82
eigval :     1570.55  1575.47  1578.79  1584.74  1586.80  1587.99
eigval :     1592.18  1602.33  1605.66  3018.85  3019.16  3019.72
eigval :     3020.00  3023.04  3023.44  3024.49  3024.67  3027.10
eigval :     3027.19  3030.20  3030.66  3035.55  3035.86  3042.14
eigval :     3043.18  3043.62  3045.62  3047.38  3049.45  3063.32
eigval :     3068.68  3070.92  3071.50  3071.76  3073.90  3075.88
eigval :     3077.09  3078.84  3079.17  3081.61  3083.89  3083.95
eigval :     3084.05  3087.37  3088.26  3089.17  3090.27  3090.71
eigval :     3091.34  3091.84  3094.65  3095.18  3095.99  3097.87
eigval :     3099.08  3100.82  3101.88  3102.61  3104.45  3105.13
eigval :     3107.72  3111.21  3111.76

   temp. (K)  partition function   enthalpy   heat capacity  entropy
                                   cal/mol     cal/K/mol   cal/K/mol   J/K/mol
 298.15  VIB  0.337E+29            36481.110    227.399    226.371
         ROT  0.201E+09              888.752      2.981     40.976
         INT  0.677E+37            37369.863    230.380    267.348
         TR   0.268E+29             1481.254      4.968     46.296
         TOT                       38851.1168   235.3479   313.6438  1312.2857

       T/K    H(0)-H(T)+PV         H(T)/Eh          T*S/Eh         G(T)/Eh
   ------------------------------------------------------------------------
    298.15    0.619132E-01    0.105149E+01    0.149022E+00    0.902470E+00
   ------------------------------------------------------------------------

         :::::::::::::::::::::::::::::::::::::::::::::::::::::
         ::                  THERMODYNAMIC                  ::
         :::::::::::::::::::::::::::::::::::::::::::::::::::::
         :: total free energy        -181.888690818262 Eh   ::
         ::.................................................::
         :: total energy             -182.791161027702 Eh   ::
         :: zero point energy           0.989579303123 Eh   ::
         :: G(RRHO) w/o ZPVE           -0.087109093683 Eh   ::
         :: G(RRHO) contrib.            0.902470209441 Eh   ::
         :::::::::::::::::::::::::::::::::::::::::::::::::::::

           -------------------------------------------------
          | TOTAL ENERGY             -182.791161027702 Eh   |
          | TOTAL ENTHALPY           -181.739668529088 Eh   |
          | TOTAL FREE ENERGY        -181.888690818262 Eh   |
          | GRADIENT NORM               0.000087440091 Eh/α |
          | HOMO-LUMO GAP               0.214869212880 eV   |
           -------------------------------------------------

 * finished run on 2025/08/24 at 21:17:52.775
