   * xtb version 6.7.1 (edcfbbe) compiled by 'albert@albert-system' on 2024-07-22

   ID    Z sym.   atoms
    1    6 C      1-5, 7-15, 17-31, 34-42
    2    7 N      6, 16, 32
    3    8 O      33
    4    1 H      43-69

          program call               : xtb data2507/toluene/TPA-PPO/TPA-PPO_toluene_S0_finalOpt.xtbopt.xyz --gfn 2 --uhf 2 --gbsa toluene --ohess vtight --parallel 40 --molden --ceasefiles --namespace data2507/toluene/TPA-PPO/TPA-PPO_toluene_T1_preOpt
      * Solvation model:               GBSA
        Solvent                        toluene
        Solvent mass                       9.2140E+01 g/mol
          :  Hamiltonian                  GFN2-xTB          :
 * total energy  :  -107.9401663 Eh     change       -0.9493775E-08 Eh
 * total energy  :  -107.9459033 Eh     change       -0.5737065E-02 Eh
 * total energy  :  -107.9478325 Eh     change       -0.1929208E-02 Eh
 * total energy  :  -107.9480315 Eh     change       -0.1989299E-03 Eh
 * total energy  :  -107.9482431 Eh     change       -0.2116629E-03 Eh
 * total energy  :  -107.9483445 Eh     change       -0.1013948E-03 Eh
 * total energy  :  -107.9484542 Eh     change       -0.1096530E-03 Eh
 * total energy  :  -107.9485314 Eh     change       -0.7727752E-04 Eh
 * total energy  :  -107.9485730 Eh     change       -0.4154222E-04 Eh
 * total energy  :  -107.9486230 Eh     change       -0.5001537E-04 Eh
 * total energy  :  -107.9492757 Eh     change       -0.2967111E-06 Eh
 * total energy  :  -107.9492760 Eh     change       -0.3278070E-06 Eh
 * total energy  :  -107.9492764 Eh     change       -0.3871892E-06 Eh
 * total energy  :  -107.9492769 Eh     change       -0.4444516E-06 Eh
 * total energy  :  -107.9492773 Eh     change       -0.4584783E-06 Eh
 * total energy  :  -107.9492777 Eh     change       -0.4267403E-06 Eh
 * total energy  :  -107.9492781 Eh     change       -0.3753366E-06 Eh
 * total energy  :  -107.9492784 Eh     change       -0.3308239E-06 Eh
 * total energy  :  -107.9492785 Eh     change       -0.4770399E-08 Eh
   *** GEOMETRY OPTIMIZATION CONVERGED AFTER 94 ITERATIONS ***

 final structure:
================
69
 xtb: 6.7.1 (edcfbbe)
C            8.82149087194703       -3.42408693086216       -0.44697541266948
C            8.85127148789008       -2.20946917066090       -1.11437335445955
C            7.80951458889663       -1.31157010333709       -0.97493952098065
C            6.72197489716934       -1.62117666689953       -0.15820110266814
C            5.59081940290793       -0.71212659182989       -0.02829848423931
N            4.33656029832956       -1.18329625368059       -0.06491396699426
C            3.53392992719548       -0.11642048521886       -0.02430007579777
C            2.13778107801904       -0.15057416256866       -0.06976317830761
C            1.44286421470369       -1.39640598946698       -0.13481355420596
C            0.08651401889530       -1.41068791498355       -0.11053692692006
C           -0.64752982413832       -0.18641005876727       -0.02218100537153
C           -2.07310589916642       -0.13427372244387       -0.01920691569553
C           -2.77787857107534        0.97358224743995        0.51342606096478
C           -4.14484935454659        1.02089049244773        0.52195584065471
C           -4.90744979624147       -0.03880311737383       -0.00279133078613
N           -6.29159614002128        0.00701509808292        0.00553920366364
C           -6.96062687077863        1.22972710311952       -0.12389854459303
C           -6.47719457351016        2.21231593292050       -0.99071822384711
C           -7.14481925715071        3.41503158296261       -1.11428536913993
C           -8.29862911755433        3.65584963495046       -0.38368448821373
C           -8.78355660200043        2.68177164915244        0.47606463651059
C           -8.12310388251533        1.47633520131293        0.60978191783167
C           -7.03736951980887       -1.17030165769040        0.14008532732378
C           -6.61262039265963       -2.18072723245227        1.00558047850674
C           -7.35422421413169       -3.33877305920035        1.13381350984967
C           -8.52441996463628       -3.50675867017429        0.40886193072375
C           -8.95132126987480       -2.50450820872599       -0.44922340057815
C           -8.21678259908410       -1.34314547756872       -0.58740373602116
C           -4.22455005419815       -1.14639336416108       -0.53742250252485
C           -2.85745892388657       -1.18951902760457       -0.54692028837828
C            0.14865202849331        0.99064479254114       -0.00090259278354
N            1.44417784366354        1.02506451461018       -0.03712469403963
O            4.23513999093826        1.05705507442158        0.05797834596953
C            5.55609593362971        0.69336934655685        0.06828586685924
C            6.54853228298868        1.70834217868522        0.22147164275894
C            6.20337626844316        3.05169691597162       -0.01945135280273
C            7.14069029664023        4.05143500516015        0.11457549415734
C            8.44048911635455        3.74873022599740        0.50062042378583
C            8.78690071862097        2.43025294298239        0.76904439143497
C            7.86014226917930        1.41929494942921        0.63785682139385
C            6.68716200919903       -2.85520586486006        0.48915248771399
C            7.73505924424576       -3.74591961869589        0.35105257090383
H            9.63955540667929       -4.12090250995073       -0.55517029581185
H            9.68816712395970       -1.96156333730679       -1.75080777559675
H            7.82452732210489       -0.37273093517439       -1.50932675124895
H            2.03364000211630       -2.29789630893083       -0.16529886432933
H           -0.44227911342693       -2.35196485656532       -0.11085953656957
H           -2.22468315936741        1.78218977920747        0.96496774866743
H           -4.65198016305165        1.86508854082018        0.96575951279143
H           -5.58847204436405        2.01709661257720       -1.57256249036638
H           -6.76640682646424        4.16607429934002       -1.79158327109935
H           -8.81735146681279        4.59693268709677       -0.48460598536010
H           -9.67795705405191        2.86554414175374        1.05244171128581
H           -8.49247567980845        0.72310633158744        1.28974024314628
H           -5.71013500428452       -2.04132927454399        1.58226092162601
H           -7.02067057216540       -4.11200207155616        1.80980214596506
H           -9.10089899115757       -4.41328425104973        0.51280338756750
H           -9.85843648915333       -2.63202636873357       -1.02087654242021
H           -8.54132539959317       -0.56811717553680       -1.26584682676978
H           -4.79252484240375       -1.95505176411244       -0.97361601328214
H           -2.36620647581756       -2.03306335355951       -1.00579670976138
H           -0.32482641688972        1.96471113909561       -0.02152824680368
H            5.19197136383669        3.27970405096108       -0.32181721001384
H            6.86183454011267        5.07637588212237       -0.08380411597067
H            9.17392925365264        4.53445913157095        0.60205483124934
H            9.79059217359364        2.19305833236848        1.09097572451715
H            8.12961958668264        0.40247479527237        0.87684285885214
H            5.83120185873188       -3.09601830486901        1.10152340876070
H            7.70327020988984       -4.69541288109343        0.86527558862650

          :  Hamiltonian                  GFN2-xTB          :
         :: gradient norm              0.000039644325 Eh/a0 ::
         :: HOMO-LUMO gap              0.724021096095 eV    ::
         :: SCC energy              -109.884092382312 Eh    ::
         :: -> dispersion             -0.088241619091 Eh    ::
         :: -> Gsolv                  -0.054649609370 Eh    ::
         :: repulsion energy           1.934813929681 Eh    ::

    * Orbital Energies and Occupations

         #    Occupation            Energy/Eh            Energy/eV
      -------------------------------------------------------------
         1        2.0000           -0.7324537             -19.9311
       ...           ...                  ...                  ...
        89        2.0000           -0.4194224             -11.4131
        90        2.0000           -0.4185521             -11.3894
        91        2.0000           -0.4165904             -11.3360
        92        2.0000           -0.4151324             -11.2963
        93        2.0000           -0.4081147             -11.1054
        94        2.0000           -0.4065820             -11.0637
        95        2.0000           -0.4054553             -11.0330
        96        2.0000           -0.3964094             -10.7868
        97        2.0000           -0.3892533             -10.5921
        98        2.0000           -0.3696901             -10.0598
        99        1.9850           -0.3635835              -9.8936
       100        1.0150           -0.3556352              -9.6773
       101        1.0000           -0.2835547              -7.7159 (HOMO)
       102        0.0000           -0.2569475              -6.9919 (LUMO)
       103                         -0.2439676              -6.6387
       104                         -0.2396923              -6.5224
       105                         -0.2382198              -6.4823
       106                         -0.2335698              -6.3558
       107                         -0.2299330              -6.2568
       108                         -0.2276490              -6.1946
       109                         -0.2259834              -6.1493
       110                         -0.2217554              -6.0343
       111                         -0.2182720              -5.9395
       112                         -0.2076754              -5.6511
       ...                                ...                  ...
       195                          0.6955310              18.9264
      -------------------------------------------------------------
                  HL-Gap            0.0266072 Eh            0.7240 eV

     #   Z          covCN         q      C6AA      α(0)
     1   6 C        2.919    -0.029    28.713     8.787
     2   6 C        2.918    -0.028    28.713     8.787
     3   6 C        2.923    -0.033    28.815     8.803
     4   6 C        2.974     0.007    27.857     8.658
     5   6 C        3.114     0.072    26.229     8.389
     6   7 N        1.880    -0.341    29.704     8.079
     7   6 C        3.148     0.201    23.506     7.931
     8   6 C        2.947     0.055    26.772     8.486
     9   6 C        2.911    -0.048    29.184     8.858
    10   6 C        2.920    -0.031    28.761     8.795
    11   6 C        2.967    -0.022    28.561     8.766
    12   6 C        2.969     0.009    27.811     8.650
    13   6 C        2.919    -0.037    28.924     8.819
    14   6 C        2.914    -0.042    29.045     8.837
    15   6 C        2.924     0.056    26.751     8.482
    16   7 N        2.752    -0.027    21.773     6.930
    17   6 C        2.927     0.062    26.605     8.459
    18   6 C        2.921    -0.040    29.001     8.831
    19   6 C        2.919    -0.026    28.645     8.777
    20   6 C        2.919    -0.030    28.749     8.793
    21   6 C        2.919    -0.026    28.643     8.776
    22   6 C        2.921    -0.041    29.016     8.833
    23   6 C        2.927     0.062    26.606     8.459
    24   6 C        2.921    -0.040    28.999     8.831
    25   6 C        2.919    -0.026    28.644     8.777
    26   6 C        2.919    -0.030    28.749     8.793
    27   6 C        2.919    -0.026    28.643     8.776
    28   6 C        2.921    -0.041    29.014     8.833
    29   6 C        2.914    -0.043    29.056     8.839
    30   6 C        2.920    -0.036    28.895     8.815
    31   6 C        2.894     0.066    26.529     8.445
    32   7 N        1.837    -0.267    27.773     7.810
    33   8 O        1.720    -0.247    18.083     5.742
    34   6 C        3.042     0.095    25.850     8.339
    35   6 C        2.967    -0.002    28.071     8.691
    36   6 C        2.925    -0.031    28.770     8.796
    37   6 C        2.915    -0.029    28.721     8.788
    38   6 C        2.918    -0.033    28.811     8.802
    39   6 C        2.916    -0.028    28.709     8.786
    40   6 C        2.920    -0.039    28.964     8.826
    41   6 C        2.926    -0.026    28.659     8.779
    42   6 C        2.918    -0.028    28.708     8.786
    43   1 H        0.926     0.041     2.435     2.440
    44   1 H        0.926     0.040     2.448     2.447
    45   1 H        0.926     0.032     2.552     2.498
    46   1 H        0.926     0.039     2.458     2.452
    47   1 H        0.926     0.036     2.501     2.473
    48   1 H        0.926     0.037     2.491     2.468
    49   1 H        0.926     0.042     2.422     2.434
    50   1 H        0.926     0.043     2.408     2.427
    51   1 H        0.926     0.044     2.398     2.422
    52   1 H        0.926     0.043     2.406     2.426
    53   1 H        0.926     0.045     2.384     2.415
    54   1 H        0.926     0.044     2.400     2.423
    55   1 H        0.926     0.043     2.405     2.425
    56   1 H        0.926     0.044     2.395     2.420
    57   1 H        0.926     0.043     2.406     2.426
    58   1 H        0.926     0.045     2.385     2.415
    59   1 H        0.926     0.044     2.402     2.424
    60   1 H        0.926     0.042     2.418     2.432
    61   1 H        0.926     0.041     2.436     2.441
    62   1 H        0.925     0.033     2.546     2.495
    63   1 H        0.926     0.038     2.473     2.459
    64   1 H        0.926     0.036     2.508     2.476
    65   1 H        0.926     0.037     2.488     2.467
    66   1 H        0.926     0.037     2.483     2.464
    67   1 H        0.926     0.034     2.536     2.491
    68   1 H        0.926     0.041     2.442     2.444
    69   1 H        0.926     0.040     2.446     2.446

molecular dipole:
                 x           y           z       tot (Debye)
 q only:       -4.631      -0.328       0.023
   full:       -4.721      -0.266       0.035      12.018

 projected vibrational frequencies (cm⁻¹)
eigval :       -0.00    -0.00    -0.00     0.00     0.00     0.00
eigval :        3.83     7.99    16.76    27.82    33.95    36.58
eigval :       40.76    43.90    54.16    59.98    62.64    74.76
eigval :       80.85    94.16   105.81   110.89   132.88   137.75
eigval :      144.67   173.11   206.35   220.16   231.15   236.28
eigval :      256.71   261.39   278.21   309.53   314.83   318.16
eigval :      346.60   366.26   373.27   376.30   376.92   381.93
eigval :      388.69   392.98   394.15   404.38   429.75   445.49
eigval :      452.77   470.20   487.87   503.52   513.66   515.90
eigval :      566.17   579.66   582.44   585.18   586.74   591.16
eigval :      593.23   607.71   619.11   621.72   650.18   651.06
eigval :      657.01   659.32   660.97   664.35   677.29   681.57
eigval :      686.73   717.01   749.26   750.14   758.29   761.66
eigval :      763.10   789.66   809.70   836.59   856.45   862.96
eigval :      872.57   873.09   874.19   887.47   892.55   898.48
eigval :      900.79   904.68   905.75   907.57   911.54   911.92
eigval :      919.92   924.19   925.01   926.78   929.03   930.50
eigval :      932.14   932.28   932.46   935.71   943.93   966.12
eigval :      976.81   998.65  1001.31  1004.12  1035.49  1055.64
eigval :     1070.99  1078.35  1079.07  1080.30  1083.44  1115.81
eigval :     1118.13  1120.43  1123.04  1133.60  1148.27  1165.37
eigval :     1175.53  1177.41  1177.65  1178.97  1179.23  1189.14
eigval :     1190.75  1195.49  1197.21  1215.85  1231.86  1253.69
eigval :     1263.85  1271.28  1273.33  1276.98  1277.64  1280.97
eigval :     1284.25  1294.70  1306.34  1315.59  1316.86  1318.12
eigval :     1323.56  1327.76  1331.08  1346.60  1368.17  1396.76
eigval :     1417.60  1428.49  1428.71  1433.39  1436.21  1438.63
eigval :     1446.01  1455.59  1455.94  1464.54  1468.56  1475.35
eigval :     1487.20  1519.77  1538.37  1560.93  1564.42  1568.47
eigval :     1574.87  1576.63  1576.73  1579.65  1586.77  1592.49
eigval :     3036.30  3071.75  3072.47  3074.19  3074.65  3075.78
eigval :     3079.59  3080.58  3080.69  3081.50  3081.63  3082.05
eigval :     3082.37  3087.15  3088.79  3089.39  3089.47  3091.93
eigval :     3092.72  3092.88  3095.44  3098.58  3099.99  3100.15
eigval :     3100.84  3102.12  3102.63

   temp. (K)  partition function   enthalpy   heat capacity  entropy
                                   cal/mol     cal/K/mol   cal/K/mol   J/K/mol
 298.15  VIB  0.665E+17            19933.649    123.696    126.895
         ROT  0.904E+08              888.752      2.981     39.387
         INT  0.602E+25            20822.402    126.677    166.282
         TR   0.122E+29             1481.254      4.968     44.734
         TOT                       22303.6556   131.6447   211.0155   882.8890

       T/K    H(0)-H(T)+PV         H(T)/Eh          T*S/Eh         G(T)/Eh
   ------------------------------------------------------------------------
    298.15    0.355431E-01    0.561613E+00    0.100260E+00    0.461353E+00
   ------------------------------------------------------------------------

         :::::::::::::::::::::::::::::::::::::::::::::::::::::
         ::                  THERMODYNAMIC                  ::
         :::::::::::::::::::::::::::::::::::::::::::::::::::::
         :: total free energy        -107.487925355705 Eh   ::
         ::.................................................::
         :: total energy             -107.949278453874 Eh   ::
         :: zero point energy           0.526070253117 Eh   ::
         :: G(RRHO) w/o ZPVE           -0.064717154947 Eh   ::
         :: G(RRHO) contrib.            0.461353098170 Eh   ::
         :::::::::::::::::::::::::::::::::::::::::::::::::::::

           -------------------------------------------------
          | TOTAL ENERGY             -107.949278453874 Eh   |
          | TOTAL ENTHALPY           -107.387665063123 Eh   |
          | TOTAL FREE ENERGY        -107.487925355705 Eh   |
          | GRADIENT NORM               0.000040323736 Eh/α |
          | HOMO-LUMO GAP               0.724017417098 eV   |
           -------------------------------------------------

 * finished run on 2025/07/18 at 15:12:30.736
