   * xtb version 6.7.1 (edcfbbe) compiled by 'albert@albert-system' on 2024-07-22

   ID    Z sym.   atoms
    1    6 C      1-5, 7-15, 17-31, 34-42
    2    7 N      6, 16, 32
    3    8 O      33
    4    1 H      43-69

          program call               : xtb data2507/toluene/TPA-PPO/TPA-PPO_toluene_S0_crest.xyz --gfn 2 --gbsa toluene --ohess vtight --parallel 40 --molden --ceasefiles --namespace data2507/toluene/TPA-PPO/TPA-PPO_toluene_S0_finalOpt
      * Solvation model:               GBSA
        Solvent                        toluene
        Solvent mass                       9.2140E+01 g/mol
          :  Hamiltonian                  GFN2-xTB          :
 * total energy  :  -108.0249396 Eh     change       -0.1270138E-08 Eh
 * total energy  :  -108.0249799 Eh     change       -0.4024242E-04 Eh
 * total energy  :  -108.0249966 Eh     change       -0.1673777E-04 Eh
 * total energy  :  -108.0250046 Eh     change       -0.8049758E-05 Eh
 * total energy  :  -108.0250121 Eh     change       -0.7448408E-05 Eh
 * total energy  :  -108.0250194 Eh     change       -0.7329087E-05 Eh
 * total energy  :  -108.0250259 Eh     change       -0.6497642E-05 Eh
 * total energy  :  -108.0250315 Eh     change       -0.5586744E-05 Eh
 * total energy  :  -108.0250361 Eh     change       -0.4597837E-05 Eh
 * total energy  :  -108.0250400 Eh     change       -0.3890232E-05 Eh
 * total energy  :  -108.0250515 Eh     change       -0.1726673E-05 Eh
 * total energy  :  -108.0250522 Eh     change       -0.7279297E-06 Eh
 * total energy  :  -108.0250527 Eh     change       -0.4770801E-06 Eh
 * total energy  :  -108.0250531 Eh     change       -0.4321568E-06 Eh
 * total energy  :  -108.0250535 Eh     change       -0.3298445E-06 Eh
 * total energy  :  -108.0250537 Eh     change       -0.2939237E-06 Eh
 * total energy  :  -108.0250541 Eh     change       -0.3596085E-06 Eh
 * total energy  :  -108.0250545 Eh     change       -0.3508915E-06 Eh
 * total energy  :  -108.0250545 Eh     change       -0.1642849E-07 Eh
   *** GEOMETRY OPTIMIZATION CONVERGED AFTER 22 ITERATIONS ***

 final structure:
================
69
 xtb: 6.7.1 (edcfbbe)
C            8.87853972383666       -3.43216972235635       -0.09075990092850
C            8.96410627814713       -2.22525124939966       -0.76692134893120
C            7.90853937403701       -1.33293397601578       -0.73800143668632
C            6.75256030755868       -1.63936336425140       -0.02211255432426
C            5.61431703811182       -0.72990276282908        0.00769941563572
N            4.33777053145430       -1.21568550939037        0.01505112856094
C            3.55679664190749       -0.17074322142574       -0.02836041469675
C            2.11096381900349       -0.20397108123190       -0.04144741314329
C            1.44054605325459       -1.43002349381564        0.01090118878729
C            0.06211319508850       -1.42800779623520        0.01445241878339
C           -0.62806845508595       -0.21233602821430       -0.03670159000672
C           -2.08912236106865       -0.15159492179337       -0.02818243973164
C           -2.76206078019125        0.86397934446766        0.65370022424887
C           -4.13846853769665        0.91668011167351        0.67269769162603
C           -4.89740379167584       -0.03874506417497       -0.00928144139351
N           -6.28810375413196        0.01513223466222        0.00301566719678
C           -6.95019827514955        1.25146066654253        0.04852269836962
C           -6.47370964173574        2.33876746252968       -0.68316029716522
C           -7.13216765681669        3.55271456199914       -0.63321205078492
C           -8.27553240163343        3.70003966919218        0.13562705365393
C           -8.75678744351898        2.62038044138012        0.85868560704027
C           -8.10039126883838        1.40492086162542        0.82173033126902
C           -7.04434546844075       -1.16644743641329       -0.02820818348917
C           -6.63854426178533       -2.28774043557563        0.69484386422240
C           -7.38905629888365       -3.44749286708698        0.65895097890289
C           -8.55538821585873       -3.50600721553841       -0.08694309960388
C           -8.96669338681168       -2.39190379540445       -0.80083361728201
C           -8.21805021815206       -1.23057384469122       -0.77832118888929
C           -4.22696670854995       -1.05030567374467       -0.70273411830352
C           -2.85067515941684       -1.10815106130063       -0.70212494083697
C            0.15030953106489        0.94870604645051       -0.10008165840649
N            1.46584438232432        0.96194609152999       -0.10140588979577
O            4.23050774682117        0.98971837783092       -0.05804452881707
C            5.54579520864412        0.65350802578216       -0.02401093063414
C            6.53069618473372        1.71871526871450        0.02806858256529
C            6.23148585060010        2.95949883597831       -0.53721043995396
C            7.15242217350909        3.98849753025406       -0.48504444862346
C            8.37662122263219        3.79734056230706        0.13539714067439
C            8.67205071867546        2.57333368298519        0.71585877630431
C            7.75769440931254        1.53856935824909        0.66829253994489
C            6.66522291009964       -2.86312395575291        0.63853552833728
C            7.72459578982316       -3.75072083987709        0.60680232681547
H            9.70624263111285       -4.12561808980930       -0.11428411909605
H            9.85630122360520       -1.97929581287497       -1.32413972871012
H            7.97032440628827       -0.40019910906415       -1.27903393303947
H            2.01586052525584       -2.34044834318736        0.05434135288940
H           -0.48371071666762       -2.35793571538827        0.07744668686246
H           -2.19718235071098        1.59963478152995        1.20688565949688
H           -4.63987360566525        1.69698260933085        1.22598546762384
H           -5.58834879979848        2.22355999426756       -1.29154873411811
H           -6.75400614782539        4.38668636530632       -1.20643960966837
H           -8.78873527168470        4.64933616914493        0.16983591632291
H           -9.64553635370810        2.72674061357479        1.46354552081770
H           -8.47246564309712        0.56652657294375        1.39249165200956
H           -5.73540061436615       -2.24100288009412        1.28591350241937
H           -7.06471458197065       -4.30886835703648        1.22475431347490
H           -9.14077070298164       -4.41293103560843       -0.10994958823445
H           -9.87300252074289       -2.42936438028792       -1.38758099025948
H           -8.53607013193555       -0.36559016000796       -1.34213906730386
H           -4.79702936631443       -1.78729125517658       -1.24888082477046
H           -2.35507736752747       -1.88635440922784       -1.26349232332484
H           -0.31565224261857        1.92321932489772       -0.17078838582644
H            5.27468528254351        3.10245315347683       -1.01771640839983
H            6.91383266880155        4.94298823639932       -0.93081369914865
H            9.09598513987290        4.60182147393690        0.17300219536124
H            9.61920861032841        2.42526793359533        1.21317877322413
H            7.98077492575445        0.59177008998448        1.13597156794010
H            5.75871200299349       -3.10108978016830        1.17426639443130
H            7.64962094785927       -4.69447520019365        1.12717676411665

          :  Hamiltonian                  GFN2-xTB          :
         :: gradient norm              0.000066934314 Eh/a0 ::
         :: HOMO-LUMO gap              1.855232731521 eV    ::
         :: SCC energy              -109.974469555802 Eh    ::
         :: -> dispersion             -0.088195430444 Eh    ::
         :: -> Gsolv                  -0.048649611494 Eh    ::
         :: repulsion energy           1.949415083501 Eh    ::

    * Orbital Energies and Occupations

         #    Occupation            Energy/Eh            Energy/eV
      -------------------------------------------------------------
         1        2.0000           -0.7554230             -20.5561
       ...           ...                  ...                  ...
        88        2.0000           -0.4203756             -11.4390
        89        2.0000           -0.4126121             -11.2277
        90        2.0000           -0.4123737             -11.2213
        91        2.0000           -0.4116157             -11.2006
        92        2.0000           -0.4100065             -11.1568
        93        2.0000           -0.4073560             -11.0847
        94        2.0000           -0.4072062             -11.0806
        95        2.0000           -0.4070587             -11.0766
        96        2.0000           -0.4028665             -10.9626
        97        2.0000           -0.4010280             -10.9125
        98        2.0000           -0.3774815             -10.2718
        99        2.0000           -0.3772586             -10.2657
       100        2.0000           -0.3526044              -9.5949 (HOMO)
       101                         -0.2844258              -7.7396 (LUMO)
       102                         -0.2593467              -7.0572
       103                         -0.2513911              -6.8407
       104                         -0.2349045              -6.3921
       105                         -0.2327313              -6.3329
       106                         -0.2305971              -6.2749
       107                         -0.2299138              -6.2563
       108                         -0.2253557              -6.1322
       109                         -0.2248573              -6.1187
       110                         -0.2239436              -6.0938
       111                         -0.2204073              -5.9976
       ...                                ...                  ...
       195                          0.6962176              18.9450
      -------------------------------------------------------------
                  HL-Gap            0.0681786 Eh            1.8552 eV

     #   Z          covCN         q      C6AA      α(0)
     1   6 C        2.919    -0.029    28.736     8.791
     2   6 C        2.919    -0.029    28.713     8.787
     3   6 C        2.923    -0.035    28.883     8.813
     4   6 C        2.973     0.007    27.870     8.660
     5   6 C        3.133     0.056    26.530     8.432
     6   7 N        1.890    -0.321    29.181     8.008
     7   6 C        3.200     0.211    23.072     7.828
     8   6 C        2.963     0.078    26.264     8.406
     9   6 C        2.916    -0.044    29.083     8.843
    10   6 C        2.931    -0.018    28.464     8.750
    11   6 C        2.971     0.004    27.941     8.670
    12   6 C        2.974    -0.003    28.086     8.693
    13   6 C        2.923    -0.034    28.836     8.806
    14   6 C        2.920    -0.048    29.204     8.862
    15   6 C        2.922     0.067    26.496     8.441
    16   7 N        2.752    -0.073    22.662     7.070
    17   6 C        2.924     0.064    26.557     8.451
    18   6 C        2.922    -0.047    29.166     8.856
    19   6 C        2.919    -0.030    28.740     8.791
    20   6 C        2.919    -0.038    28.938     8.821
    21   6 C        2.919    -0.029    28.736     8.791
    22   6 C        2.922    -0.047    29.156     8.855
    23   6 C        2.924     0.064    26.556     8.451
    24   6 C        2.922    -0.047    29.166     8.856
    25   6 C        2.919    -0.030    28.740     8.791
    26   6 C        2.919    -0.038    28.939     8.822
    27   6 C        2.919    -0.029    28.736     8.791
    28   6 C        2.922    -0.047    29.155     8.855
    29   6 C        2.920    -0.049    29.216     8.864
    30   6 C        2.923    -0.033    28.820     8.804
    31   6 C        2.912     0.057    26.711     8.475
    32   7 N        1.841    -0.250    27.361     7.752
    33   8 O        1.728    -0.202    17.358     5.625
    34   6 C        3.089     0.097    25.745     8.317
    35   6 C        2.971     0.003    27.962     8.674
    36   6 C        2.925    -0.028    28.698     8.785
    37   6 C        2.918    -0.027    28.679     8.782
    38   6 C        2.919    -0.028    28.690     8.784
    39   6 C        2.919    -0.026    28.664     8.779
    40   6 C        2.923    -0.033    28.834     8.806
    41   6 C        2.926    -0.028    28.699     8.785
    42   6 C        2.918    -0.029    28.718     8.788
    43   1 H        0.926     0.039     2.461     2.453
    44   1 H        0.926     0.039     2.466     2.456
    45   1 H        0.926     0.032     2.556     2.500
    46   1 H        0.926     0.056     2.252     2.347
    47   1 H        0.926     0.052     2.292     2.368
    48   1 H        0.926     0.036     2.503     2.474
    49   1 H        0.926     0.037     2.484     2.465
    50   1 H        0.926     0.033     2.542     2.493
    51   1 H        0.926     0.035     2.517     2.481
    52   1 H        0.926     0.034     2.534     2.489
    53   1 H        0.926     0.035     2.514     2.480
    54   1 H        0.926     0.033     2.541     2.493
    55   1 H        0.926     0.033     2.538     2.492
    56   1 H        0.926     0.035     2.515     2.480
    57   1 H        0.926     0.034     2.534     2.489
    58   1 H        0.926     0.035     2.515     2.480
    59   1 H        0.926     0.033     2.543     2.494
    60   1 H        0.926     0.038     2.478     2.462
    61   1 H        0.926     0.039     2.462     2.454
    62   1 H        0.925     0.043     2.409     2.427
    63   1 H        0.926     0.042     2.426     2.436
    64   1 H        0.926     0.041     2.433     2.439
    65   1 H        0.926     0.042     2.417     2.431
    66   1 H        0.926     0.043     2.412     2.429
    67   1 H        0.926     0.038     2.471     2.458
    68   1 H        0.926     0.042     2.417     2.431
    69   1 H        0.926     0.039     2.467     2.456

molecular dipole:
                 x           y           z       tot (Debye)
 q only:       -0.646      -0.081       0.053
   full:       -0.821      -0.042       0.046       2.093

 projected vibrational frequencies (cm⁻¹)
eigval :       -0.00    -0.00    -0.00    -0.00     0.00     0.00
eigval :        6.47     9.67    15.25    32.08    34.99    40.61
eigval :       41.35    43.73    51.56    61.14    64.66    73.34
eigval :       77.98    90.16   106.92   115.91   125.93   134.96
eigval :      141.58   185.47   203.71   231.48   237.26   240.14
eigval :      263.14   264.64   291.06   312.37   314.83   335.11
eigval :      363.34   369.38   375.44   377.26   378.61   382.99
eigval :      385.29   393.27   397.38   419.43   441.66   456.40
eigval :      478.58   482.03   496.05   513.38   522.87   542.11
eigval :      567.21   583.81   585.66   587.27   592.35   593.44
eigval :      608.53   613.32   625.96   656.90   657.71   658.58
eigval :      664.55   666.05   678.40   683.66   690.98   694.35
eigval :      721.13   728.07   756.18   758.12   761.86   766.16
eigval :      784.69   810.06   838.57   865.99   874.03   874.45
eigval :      876.15   880.36   892.21   892.59   898.04   904.24
eigval :      908.39   909.18   915.34   916.44   923.39   925.86
eigval :      927.38   928.39   928.66   929.37   930.18   930.41
eigval :      931.78   936.47   941.81   963.78   975.07   982.01
eigval :     1003.98  1004.22  1020.96  1024.15  1079.26  1079.94
eigval :     1081.05  1081.21  1082.09  1101.15  1117.31  1118.53
eigval :     1118.83  1119.77  1120.81  1138.40  1146.40  1178.17
eigval :     1178.37  1180.95  1181.47  1183.69  1189.36  1191.22
eigval :     1195.09  1195.22  1205.18  1213.75  1240.10  1246.29
eigval :     1270.34  1275.63  1276.58  1278.75  1281.26  1282.80
eigval :     1289.51  1305.79  1313.81  1315.63  1319.17  1319.94
eigval :     1323.59  1324.89  1337.01  1363.39  1381.54  1414.40
eigval :     1427.85  1430.71  1434.00  1434.44  1440.26  1451.27
eigval :     1468.37  1471.13  1481.44  1493.08  1531.28  1533.93
eigval :     1551.08  1554.41  1562.32  1576.18  1576.53  1580.00
eigval :     1580.49  1590.54  1590.74  1591.44  1596.78  1598.98
eigval :     3053.48  3071.46  3072.47  3073.04  3073.05  3073.73
eigval :     3075.71  3075.72  3077.79  3079.45  3079.70  3080.85
eigval :     3082.03  3082.57  3084.29  3084.60  3085.55  3087.25
eigval :     3089.91  3090.77  3092.48  3092.71  3093.87  3094.54
eigval :     3096.80  3099.36  3110.86

   temp. (K)  partition function   enthalpy   heat capacity  entropy
                                   cal/mol     cal/K/mol   cal/K/mol   J/K/mol
 298.15  VIB  0.221E+17            19647.957    122.002    124.793
         ROT  0.904E+08              888.752      2.981     39.387
         INT  0.200E+25            20536.709    124.983    164.181
         TR   0.122E+29             1481.254      4.968     44.734
         TOT                       22017.9632   129.9510   208.9143   874.0975

       T/K    H(0)-H(T)+PV         H(T)/Eh          T*S/Eh         G(T)/Eh
   ------------------------------------------------------------------------
    298.15    0.350879E-01    0.564786E+00    0.992619E-01    0.465524E+00
   ------------------------------------------------------------------------

         :::::::::::::::::::::::::::::::::::::::::::::::::::::
         ::                  THERMODYNAMIC                  ::
         :::::::::::::::::::::::::::::::::::::::::::::::::::::
         :: total free energy        -107.559530096466 Eh   ::
         ::.................................................::
         :: total energy             -108.025054467603 Eh   ::
         :: zero point energy           0.529698444188 Eh   ::
         :: G(RRHO) w/o ZPVE           -0.064174073052 Eh   ::
         :: G(RRHO) contrib.            0.465524371136 Eh   ::
         :::::::::::::::::::::::::::::::::::::::::::::::::::::

           -------------------------------------------------
          | TOTAL ENERGY             -108.025054467603 Eh   |
          | TOTAL ENTHALPY           -107.460268165630 Eh   |
          | TOTAL FREE ENERGY        -107.559530096466 Eh   |
          | GRADIENT NORM               0.000066884987 Eh/α |
          | HOMO-LUMO GAP               1.855233063323 eV   |
           -------------------------------------------------

 * finished run on 2025/07/18 at 15:12:22.122
