   * xtb version 6.7.1 (edcfbbe) compiled by 'albert@albert-system' on 2024-07-22

   ID    Z sym.   atoms
    1    6 C      1-5, 7-15, 17-31, 34-42
    2    7 N      6, 16, 32
    3    8 O      33
    4    1 H      43-69

          program call               : xtb data2507/toluene/TPA-PPO/TPA-PPO.xyz --gfn 2 --gbsa toluene --ohess vtight --parallel 40 --molden --ceasefiles --namespace data2507/toluene/TPA-PPO/TPA-PPO_toluene_S0_preOpt
      * Solvation model:               GBSA
        Solvent                        toluene
        Solvent mass                       9.2140E+01 g/mol
          :  Hamiltonian                  GFN2-xTB          :
 * total energy  :  -108.0056023 Eh     change       -0.1246590E-08 Eh
 * total energy  :  -108.0172858 Eh     change       -0.1168346E-01 Eh
 * total energy  :  -108.0211452 Eh     change       -0.3859451E-02 Eh
 * total energy  :  -108.0225583 Eh     change       -0.1413037E-02 Eh
 * total energy  :  -108.0235972 Eh     change       -0.1038955E-02 Eh
 * total energy  :  -108.0240320 Eh     change       -0.4347658E-03 Eh
 * total energy  :  -108.0242525 Eh     change       -0.2204914E-03 Eh
 * total energy  :  -108.0244249 Eh     change       -0.1724162E-03 Eh
 * total energy  :  -108.0245682 Eh     change       -0.1433242E-03 Eh
 * total energy  :  -108.0246754 Eh     change       -0.1071685E-03 Eh
 * total energy  :  -108.0250664 Eh     change       -0.4811118E-06 Eh
 * total energy  :  -108.0250666 Eh     change       -0.1271698E-06 Eh
 * total energy  :  -108.0250668 Eh     change       -0.2290980E-06 Eh
 * total energy  :  -108.0250671 Eh     change       -0.2452126E-06 Eh
 * total energy  :  -108.0250673 Eh     change       -0.2147475E-06 Eh
 * total energy  :  -108.0250675 Eh     change       -0.2143093E-06 Eh
 * total energy  :  -108.0250677 Eh     change       -0.1990322E-06 Eh
 * total energy  :  -108.0250678 Eh     change       -0.1104842E-06 Eh
 * total energy  :  -108.0250679 Eh     change       -0.7987039E-07 Eh
   *** GEOMETRY OPTIMIZATION CONVERGED AFTER 53 ITERATIONS ***

 final structure:
================
69
 xtb: 6.7.1 (edcfbbe)
C            9.08291413904253       -3.33011225271881        0.36447995295748
C            9.15798989804262       -2.07293166249280        0.94322562370429
C            8.09841713816235       -1.19125133520638        0.83675793179156
C            6.94876159461412       -1.55993513741240        0.14031322603707
C            5.80494192274702       -0.66325313303911        0.03346818301143
N            4.53178186060327       -1.15708108764046        0.05966569333352
C            3.74352553107298       -0.11751598352423        0.01822270351330
C            2.29794470670505       -0.16166335011199        0.02814867938034
C            1.63883682866257       -1.39438260049779        0.06672096096362
C            0.26052781667938       -1.40524653279156        0.07341108405097
C           -0.44113408311686       -0.19546310497432        0.04000675795692
C           -1.90271429694179       -0.14895374854062        0.03733800031008
C           -2.59338690105429        0.85237959377046        0.72255869829314
C           -3.97035060162222        0.89392296407805        0.72304090471090
C           -4.71224648916888       -0.05886513829322        0.01893693555037
N           -6.10324759262659       -0.01450069651317        0.00916269706154
C           -6.77535150483734        1.21621380351156        0.05741025617924
C           -6.29284548508894        2.31664429686175       -0.65039637993439
C           -6.96187379870280        3.52469346102724       -0.59834470759597
C           -8.12196444323320        3.65316330748964        0.14852107369497
C           -8.60909659364808        2.56053172696215        0.84776081746450
C           -7.94225415402617        1.35082665943016        0.80883589466463
C           -6.85006643177696       -1.20115539871586       -0.05062383597592
C           -6.45031126727922       -2.32744510542261        0.66797167503178
C           -7.19058302909859       -3.49255576310089        0.60333602589948
C           -8.34041774960576       -3.55154018506917       -0.16771070698319
C           -8.74603113508197       -2.43245418995279       -0.87703743492281
C           -8.00751560709841       -1.26553352844121       -0.82552659096767
C           -4.02408026641462       -1.05773230762289       -0.67557829988392
C           -2.64758282755082       -1.10431506279443       -0.65687141491048
C            0.32654196114355        0.97372985821475        0.00027975844140
N            1.64198277969383        0.99926570456692       -0.00477083520785
O            4.40927812519272        1.04653357194221       -0.04016106224990
C            5.72695738181112        0.71780187523194       -0.04339643666846
C            6.70584893941879        1.78176064740812       -0.17412816956840
C            7.93506681844360        1.56072892288854       -0.79706630680783
C            8.84365888322472        2.59424397700205       -0.92134592183631
C            8.54021322131607        3.85693537981882       -0.43560873810855
C            7.31423830353997        4.08711859471437        0.16781182512801
C            6.39873127487758        3.05983914480293        0.29549407626586
C            6.87209370464175       -2.83255146562695       -0.42195174812276
C            7.93571098514493       -3.70899959249261       -0.31375694514141
H            9.91370538657264       -4.01515886047990        0.44866616365646
H           10.04502193415447       -1.77900952098707        1.48522855701374
H            8.15241893131506       -0.21821223155465        1.30242708005412
H            2.22250833257558       -2.29999932979565        0.09729480622409
H           -0.27629030232463       -2.34115582591284        0.12371340877752
H           -2.04242976114451        1.58615171650288        1.29200355174622
H           -4.48564146000996        1.66373720113134        1.27825604714174
H           -5.39453658146210        2.21622954870305       -1.24219264585179
H           -6.57871961550963        4.36901745030693       -1.15281003518193
H           -8.64355137101012        4.59783266984457        0.18411010843292
H           -9.51088530824167        2.65205725923194        1.43550094361965
H           -8.31920965428693        0.50232329663896        1.36114130710283
H           -5.55997522793830       -2.28026829064490        1.27813015182415
H           -6.87119272665320       -4.35789475309645        1.16588548593740
H           -8.91763760872529       -4.46282140445748       -0.21360149462419
H           -9.63969073302049       -2.47034122279253       -1.48285637930235
H           -8.32075354912272       -0.39645048049725       -1.38572725160585
H           -4.58044073111161       -1.79314103889453       -1.23774799168852
H           -2.13841624290611       -1.87194860779550       -1.22057586872279
H           -0.14849458010152        1.94517064246071       -0.04898208709339
H            8.16473251201381        0.58241327191325       -1.19077512027557
H            9.79244167467503        2.41472359247190       -1.40505728492222
H            9.25503645115356        4.66045121084826       -0.53311970730901
H            7.06966279604746        5.07097435852550        0.54047531447727
H            5.44038944743253        3.23297381484561        0.76280040614979
H            5.97009655868493       -3.11732664770278       -0.94220832968251
H            7.86893787212889       -4.69122494554347       -0.75858203640520

          :  Hamiltonian                  GFN2-xTB          :
         :: gradient norm              0.000048709093 Eh/a0 ::
         :: HOMO-LUMO gap              1.855203674553 eV    ::
         :: SCC energy              -109.974436797706 Eh    ::
         :: -> dispersion             -0.088192971730 Eh    ::
         :: -> Gsolv                  -0.048682346276 Eh    ::
         :: repulsion energy           1.949368928988 Eh    ::

    * Orbital Energies and Occupations

         #    Occupation            Energy/Eh            Energy/eV
      -------------------------------------------------------------
         1        2.0000           -0.7554202             -20.5560
       ...           ...                  ...                  ...
        88        2.0000           -0.4205894             -11.4448
        89        2.0000           -0.4126160             -11.2279
        90        2.0000           -0.4122969             -11.2192
        91        2.0000           -0.4114624             -11.1965
        92        2.0000           -0.4100215             -11.1573
        93        2.0000           -0.4073800             -11.0854
        94        2.0000           -0.4072056             -11.0806
        95        2.0000           -0.4070708             -11.0770
        96        2.0000           -0.4028374             -10.9618
        97        2.0000           -0.4010431             -10.9129
        98        2.0000           -0.3774140             -10.2700
        99        2.0000           -0.3773284             -10.2676
       100        2.0000           -0.3526239              -9.5954 (HOMO)
       101                         -0.2844464              -7.7402 (LUMO)
       102                         -0.2592930              -7.0557
       103                         -0.2513498              -6.8396
       104                         -0.2349391              -6.3930
       105                         -0.2327479              -6.3334
       106                         -0.2305994              -6.2749
       107                         -0.2299403              -6.2570
       108                         -0.2253615              -6.1324
       109                         -0.2248708              -6.1190
       110                         -0.2239617              -6.0943
       111                         -0.2204169              -5.9979
       ...                                ...                  ...
       195                          0.6961814              18.9441
      -------------------------------------------------------------
                  HL-Gap            0.0681775 Eh            1.8552 eV

     #   Z          covCN         q      C6AA      α(0)
     1   6 C        2.919    -0.029    28.735     8.791
     2   6 C        2.919    -0.029    28.713     8.787
     3   6 C        2.923    -0.035    28.882     8.813
     4   6 C        2.973     0.007    27.870     8.660
     5   6 C        3.133     0.056    26.531     8.432
     6   7 N        1.890    -0.321    29.181     8.008
     7   6 C        3.200     0.211    23.073     7.828
     8   6 C        2.963     0.078    26.264     8.406
     9   6 C        2.917    -0.044    29.084     8.843
    10   6 C        2.931    -0.018    28.465     8.750
    11   6 C        2.971     0.004    27.941     8.670
    12   6 C        2.974    -0.003    28.087     8.693
    13   6 C        2.923    -0.034    28.836     8.806
    14   6 C        2.920    -0.049    29.205     8.862
    15   6 C        2.922     0.067    26.496     8.441
    16   7 N        2.752    -0.073    22.661     7.070
    17   6 C        2.924     0.064    26.557     8.451
    18   6 C        2.922    -0.047    29.167     8.856
    19   6 C        2.919    -0.030    28.740     8.791
    20   6 C        2.919    -0.038    28.939     8.822
    21   6 C        2.919    -0.029    28.737     8.791
    22   6 C        2.922    -0.047    29.157     8.855
    23   6 C        2.924     0.064    26.556     8.451
    24   6 C        2.922    -0.047    29.164     8.856
    25   6 C        2.919    -0.030    28.739     8.791
    26   6 C        2.919    -0.038    28.937     8.821
    27   6 C        2.919    -0.029    28.735     8.791
    28   6 C        2.922    -0.046    29.154     8.854
    29   6 C        2.920    -0.049    29.217     8.864
    30   6 C        2.923    -0.033    28.821     8.804
    31   6 C        2.912     0.057    26.711     8.475
    32   7 N        1.841    -0.250    27.364     7.752
    33   8 O        1.728    -0.202    17.360     5.626
    34   6 C        3.089     0.097    25.744     8.317
    35   6 C        2.971     0.003    27.961     8.674
    36   6 C        2.923    -0.033    28.833     8.806
    37   6 C        2.919    -0.026    28.663     8.779
    38   6 C        2.919    -0.028    28.689     8.784
    39   6 C        2.918    -0.027    28.679     8.782
    40   6 C        2.925    -0.028    28.698     8.785
    41   6 C        2.926    -0.028    28.698     8.785
    42   6 C        2.918    -0.029    28.718     8.788
    43   1 H        0.926     0.039     2.461     2.453
    44   1 H        0.926     0.039     2.466     2.456
    45   1 H        0.926     0.032     2.557     2.500
    46   1 H        0.926     0.056     2.251     2.346
    47   1 H        0.926     0.052     2.292     2.368
    48   1 H        0.926     0.036     2.502     2.473
    49   1 H        0.926     0.037     2.484     2.464
    50   1 H        0.926     0.033     2.542     2.493
    51   1 H        0.926     0.035     2.517     2.481
    52   1 H        0.926     0.034     2.534     2.489
    53   1 H        0.926     0.035     2.514     2.480
    54   1 H        0.926     0.033     2.541     2.493
    55   1 H        0.926     0.033     2.538     2.491
    56   1 H        0.926     0.035     2.514     2.479
    57   1 H        0.926     0.034     2.533     2.489
    58   1 H        0.926     0.035     2.514     2.480
    59   1 H        0.926     0.033     2.542     2.493
    60   1 H        0.926     0.038     2.478     2.462
    61   1 H        0.926     0.039     2.463     2.454
    62   1 H        0.925     0.043     2.409     2.427
    63   1 H        0.926     0.038     2.472     2.458
    64   1 H        0.926     0.043     2.412     2.429
    65   1 H        0.926     0.042     2.417     2.431
    66   1 H        0.926     0.041     2.433     2.439
    67   1 H        0.926     0.042     2.427     2.436
    68   1 H        0.926     0.042     2.417     2.431
    69   1 H        0.926     0.039     2.466     2.456

molecular dipole:
                 x           y           z       tot (Debye)
 q only:       -0.650      -0.096      -0.050
   full:       -0.824      -0.057      -0.039       2.102

 projected vibrational frequencies (cm⁻¹)
eigval :       -0.00    -0.00     0.00     0.00     0.00     0.00
eigval :       10.19    12.45    16.56    33.33    34.13    35.17
eigval :       39.28    42.84    56.18    58.71    65.58    71.97
eigval :       77.17    90.46   105.81   112.74   129.01   134.56
eigval :      147.73   176.99   206.66   232.36   238.09   248.60
eigval :      254.60   263.50   291.16   313.75   316.80   334.15
eigval :      361.95   368.17   376.54   377.29   378.67   381.90
eigval :      384.35   393.91   402.38   419.41   435.90   456.17
eigval :      479.02   484.54   497.03   513.78   522.06   541.13
eigval :      567.16   584.10   585.91   587.07   592.12   593.61
eigval :      608.31   613.49   625.84   656.69   657.90   660.19
eigval :      665.77   666.39   678.50   683.81   690.73   696.11
eigval :      721.34   726.34   756.50   759.09   760.09   764.28
eigval :      784.72   809.74   837.76   865.64   873.84   874.32
eigval :      874.82   878.37   892.25   894.70   896.61   901.61
eigval :      906.64   909.26   915.22   916.50   923.40   927.26
eigval :      927.32   928.21   928.59   929.00   930.27   930.37
eigval :      930.69   935.95   941.89   963.66   974.98   982.17
eigval :     1003.93  1004.18  1020.92  1023.79  1079.03  1079.69
eigval :     1080.84  1081.22  1082.33  1100.94  1115.56  1117.96
eigval :     1119.64  1119.66  1122.07  1138.40  1146.44  1176.91
eigval :     1178.42  1179.38  1180.09  1184.18  1188.64  1192.74
eigval :     1195.24  1195.92  1204.93  1214.36  1239.44  1246.40
eigval :     1270.41  1275.59  1276.56  1278.25  1280.72  1282.62
eigval :     1289.26  1305.81  1313.82  1315.54  1319.09  1319.85
eigval :     1323.57  1324.90  1336.92  1363.48  1381.26  1414.44
eigval :     1427.30  1429.68  1433.86  1434.38  1440.43  1451.06
eigval :     1468.56  1471.31  1481.49  1493.01  1530.97  1533.52
eigval :     1550.93  1555.18  1561.92  1576.19  1576.37  1580.02
eigval :     1580.25  1590.66  1590.86  1591.34  1596.80  1599.09
eigval :     3053.52  3072.13  3072.58  3072.75  3073.47  3073.96
eigval :     3075.10  3076.43  3077.92  3079.66  3080.11  3081.14
eigval :     3082.32  3082.85  3083.31  3084.89  3085.86  3087.26
eigval :     3089.93  3090.18  3092.54  3093.06  3094.08  3094.78
eigval :     3096.68  3099.45  3110.93

   temp. (K)  partition function   enthalpy   heat capacity  entropy
                                   cal/mol     cal/K/mol   cal/K/mol   J/K/mol
 298.15  VIB  0.119E+17            19646.090    121.904    124.048
         ROT  0.904E+08              888.752      2.981     39.388
         INT  0.108E+25            20534.842    124.885    163.436
         TR   0.122E+29             1481.254      4.968     44.734
         TOT                       22016.0958   129.8528   208.1699   870.9827

       T/K    H(0)-H(T)+PV         H(T)/Eh          T*S/Eh         G(T)/Eh
   ------------------------------------------------------------------------
    298.15    0.350849E-01    0.564757E+00    0.989082E-01    0.465849E+00
   ------------------------------------------------------------------------

         :::::::::::::::::::::::::::::::::::::::::::::::::::::
         ::                  THERMODYNAMIC                  ::
         :::::::::::::::::::::::::::::::::::::::::::::::::::::
         :: total free energy        -107.559218866378 Eh   ::
         ::.................................................::
         :: total energy             -108.025067870097 Eh   ::
         :: zero point energy           0.529672337404 Eh   ::
         :: G(RRHO) w/o ZPVE           -0.063823333685 Eh   ::
         :: G(RRHO) contrib.            0.465849003719 Eh   ::
         :::::::::::::::::::::::::::::::::::::::::::::::::::::

           -------------------------------------------------
          | TOTAL ENERGY             -108.025067870097 Eh   |
          | TOTAL ENTHALPY           -107.460310650752 Eh   |
          | TOTAL FREE ENERGY        -107.559218866378 Eh   |
          | GRADIENT NORM               0.000048766870 Eh/α |
          | HOMO-LUMO GAP               1.855203388996 eV   |
           -------------------------------------------------

 * finished run on 2025/07/18 at 15:08:41.255
