   * xtb version 6.7.1 (edcfbbe) compiled by 'albert@albert-system' on 2024-07-22

   ID    Z sym.   atoms
    1    6 C      1-5, 7-15, 17-31, 34-42
    2    7 N      6, 16, 32
    3    8 O      33
    4    1 H      43-69

          program call               : xtb data2507/toluene/TPA-PPO/TPA-PPO_toluene_T1_crest.xyz --gfn 2 --uhf 2 --gbsa toluene --ohess vtight --parallel 40 --molden --ceasefiles --namespace data2507/toluene/TPA-PPO/TPA-PPO_toluene_T1_finalOpt
      * Solvation model:               GBSA
        Solvent                        toluene
        Solvent mass                       9.2140E+01 g/mol
          :  Hamiltonian                  GFN2-xTB          :
 * total energy  :  -107.9491942 Eh     change       -0.1760867E-08 Eh
 * total energy  :  -107.9493003 Eh     change       -0.1061255E-03 Eh
 * total energy  :  -107.9493417 Eh     change       -0.4131621E-04 Eh
 * total energy  :  -107.9493480 Eh     change       -0.6385136E-05 Eh
 * total energy  :  -107.9493529 Eh     change       -0.4877864E-05 Eh
 * total energy  :  -107.9493570 Eh     change       -0.4058796E-05 Eh
 * total energy  :  -107.9493609 Eh     change       -0.3937885E-05 Eh
 * total energy  :  -107.9493641 Eh     change       -0.3158592E-05 Eh
 * total energy  :  -107.9493661 Eh     change       -0.2012831E-05 Eh
 * total energy  :  -107.9493674 Eh     change       -0.1354870E-05 Eh
 * total energy  :  -107.9493716 Eh     change       -0.7760504E-06 Eh
 * total energy  :  -107.9493720 Eh     change       -0.4028218E-06 Eh
 * total energy  :  -107.9493723 Eh     change       -0.3207885E-06 Eh
 * total energy  :  -107.9493726 Eh     change       -0.3431889E-06 Eh
 * total energy  :  -107.9493730 Eh     change       -0.3886863E-06 Eh
 * total energy  :  -107.9493734 Eh     change       -0.4015048E-06 Eh
 * total energy  :  -107.9493738 Eh     change       -0.4153955E-06 Eh
 * total energy  :  -107.9493742 Eh     change       -0.3134426E-06 Eh
 * total energy  :  -107.9493742 Eh     change       -0.9234896E-08 Eh
   *** GEOMETRY OPTIMIZATION CONVERGED AFTER 22 ITERATIONS ***

 final structure:
================
69
 xtb: 6.7.1 (edcfbbe)
C            8.81204608483823       -3.06855299646905       -1.60756412263530
C            8.81466967508947       -1.70301476463099       -1.84635454886636
C            7.77620296961134       -0.91338072342318       -1.38950687596584
C            6.71932986176646       -1.48581986024529       -0.68152302645314
C            5.59201588827317       -0.68265214327261       -0.22821049031743
N            4.33773437774330       -1.14686567086533       -0.33989442760620
C            3.53621147208908       -0.15781786109956        0.06079613256268
C            2.13934060561916       -0.20769132939825        0.09155793153432
C            1.44179631414976       -1.37457025075707       -0.34562574388074
C            0.08618256624254       -1.36965768776575       -0.39071084502838
C           -0.65119912209317       -0.21097634808758        0.01144308768521
C           -2.07597362093126       -0.15416078314324        0.01301945798346
C           -2.77469418126323        1.07911727232008        0.02913961985954
C           -4.14082805302493        1.13562927715826        0.00526372889268
C           -4.91162059070428       -0.04125297133738       -0.01565982654115
N           -6.29599547647013        0.01547203562737       -0.03305531515176
C           -6.94967171356995        1.05905982992868       -0.69867428564809
C           -6.45298867459655        1.54292539023502       -1.91101455101268
C           -7.10094243912205        2.57430729037667       -2.56195683057101
C           -8.24807069758090        3.13502945239291       -2.02081576116638
C           -8.74648732525543        2.65514206964130       -0.81896238091521
C           -8.10589886730939        1.62554487889597       -0.15797744214710
C           -7.05170388819342       -0.96654235018818        0.61709399301995
C           -6.62225229839949       -1.49624054309422        1.83605103685796
C           -7.37165790643835       -2.46672440605195        2.47158221436959
C           -8.55510143924619       -2.92021332549080        1.90882409466159
C           -8.98725913200079       -2.39408825704091        0.70063498593694
C           -8.24490494980241       -1.42531668515925        0.05451160542690
C           -4.23685915226280       -1.27553569590154       -0.01820464384894
C           -2.87036656416204       -1.32816451773658       -0.01005017349931
C            0.14826726629116        0.86747335767855        0.48078488203903
N            1.44260943272791        0.87819872894769        0.53315162633081
O            4.23570480345552        0.95712507354965        0.43715570106619
C            5.55660013428119        0.62811733740906        0.28234812807551
C            6.55298232123872        1.56163717233974        0.70551729276532
C            6.20483532616038        2.91406290832497        0.87436450628602
C            7.14405970773262        3.83350669289935        1.28625505451707
C            8.44766531676255        3.43467193375285        1.55213461533679
C            8.79788107319014        2.09740584566236        1.41403581061310
C            7.86921633321207        1.16720368041609        1.00047341384871
C            6.71167962092283       -2.86305473548718       -0.46662159874704
C            7.75554948519706       -3.64654815810457       -0.92158595335548
H            9.62755634658395       -3.68134990942878       -1.96251101113852
H            9.62779741796884       -1.25091189239409       -2.39537358622476
H            7.76948783840654        0.14794457156169       -1.59126960501734
H            2.03120089756033       -2.21374901817430       -0.67854301340002
H           -0.43873278867994       -2.22968526274058       -0.77803499972623
H           -2.21709422647294        2.00241877136800        0.04273713447219
H           -4.64135817968104        2.09267039783857        0.02508459910766
H           -5.56824426546299        1.09522328489855       -2.33913201480178
H           -6.71229477154968        2.93735904259378       -3.50172286537299
H           -8.75109459298258        3.94082524318253       -2.53330034023114
H           -9.63601488048409        3.09127474355427       -0.38946241399159
H           -8.48551434535374        1.26158548352245        0.78517762967806
H           -5.70966904426285       -1.12950405355205        2.28221000724788
H           -7.03353640458803       -2.86574870863534        3.41634233690497
H           -9.13759383793613       -3.67850508039493        2.40941125216238
H           -9.90501663205462       -2.74704612526005        0.25453271267874
H           -8.57425904024362       -1.02621942447801       -0.89336953367060
H           -4.81167903926421       -2.18953502595671       -0.05060799412562
H           -2.38810146390581       -2.29280307571703       -0.01138156370000
H           -0.32177750209796        1.74629024384944        0.90472980626220
H            5.18958420311359        3.21763665760014        0.66564334234373
H            6.86269339828350        4.87030210036366        1.40220927944837
H            9.18202730608433        4.15780203260495        1.87373270091094
H            9.80513212152441        1.77883368589528        1.64044571147386
H            8.14135747284049        0.12599916690228        0.92410910476284
H            5.87896664513257       -3.30030413383922        0.06345929896817
H            7.74466680825505       -4.71177291647297       -0.74213394663197

          :  Hamiltonian                  GFN2-xTB          :
         :: gradient norm              0.000057042154 Eh/a0 ::
         :: HOMO-LUMO gap              0.728998078059 eV    ::
         :: SCC energy              -109.884826369258 Eh    ::
         :: -> dispersion             -0.088203758272 Eh    ::
         :: -> Gsolv                  -0.054509540047 Eh    ::
         :: repulsion energy           1.935452198914 Eh    ::

    * Orbital Energies and Occupations

         #    Occupation            Energy/Eh            Energy/eV
      -------------------------------------------------------------
         1        2.0000           -0.7324442             -19.9308
       ...           ...                  ...                  ...
        89        2.0000           -0.4195778             -11.4173
        90        2.0000           -0.4191893             -11.4067
        91        2.0000           -0.4163310             -11.3289
        92        2.0000           -0.4149360             -11.2910
        93        2.0000           -0.4079537             -11.1010
        94        2.0000           -0.4063562             -11.0575
        95        2.0000           -0.4054027             -11.0316
        96        2.0000           -0.3953893             -10.7591
        97        2.0000           -0.3888043             -10.5799
        98        2.0000           -0.3698942             -10.0653
        99        1.9933           -0.3647935              -9.9265
       100        1.0067           -0.3553027              -9.6683
       101        1.0000           -0.2838108              -7.7229 (HOMO)
       102        0.0000           -0.2570206              -6.9939 (LUMO)
       103                         -0.2438570              -6.6357
       104                         -0.2398296              -6.5261
       105                         -0.2380750              -6.4783
       106                         -0.2334997              -6.3539
       107                         -0.2301367              -6.2623
       108                         -0.2272693              -6.1843
       109                         -0.2256745              -6.1409
       110                         -0.2217785              -6.0349
       111                         -0.2180148              -5.9325
       112                         -0.2077020              -5.6519
       ...                                ...                  ...
       195                          0.6958075              18.9339
      -------------------------------------------------------------
                  HL-Gap            0.0267902 Eh            0.7290 eV

     #   Z          covCN         q      C6AA      α(0)
     1   6 C        2.919    -0.029    28.718     8.788
     2   6 C        2.918    -0.029    28.716     8.787
     3   6 C        2.923    -0.033    28.825     8.804
     4   6 C        2.974     0.007    27.864     8.659
     5   6 C        3.115     0.071    26.252     8.393
     6   7 N        1.880    -0.342    29.740     8.084
     7   6 C        3.149     0.201    23.497     7.929
     8   6 C        2.946     0.053    26.799     8.491
     9   6 C        2.911    -0.047    29.176     8.857
    10   6 C        2.920    -0.031    28.769     8.796
    11   6 C        2.966    -0.022    28.555     8.765
    12   6 C        2.968     0.009    27.816     8.651
    13   6 C        2.920    -0.038    28.936     8.821
    14   6 C        2.914    -0.042    29.040     8.837
    15   6 C        2.925     0.055    26.769     8.485
    16   7 N        2.752    -0.027    21.770     6.930
    17   6 C        2.927     0.062    26.605     8.459
    18   6 C        2.921    -0.040    29.000     8.831
    19   6 C        2.919    -0.026    28.644     8.777
    20   6 C        2.919    -0.030    28.750     8.793
    21   6 C        2.919    -0.026    28.645     8.777
    22   6 C        2.921    -0.041    29.016     8.833
    23   6 C        2.927     0.062    26.603     8.458
    24   6 C        2.921    -0.040    29.003     8.832
    25   6 C        2.919    -0.026    28.644     8.776
    26   6 C        2.919    -0.030    28.751     8.793
    27   6 C        2.919    -0.026    28.644     8.777
    28   6 C        2.921    -0.041    29.017     8.834
    29   6 C        2.914    -0.042    29.051     8.838
    30   6 C        2.920    -0.036    28.905     8.817
    31   6 C        2.893     0.065    26.545     8.447
    32   7 N        1.837    -0.260    27.607     7.786
    33   8 O        1.720    -0.247    18.084     5.742
    34   6 C        3.044     0.094    25.865     8.341
    35   6 C        2.968    -0.002    28.066     8.690
    36   6 C        2.925    -0.031    28.768     8.796
    37   6 C        2.916    -0.029    28.722     8.788
    38   6 C        2.919    -0.033    28.810     8.802
    39   6 C        2.916    -0.028    28.710     8.786
    40   6 C        2.921    -0.038    28.955     8.824
    41   6 C        2.925    -0.027    28.665     8.780
    42   6 C        2.918    -0.028    28.712     8.787
    43   1 H        0.926     0.041     2.440     2.443
    44   1 H        0.926     0.040     2.454     2.450
    45   1 H        0.926     0.032     2.559     2.501
    46   1 H        0.926     0.040     2.447     2.446
    47   1 H        0.926     0.037     2.484     2.465
    48   1 H        0.926     0.037     2.488     2.467
    49   1 H        0.926     0.041     2.430     2.438
    50   1 H        0.926     0.043     2.409     2.427
    51   1 H        0.926     0.044     2.399     2.422
    52   1 H        0.926     0.043     2.408     2.426
    53   1 H        0.926     0.045     2.385     2.415
    54   1 H        0.926     0.044     2.399     2.422
    55   1 H        0.926     0.043     2.408     2.427
    56   1 H        0.926     0.044     2.398     2.422
    57   1 H        0.926     0.043     2.407     2.426
    58   1 H        0.926     0.045     2.385     2.415
    59   1 H        0.926     0.044     2.400     2.422
    60   1 H        0.926     0.042     2.418     2.432
    61   1 H        0.926     0.041     2.434     2.440
    62   1 H        0.925     0.035     2.520     2.482
    63   1 H        0.926     0.038     2.481     2.463
    64   1 H        0.926     0.036     2.508     2.476
    65   1 H        0.926     0.037     2.488     2.467
    66   1 H        0.926     0.037     2.484     2.464
    67   1 H        0.926     0.033     2.542     2.493
    68   1 H        0.926     0.041     2.436     2.441
    69   1 H        0.926     0.040     2.451     2.448

molecular dipole:
                 x           y           z       tot (Debye)
 q only:       -4.665      -0.237      -0.209
   full:       -4.748      -0.156      -0.213      12.088

 projected vibrational frequencies (cm⁻¹)
eigval :       -0.00    -0.00    -0.00    -0.00     0.00     0.00
eigval :       -6.70     8.29    19.25    29.85    32.64    37.75
eigval :       43.90    46.02    55.31    59.35    64.16    72.04
eigval :       80.13    92.47   108.05   112.78   133.15   137.63
eigval :      152.12   164.00   213.38   226.50   230.40   237.36
eigval :      256.45   261.99   280.34   298.28   314.63   333.37
eigval :      346.99   366.07   371.20   375.28   376.25   380.11
eigval :      382.89   388.21   395.12   416.35   426.98   443.75
eigval :      458.48   469.88   487.32   504.76   513.58   516.37
eigval :      566.85   578.81   583.04   585.26   587.15   590.96
eigval :      594.26   608.53   618.09   623.10   649.05   651.78
eigval :      656.00   658.86   661.82   663.38   674.67   683.59
eigval :      684.66   717.53   748.29   749.36   757.55   761.97
eigval :      764.05   784.88   807.49   833.45   857.72   860.78
eigval :      870.67   871.54   877.39   886.96   888.13   894.23
eigval :      897.12   901.08   904.54   906.24   911.16   913.78
eigval :      917.27   922.53   923.19   926.53   927.45   928.21
eigval :      928.90   931.62   934.40   936.53   945.25   967.10
eigval :      976.65   999.11  1000.91  1005.32  1034.17  1057.57
eigval :     1071.77  1078.28  1079.01  1079.63  1084.23  1115.49
eigval :     1118.94  1119.06  1121.56  1130.15  1148.85  1166.44
eigval :     1176.57  1176.61  1177.07  1177.74  1178.90  1187.97
eigval :     1189.77  1195.00  1198.02  1215.76  1236.11  1253.66
eigval :     1263.72  1271.73  1272.83  1276.74  1277.50  1281.26
eigval :     1285.21  1295.42  1307.96  1316.02  1317.23  1318.62
eigval :     1323.87  1327.30  1330.85  1348.61  1367.97  1396.95
eigval :     1418.95  1428.84  1429.20  1434.88  1436.76  1438.50
eigval :     1448.80  1455.07  1456.10  1465.54  1468.97  1475.71
eigval :     1489.08  1518.62  1540.77  1562.65  1564.48  1568.62
eigval :     1575.29  1577.10  1577.57  1579.91  1587.62  1592.85
eigval :     3037.61  3071.87  3071.93  3074.16  3074.58  3076.84
eigval :     3079.11  3080.02  3080.20  3081.06  3081.32  3082.28
eigval :     3082.43  3087.38  3088.05  3088.94  3089.19  3091.39
eigval :     3092.42  3092.76  3095.00  3099.15  3099.62  3099.90
eigval :     3100.18  3101.80  3103.18

   temp. (K)  partition function   enthalpy   heat capacity  entropy
                                   cal/mol     cal/K/mol   cal/K/mol   J/K/mol
 298.15  VIB  0.262E+17            19905.972    123.870    126.051
         ROT  0.905E+08              888.752      2.981     39.390
         INT  0.238E+25            20794.724    126.851    165.441
         TR   0.122E+29             1481.254      4.968     44.734
         TOT                       22275.9783   131.8188   210.1748   879.3716

       T/K    H(0)-H(T)+PV         H(T)/Eh          T*S/Eh         G(T)/Eh
   ------------------------------------------------------------------------
    298.15    0.354990E-01    0.561589E+00    0.998609E-01    0.461729E+00
   ------------------------------------------------------------------------

         :::::::::::::::::::::::::::::::::::::::::::::::::::::
         ::                  THERMODYNAMIC                  ::
         :::::::::::::::::::::::::::::::::::::::::::::::::::::
         :: total free energy        -107.487645551222 Eh   ::
         ::.................................................::
         :: total energy             -107.949374170629 Eh   ::
         :: zero point energy           0.526090441300 Eh   ::
         :: G(RRHO) w/o ZPVE           -0.064361821893 Eh   ::
         :: G(RRHO) contrib.            0.461728619407 Eh   ::
         :::::::::::::::::::::::::::::::::::::::::::::::::::::

           -------------------------------------------------
          | TOTAL ENERGY             -107.949374170629 Eh   |
          | TOTAL ENTHALPY           -107.387784698322 Eh   |
          | TOTAL FREE ENERGY        -107.487645551222 Eh   |
          | GRADIENT NORM               0.000056455205 Eh/α |
          | HOMO-LUMO GAP               0.728997712569 eV   |
           -------------------------------------------------

 * finished run on 2025/07/18 at 15:18:05.001
