   * xtb version 6.7.1 (edcfbbe) compiled by 'albert@albert-system' on 2024-07-22

   ID    Z sym.   atoms
    1    7 N      1, 5, 20
    2    6 C      2-4, 6-19, 21-37
    3    1 H      38-58

          program call               : xtb data2507/toluene/3TPAFM/3TPAFM_toluene_S0_finalOpt.xtbopt.xyz --gfn 2 --uhf 2 --gbsa toluene --ohess vtight --parallel 40 --molden --ceasefiles --namespace data2507/toluene/3TPAFM/3TPAFM_toluene_T1_preOpt
      * Solvation model:               GBSA
        Solvent                        toluene
        Solvent mass                       9.2140E+01 g/mol
          :  Hamiltonian                  GFN2-xTB          :
 * total energy  :   -92.1891166 Eh     change       -0.1755311E-08 Eh
 * total energy  :   -92.1932111 Eh     change       -0.4094456E-02 Eh
 * total energy  :   -92.1941043 Eh     change       -0.8932380E-03 Eh
 * total energy  :   -92.1941036 Eh     change        0.7389815E-06 Eh
 * total energy  :   -92.1941978 Eh     change       -0.9422057E-04 Eh
 * total energy  :   -92.1942188 Eh     change       -0.2100279E-04 Eh
 * total energy  :   -92.1942298 Eh     change       -0.1101982E-04 Eh
 * total energy  :   -92.1942499 Eh     change       -0.2009503E-04 Eh
 * total energy  :   -92.1942586 Eh     change       -0.8686423E-05 Eh
 * total energy  :   -92.1942644 Eh     change       -0.5851429E-05 Eh
 * total energy  :   -92.1943717 Eh     change       -0.5705212E-06 Eh
 * total energy  :   -92.1943717 Eh     change       -0.1505539E-07 Eh
 * total energy  :   -92.1943716 Eh     change        0.1046259E-06 Eh
 * total energy  :   -92.1943722 Eh     change       -0.6016989E-06 Eh
 * total energy  :   -92.1943726 Eh     change       -0.4024526E-06 Eh
 * total energy  :   -92.1943730 Eh     change       -0.4376699E-06 Eh
 * total energy  :   -92.1943733 Eh     change       -0.2775236E-06 Eh
 * total energy  :   -92.1943734 Eh     change       -0.1404065E-06 Eh
 * total energy  :   -92.1943734 Eh     change       -0.1864151E-08 Eh
   *** GEOMETRY OPTIMIZATION CONVERGED AFTER 68 ITERATIONS ***

 final structure:
================
58
 xtb: 6.7.1 (edcfbbe)
N            5.83775103893519       -3.96961325634818       -0.36991711615840
C            6.01198055247965       -2.82798369706737       -0.29515937128407
C            6.30137907566280       -1.47064754218936       -0.21000385628431
C            7.67147715513292       -1.23795048710999       -0.25467809874937
N            8.82209865027505       -1.12276931189353       -0.29868841119162
C            5.32052459992354       -0.45241440476282       -0.09960130216906
C            5.56279420647396        0.96717085480711       -0.01171838619463
C            6.74171264508976        1.70426582429507        0.01323591991033
C            6.66870887186093        3.08376009556941        0.10588227144365
C            5.44244765365714        3.74121059825979        0.17471116765733
C            4.25791085846989        3.02692146509931        0.15314440053098
C            4.31141489468068        1.64384531376806        0.06148445791562
C            3.27293914100214        0.65130937120963        0.02760188353875
C            1.90400417868459        0.76258820948412        0.06388833101180
C            1.10476960885368       -0.38770250003875       -0.01016404149831
C           -0.33725882993753       -0.29500816287016        0.00156337135885
C           -1.14143472445732       -1.25871445663961       -0.63754421754527
C           -2.50936859965352       -1.16767872725290       -0.63536520395960
C           -3.15599131023777       -0.10000542662239        0.01048394182154
N           -4.53287134142661       -0.00448276197107        0.01566444153585
C           -5.32581359834678       -1.15856422638951        0.00067946055570
C           -4.94778762872880       -2.28374382053709        0.73762731395796
C           -5.73957870807146       -3.41517278960662        0.72460276585770
C           -6.91200985251571       -3.44223040757332       -0.01607473583898
C           -7.29239221470295       -2.32549509939142       -0.74578258067356
C           -6.50868624474514       -1.18841929892205       -0.74161080476186
C           -5.15667372518864        1.24950097161613        0.03627904435262
C           -6.31212575422979        1.44713991171331        0.79558783728327
C           -6.92824012137953        2.68311873513253        0.80524239941335
C           -6.40669054868260        3.73266590623650        0.06311162359174
C           -5.26105417795909        3.53912655727680       -0.69445202701831
C           -4.63588254660331        2.30773549809237       -0.71244729560232
C           -2.36454786985164        0.86813835159007        0.65266867587803
C           -0.99751299654636        0.76894337456484        0.64678303882600
C            1.74519367098935       -1.65443329437128       -0.09742016071292
C            3.10774307797869       -1.78657721890121       -0.11661687037155
C            3.91323729902704       -0.63733413130460       -0.06841679638192
H            7.70239629157256        1.21423617088670       -0.03795916871216
H            7.58258412164050        3.66027669905858        0.12464966460205
H            5.42191980159991        4.81900889987603        0.24543059770560
H            3.30762182458892        3.53789691180753        0.20640966751480
H            1.45003317770437        1.74092697909620        0.10275299642025
H           -0.67315148121584       -2.06194534162832       -1.18404552901651
H           -3.09895272191654       -1.90055702509666       -1.16543153557805
H           -4.04654297849457       -2.25449456836432        1.33164403789016
H           -5.44451307567441       -4.27769894850088        1.30281874630828
H           -7.52728065551061       -4.32879489569769       -0.02252776105760
H           -8.20099585656691       -2.34380071855777       -1.32827297501829
H           -6.79520193743086       -0.32516009096402       -1.32323943309054
H           -6.70770636086381        0.63427742253235        1.38581251541440
H           -7.81609628998855        2.83086029458232        1.40109777340721
H           -6.89200711598143        4.69650724397879        0.07348163141203
H           -4.85742513186178        4.34946664852911       -1.28246238483141
H           -3.75672851257055        2.14951076534957       -1.31906115150684
H           -2.84489983833540        1.67442736150007        1.18643835913992
H           -0.41829121674117        1.49904981203126        1.18953203658358
H            1.13882039432101       -2.54716863237240       -0.10680606219026
H            3.55866025229889       -2.76583223568706       -0.16681858812270

          :  Hamiltonian                  GFN2-xTB          :
         :: gradient norm              0.000101737017 Eh/a0 ::
         :: HOMO-LUMO gap              1.281471848745 eV    ::
         :: SCC energy               -94.000589522813 Eh    ::
         :: -> dispersion             -0.077818376770 Eh    ::
         :: -> Gsolv                  -0.064378129898 Eh    ::
         :: repulsion energy           1.806216078279 Eh    ::

    * Orbital Energies and Occupations

         #    Occupation            Energy/Eh            Energy/eV
      -------------------------------------------------------------
         1        2.0000           -0.6978418             -18.9892
       ...           ...                  ...                  ...
        75        2.0000           -0.4282020             -11.6520
        76        2.0000           -0.4263919             -11.6027
        77        2.0000           -0.4261018             -11.5948
        78        2.0000           -0.4246114             -11.5543
        79        2.0000           -0.4212089             -11.4617
        80        2.0000           -0.4188780             -11.3983
        81        2.0000           -0.4111925             -11.1891
        82        2.0000           -0.4065301             -11.0622
        83        2.0000           -0.4040527             -10.9948
        84        1.9999           -0.3839186             -10.4470
        85        1.9937           -0.3797979             -10.3348
        86        1.0063           -0.3701796             -10.0731
        87        1.0000           -0.3113968              -8.4735 (HOMO)
        88                         -0.2643039              -7.1921 (LUMO)
        89                         -0.2536922              -6.9033
        90                         -0.2478342              -6.7439
        91                         -0.2452675              -6.6741
        92                         -0.2421806              -6.5901
        93                         -0.2416763              -6.5763
        94                         -0.2293461              -6.2408
        95                         -0.2193336              -5.9684
        96                         -0.2114178              -5.7530
        97                         -0.1943592              -5.2888
        98                         -0.1872097              -5.0942
       ...                                ...                  ...
       169                          1.1706928              31.8562
      -------------------------------------------------------------
                  HL-Gap            0.0470930 Eh            1.2815 eV

     #   Z          covCN         q      C6AA      α(0)
     1   7 N        0.911    -0.343    28.831     7.766
     2   6 C        1.951     0.119    28.160     8.570
     3   6 C        2.945    -0.027    28.687     8.785
     4   6 C        1.951     0.119    28.142     8.567
     5   7 N        0.911    -0.344    28.862     7.770
     6   6 C        3.029    -0.010    28.225     8.714
     7   6 C        3.071    -0.011    28.219     8.710
     8   6 C        2.910    -0.036    28.885     8.813
     9   6 C        2.919    -0.032    28.793     8.799
    10   6 C        2.919    -0.037    28.928     8.820
    11   6 C        2.911    -0.032    28.800     8.800
    12   6 C        3.054    -0.011    28.230     8.714
    13   6 C        3.052    -0.004    28.083     8.691
    14   6 C        2.913    -0.037    28.921     8.819
    15   6 C        2.973     0.008    27.826     8.653
    16   6 C        2.973     0.024    27.461     8.596
    17   6 C        2.921    -0.027    28.682     8.783
    18   6 C        2.916    -0.038    28.947     8.823
    19   6 C        2.926     0.065    26.538     8.448
    20   7 N        2.753    -0.006    21.376     6.867
    21   6 C        2.928     0.061    26.627     8.462
    22   6 C        2.920    -0.037    28.919     8.819
    23   6 C        2.918    -0.023    28.570     8.765
    24   6 C        2.919    -0.024    28.600     8.770
    25   6 C        2.918    -0.023    28.567     8.765
    26   6 C        2.921    -0.037    28.916     8.818
    27   6 C        2.928     0.061    26.628     8.463
    28   6 C        2.920    -0.037    28.913     8.818
    29   6 C        2.918    -0.023    28.567     8.765
    30   6 C        2.919    -0.024    28.601     8.770
    31   6 C        2.918    -0.023    28.571     8.765
    32   6 C        2.920    -0.037    28.917     8.818
    33   6 C        2.916    -0.038    28.947     8.823
    34   6 C        2.921    -0.027    28.682     8.783
    35   6 C        2.920    -0.032    28.800     8.800
    36   6 C        2.905    -0.036    28.884     8.812
    37   6 C        3.065     0.002    27.916     8.664
    38   1 H        0.926     0.020     2.737     2.587
    39   1 H        0.926     0.027     2.633     2.537
    40   1 H        0.926     0.031     2.571     2.508
    41   1 H        0.926     0.035     2.523     2.484
    42   1 H        0.926     0.044     2.395     2.420
    43   1 H        0.926     0.054     2.268     2.355
    44   1 H        0.926     0.055     2.257     2.350
    45   1 H        0.926     0.051     2.311     2.377
    46   1 H        0.926     0.050     2.314     2.379
    47   1 H        0.926     0.049     2.326     2.385
    48   1 H        0.926     0.051     2.303     2.373
    49   1 H        0.926     0.051     2.305     2.374
    50   1 H        0.926     0.051     2.306     2.375
    51   1 H        0.926     0.051     2.304     2.374
    52   1 H        0.926     0.050     2.325     2.385
    53   1 H        0.926     0.051     2.311     2.377
    54   1 H        0.926     0.051     2.309     2.376
    55   1 H        0.926     0.056     2.251     2.346
    56   1 H        0.926     0.056     2.251     2.346
    57   1 H        0.926     0.043     2.412     2.428
    58   1 H        0.926     0.028     2.611     2.527

molecular dipole:
                 x           y           z       tot (Debye)
 q only:      -11.955       2.379       0.346
   full:      -12.047       2.625       0.372      31.354

 projected vibrational frequencies (cm⁻¹)
eigval :       -0.00    -0.00    -0.00     0.00     0.00     0.00
eigval :        8.56    19.33    22.45    30.08    36.94    47.62
eigval :       56.72    66.89    69.52    79.01   101.06   106.99
eigval :      113.68   126.69   132.76   161.75   168.55   190.90
eigval :      219.17   222.44   227.53   233.76   268.44   304.04
eigval :      309.45   320.77   353.69   367.21   373.06   376.63
eigval :      386.78   390.22   396.87   406.97   413.07   422.21
eigval :      431.82   436.03   454.67   480.90   492.57   521.77
eigval :      525.32   543.50   567.23   578.07   580.78   585.92
eigval :      589.00   591.90   593.33   605.34   610.89   640.85
eigval :      656.54   661.73   681.15   687.79   696.30   705.52
eigval :      725.18   758.17   759.35   766.49   802.97   812.15
eigval :      826.87   847.93   860.78   863.93   869.25   870.14
eigval :      895.37   899.38   900.49   901.52   906.49   908.51
eigval :      915.40   916.42   918.23   921.42   927.30   929.31
eigval :      930.03   931.06   931.25   976.71   996.04  1000.86
eigval :     1014.40  1050.48  1073.95  1077.43  1078.41  1118.48
eigval :     1118.88  1120.83  1141.61  1156.55  1173.76  1176.68
eigval :     1177.27  1177.61  1187.21  1190.60  1202.57  1212.52
eigval :     1223.58  1242.44  1243.84  1257.24  1267.08  1269.86
eigval :     1274.28  1285.71  1289.72  1300.93  1314.62  1318.04
eigval :     1323.11  1326.80  1336.77  1347.63  1378.18  1411.03
eigval :     1425.02  1432.05  1434.23  1448.37  1449.05  1452.75
eigval :     1455.01  1461.57  1482.24  1497.71  1508.91  1543.81
eigval :     1561.26  1562.81  1565.85  1567.01  1574.93  1581.17
eigval :     1588.61  2239.50  2306.25  3068.39  3073.38  3083.53
eigval :     3084.07  3085.38  3085.82  3086.71  3087.18  3088.76
eigval :     3089.50  3090.60  3092.36  3093.41  3095.80  3097.33
eigval :     3100.83  3103.48  3104.00  3105.32  3106.23  3107.58

   temp. (K)  partition function   enthalpy   heat capacity  entropy
                                   cal/mol     cal/K/mol   cal/K/mol   J/K/mol
 298.15  VIB  0.288E+14            17277.886    108.196    107.791
         ROT  0.497E+08              888.752      2.981     38.198
         INT  0.143E+22            18166.639    111.177    145.990
         TR   0.991E+28             1481.254      4.968     44.321
         TOT                       19647.8925   116.1451   190.3104   796.2585

       T/K    H(0)-H(T)+PV         H(T)/Eh          T*S/Eh         G(T)/Eh
   ------------------------------------------------------------------------
    298.15    0.313109E-01    0.463816E+00    0.904226E-01    0.373393E+00
   ------------------------------------------------------------------------

         :::::::::::::::::::::::::::::::::::::::::::::::::::::
         ::                  THERMODYNAMIC                  ::
         :::::::::::::::::::::::::::::::::::::::::::::::::::::
         :: total free energy         -91.820980519842 Eh   ::
         ::.................................................::
         :: total energy              -92.194373443583 Eh   ::
         :: zero point energy           0.432504607011 Eh   ::
         :: G(RRHO) w/o ZPVE           -0.059111683270 Eh   ::
         :: G(RRHO) contrib.            0.373392923741 Eh   ::
         :::::::::::::::::::::::::::::::::::::::::::::::::::::

           -------------------------------------------------
          | TOTAL ENERGY              -92.194373443583 Eh   |
          | TOTAL ENTHALPY            -91.730557926867 Eh   |
          | TOTAL FREE ENERGY         -91.820980519842 Eh   |
          | GRADIENT NORM               0.000101966403 Eh/α |
          | HOMO-LUMO GAP               1.281464906310 eV   |
           -------------------------------------------------

 * finished run on 2025/07/20 at 08:06:33.544
