   * xtb version 6.7.1 (edcfbbe) compiled by 'albert@albert-system' on 2024-07-22

   ID    Z sym.   atoms
    1    7 N      1, 5, 20
    2    6 C      2-4, 6-19, 21-37
    3    1 H      38-58

          program call               : xtb data2507/toluene/3TPAFM/3TPAFM_toluene_S0_crest.xyz --gfn 2 --gbsa toluene --ohess vtight --parallel 40 --molden --ceasefiles --namespace data2507/toluene/3TPAFM/3TPAFM_toluene_S0_finalOpt
      * Solvation model:               GBSA
        Solvent                        toluene
        Solvent mass                       9.2140E+01 g/mol
          :  Hamiltonian                  GFN2-xTB          :
 * total energy  :   -92.2446693 Eh     change       -0.2360736E-08 Eh
 * total energy  :   -92.2447081 Eh     change       -0.3878680E-04 Eh
 * total energy  :   -92.2446844 Eh     change        0.2365571E-04 Eh
 * total energy  :   -92.2447223 Eh     change       -0.3788808E-04 Eh
 * total energy  :   -92.2447118 Eh     change        0.1046764E-04 Eh
 * total energy  :   -92.2447288 Eh     change       -0.1693733E-04 Eh
 * total energy  :   -92.2447308 Eh     change       -0.2042634E-05 Eh
 * total energy  :   -92.2447333 Eh     change       -0.2471473E-05 Eh
 * total energy  :   -92.2447360 Eh     change       -0.2707116E-05 Eh
 * total energy  :   -92.2447380 Eh     change       -0.1961321E-05 Eh
 * total energy  :   -92.2447684 Eh     change        0.6563244E-06 Eh
 * total energy  :   -92.2447659 Eh     change        0.2487041E-05 Eh
 * total energy  :   -92.2447691 Eh     change       -0.3202004E-05 Eh
 * total energy  :   -92.2447692 Eh     change       -0.6502145E-07 Eh
 * total energy  :   -92.2447694 Eh     change       -0.1773671E-06 Eh
 * total energy  :   -92.2447696 Eh     change       -0.1796447E-06 Eh
 * total energy  :   -92.2447697 Eh     change       -0.1332011E-06 Eh
 * total energy  :   -92.2447697 Eh     change        0.7307634E-08 Eh
 * total energy  :   -92.2447698 Eh     change       -0.7877105E-07 Eh
   *** GEOMETRY OPTIMIZATION CONVERGED AFTER 29 ITERATIONS ***

 final structure:
================
58
 xtb: 6.7.1 (edcfbbe)
N            5.88021575805199       -3.95465997235419        0.32819716057476
C            6.02528232681370       -2.81738230684470        0.24340508805011
C            6.29807994326606       -1.43902217383813        0.14145504698514
C            7.68712994898630       -1.20656440405710        0.14821716820678
N            8.83161541807961       -1.09785953621862        0.16116945708883
C            5.34115479717652       -0.46076148845609        0.05193459503867
C            5.57425170224130        0.97827359627239       -0.05370134880312
C            6.74755828665359        1.71149381657865       -0.10696455137826
C            6.66369814280703        3.09546296130459       -0.20979319463987
C            5.43612198022914        3.73497484463056       -0.25798401025118
C            4.25056283891250        3.00846056677379       -0.20482037405600
C            4.32407619673750        1.63533560547540       -0.10410968647205
C            3.27753782451233        0.62158884263838       -0.03117769990175
C            1.90918940741728        0.74213268704245       -0.03683120952448
C            1.11652661735976       -0.41448860971405        0.02946608225610
C           -0.34132035085833       -0.30927440343166        0.02037293570452
C           -1.12878154358318       -1.24599036448871       -0.65439272159348
C           -2.50128026112345       -1.14249592637758       -0.67313393681381
C           -3.14781356031184       -0.10392249056090        0.00532714379657
N           -4.53320985005985       -0.00291462642094       -0.00197744779019
C           -5.33183552988607       -1.15572071375803       -0.06856793636797
C           -4.98734074188939       -2.30052220799740        0.64919116685585
C           -5.78140934069857       -3.42935871695652        0.57918392648543
C           -6.92948834553209       -3.43273837323438       -0.19678318865218
C           -7.27997099033708       -2.29454850208270       -0.90515869407637
C           -6.48797614027352       -1.16357116619618       -0.84782345165914
C           -5.15727430216707        1.25307876362350        0.05993938886181
C           -6.30864403199283        1.42737196208673        0.82681116917961
C           -6.92789004743021        2.66162831823043        0.88035173967638
C           -6.40831859317224        3.73823489492959        0.17947796758512
C           -5.26446968011805        3.56952431695587       -0.58428697280450
C           -4.64258392517560        2.33714752048292       -0.65026169165542
C           -2.36453710861108        0.83032590747562        0.69107628816970
C           -0.99146408634327        0.73289353255010        0.68694964752527
C            1.74127976776821       -1.66274403392950        0.10217971408425
C            3.11928811318503       -1.79096696161569        0.11965085759887
C            3.90178051958395       -0.64634186831373        0.05354026614158
H            7.71238684504347        1.23067874437542       -0.07056715533009
H            7.57302805111588        3.67585626020605       -0.25242211507801
H            5.39890052446509        4.81127427683029       -0.33806729825009
H            3.29669655854363        3.51177526610803       -0.24325473536666
H            1.44315715379277        1.71185906068359       -0.11844736793595
H           -0.65360501280593       -2.04289577161473       -1.20684450848312
H           -3.08805869623851       -1.86227640231467       -1.22442773671375
H           -4.09882534706920       -2.29661407742796        1.26370102488889
H           -5.50558593292297       -4.30960518667084        1.14137799732749
H           -7.54834435616589       -4.31596984239241       -0.24687695122040
H           -8.17217769770115       -2.28928667907936       -1.51412829047916
H           -6.75806532909246       -0.27963654014600       -1.40706623464324
H           -6.71052833829634        0.59092238385419        1.37987926015400
H           -7.81778795386308        2.78477528392840        1.48019137347492
H           -6.89291749109427        4.70186410278065        0.22675405902840
H           -4.85773497686831        4.40126960500750       -1.14081752210528
H           -3.75779050719614        2.20455212116123       -1.25576748233657
H           -2.84647033173813        1.62746343422511        1.23757780283533
H           -0.41239627954103        1.45194136831621        1.24698780980688
H            1.13414532697581       -2.55240623421137        0.17235705021591
H            3.56659048133218       -2.77032290042665        0.18764377168511

          :  Hamiltonian                  GFN2-xTB          :
         :: gradient norm              0.000050363157 Eh/a0 ::
         :: HOMO-LUMO gap              0.744208412411 eV    ::
         :: SCC energy               -94.066803399037 Eh    ::
         :: -> dispersion             -0.078005639502 Eh    ::
         :: -> Gsolv                  -0.045986411306 Eh    ::
         :: repulsion energy           1.822033632562 Eh    ::

    * Orbital Energies and Occupations

         #    Occupation            Energy/Eh            Energy/eV
      -------------------------------------------------------------
         1        2.0000           -0.6811594             -18.5353
       ...           ...                  ...                  ...
        74        2.0000           -0.4293950             -11.6844
        75        2.0000           -0.4286395             -11.6639
        76        2.0000           -0.4267509             -11.6125
        77        2.0000           -0.4248490             -11.5607
        78        2.0000           -0.4203407             -11.4381
        79        2.0000           -0.4139625             -11.2645
        80        2.0000           -0.4130050             -11.2384
        81        2.0000           -0.4121444             -11.2150
        82        2.0000           -0.4092959             -11.1375
        83        2.0000           -0.4088471             -11.1253
        84        2.0000           -0.4026120             -10.9556
        85        2.0000           -0.3944417             -10.7333
        86        2.0000           -0.3553343              -9.6691 (HOMO)
        87        0.0000           -0.3279851              -8.9249 (LUMO)
        88                         -0.2602660              -7.0822
        89                         -0.2533682              -6.8945
        90                         -0.2459222              -6.6919
        91                         -0.2348852              -6.3916
        92                         -0.2320555              -6.3146
        93                         -0.2291918              -6.2366
        94                         -0.2268460              -6.1728
        95                         -0.2259368              -6.1481
        96                         -0.2213159              -6.0223
        97                         -0.2101541              -5.7186
       ...                                ...                  ...
       169                          1.1532154              31.3806
      -------------------------------------------------------------
                  HL-Gap            0.0273492 Eh            0.7442 eV

     #   Z          covCN         q      C6AA      α(0)
     1   7 N        0.911    -0.275    27.097     7.529
     2   6 C        1.943     0.129    27.919     8.533
     3   6 C        2.946    -0.000    28.031     8.684
     4   6 C        1.943     0.129    27.923     8.534
     5   7 N        0.911    -0.275    27.114     7.531
     6   6 C        3.029     0.037    27.143     8.546
     7   6 C        3.052    -0.003    28.054     8.687
     8   6 C        2.913    -0.025    28.616     8.772
     9   6 C        2.920    -0.027    28.684     8.783
    10   6 C        2.921    -0.021    28.534     8.760
    11   6 C        2.912    -0.028    28.699     8.784
    12   6 C        3.052     0.008    27.800     8.647
    13   6 C        3.050     0.007    27.815     8.650
    14   6 C        2.917    -0.034    28.849     8.808
    15   6 C        2.976     0.023    27.495     8.601
    16   6 C        2.976     0.001    27.993     8.679
    17   6 C        2.923    -0.032    28.790     8.799
    18   6 C        2.920    -0.048    29.204     8.862
    19   6 C        2.922     0.068    26.484     8.439
    20   7 N        2.752    -0.068    22.559     7.054
    21   6 C        2.925     0.064    26.562     8.452
    22   6 C        2.922    -0.046    29.140     8.852
    23   6 C        2.919    -0.029    28.727     8.789
    24   6 C        2.919    -0.036    28.908     8.817
    25   6 C        2.919    -0.029    28.723     8.789
    26   6 C        2.922    -0.046    29.133     8.851
    27   6 C        2.925     0.064    26.562     8.452
    28   6 C        2.922    -0.046    29.133     8.851
    29   6 C        2.919    -0.029    28.722     8.789
    30   6 C        2.919    -0.037    28.911     8.817
    31   6 C        2.919    -0.029    28.729     8.790
    32   6 C        2.922    -0.046    29.143     8.853
    33   6 C        2.920    -0.049    29.213     8.863
    34   6 C        2.923    -0.032    28.793     8.800
    35   6 C        2.924    -0.035    28.882     8.813
    36   6 C        2.910    -0.025    28.623     8.773
    37   6 C        3.051    -0.009    28.188     8.707
    38   1 H        0.926     0.039     2.466     2.456
    39   1 H        0.926     0.045     2.377     2.411
    40   1 H        0.926     0.050     2.324     2.384
    41   1 H        0.926     0.050     2.322     2.383
    42   1 H        0.926     0.051     2.305     2.374
    43   1 H        0.926     0.040     2.448     2.447
    44   1 H        0.926     0.037     2.485     2.465
    45   1 H        0.926     0.035     2.513     2.479
    46   1 H        0.926     0.036     2.501     2.473
    47   1 H        0.926     0.035     2.522     2.483
    48   1 H        0.926     0.036     2.502     2.474
    49   1 H        0.926     0.034     2.525     2.485
    50   1 H        0.926     0.034     2.530     2.488
    51   1 H        0.926     0.036     2.505     2.475
    52   1 H        0.926     0.035     2.521     2.483
    53   1 H        0.926     0.036     2.497     2.471
    54   1 H        0.926     0.036     2.507     2.476
    55   1 H        0.926     0.038     2.475     2.460
    56   1 H        0.926     0.042     2.428     2.437
    57   1 H        0.926     0.046     2.370     2.407
    58   1 H        0.926     0.038     2.477     2.461

molecular dipole:
                 x           y           z       tot (Debye)
 q only:       -3.746       2.170      -0.192
   full:       -3.968       2.406      -0.217      11.808

 projected vibrational frequencies (cm⁻¹)
eigval :       -0.00    -0.00    -0.00     0.00     0.00     0.00
eigval :       15.59    20.43    23.62    40.35    46.71    52.22
eigval :       57.85    68.15    70.68    75.83   104.32   107.91
eigval :      114.53   128.21   133.08   159.78   167.69   193.15
eigval :      217.97   221.72   227.68   236.95   270.42   303.77
eigval :      309.36   331.30   352.65   375.63   378.60   380.84
eigval :      389.92   395.92   396.17   407.68   423.72   433.02
eigval :      443.88   450.08   457.36   488.01   494.09   512.67
eigval :      540.82   560.13   582.93   583.36   587.45   591.38
eigval :      592.80   595.21   606.54   613.10   633.03   643.40
eigval :      661.36   667.56   685.19   692.94   708.66   718.87
eigval :      729.16   757.57   761.99   780.54   810.47   817.47
eigval :      835.92   865.25   873.52   876.08   876.51   877.19
eigval :      893.30   896.07   899.22   909.17   913.84   914.37
eigval :      919.30   921.77   926.29   928.10   929.11   929.53
eigval :      930.30   932.19   933.29   982.39  1004.04  1007.73
eigval :     1028.30  1072.74  1078.34  1080.60  1082.26  1114.21
eigval :     1119.73  1121.87  1142.38  1149.94  1176.39  1177.99
eigval :     1179.39  1183.81  1192.28  1194.98  1197.55  1201.17
eigval :     1214.22  1218.84  1235.08  1247.29  1269.82  1273.38
eigval :     1275.93  1279.18  1297.23  1302.62  1313.85  1317.68
eigval :     1322.84  1326.21  1328.22  1367.56  1404.14  1416.63
eigval :     1427.93  1434.01  1439.52  1449.84  1460.36  1466.98
eigval :     1470.05  1494.40  1529.22  1543.39  1559.51  1575.91
eigval :     1577.13  1580.34  1581.71  1589.82  1592.48  1598.06
eigval :     1608.92  2315.33  2346.42  3073.71  3073.85  3074.51
eigval :     3075.16  3079.50  3081.14  3082.05  3083.35  3083.99
eigval :     3085.73  3086.65  3090.50  3090.99  3092.45  3093.61
eigval :     3095.15  3095.58  3095.98  3098.69  3112.20  3114.81

   temp. (K)  partition function   enthalpy   heat capacity  entropy
                                   cal/mol     cal/K/mol   cal/K/mol   J/K/mol
 298.15  VIB  0.684E+13            17083.981    107.821    106.211
         ROT  0.498E+08              888.752      2.981     38.201
         INT  0.340E+21            17972.733    110.802    144.412
         TR   0.991E+28             1481.254      4.968     44.321
         TOT                       19453.9870   115.7697   188.7324   789.6564

       T/K    H(0)-H(T)+PV         H(T)/Eh          T*S/Eh         G(T)/Eh
   ------------------------------------------------------------------------
    298.15    0.310019E-01    0.465634E+00    0.896729E-01    0.375961E+00
   ------------------------------------------------------------------------

         :::::::::::::::::::::::::::::::::::::::::::::::::::::
         ::                  THERMODYNAMIC                  ::
         :::::::::::::::::::::::::::::::::::::::::::::::::::::
         :: total free energy         -91.868808386515 Eh   ::
         ::.................................................::
         :: total energy              -92.244769764893 Eh   ::
         :: zero point energy           0.434632335553 Eh   ::
         :: G(RRHO) w/o ZPVE           -0.058670957175 Eh   ::
         :: G(RRHO) contrib.            0.375961378378 Eh   ::
         :::::::::::::::::::::::::::::::::::::::::::::::::::::

           -------------------------------------------------
          | TOTAL ENERGY              -92.244769764893 Eh   |
          | TOTAL ENTHALPY            -91.779135527671 Eh   |
          | TOTAL FREE ENERGY         -91.868808386515 Eh   |
          | GRADIENT NORM               0.000050347264 Eh/α |
          | HOMO-LUMO GAP               0.744209341493 eV   |
           -------------------------------------------------

 * finished run on 2025/07/20 at 08:06:28.536
