   * xtb version 6.7.1 (edcfbbe) compiled by 'albert@albert-system' on 2024-07-22

   ID    Z sym.   atoms
    1    7 N      1, 5, 20
    2    6 C      2-4, 6-19, 21-37
    3    1 H      38-58

          program call               : xtb data2507/toluene/3TPAFM/3TPAFM_toluene_T1_crest.xyz --gfn 2 --uhf 2 --gbsa toluene --ohess vtight --parallel 40 --molden --ceasefiles --namespace data2507/toluene/3TPAFM/3TPAFM_toluene_T1_finalOpt
      * Solvation model:               GBSA
        Solvent                        toluene
        Solvent mass                       9.2140E+01 g/mol
          :  Hamiltonian                  GFN2-xTB          :
 * total energy  :   -92.1941576 Eh     change       -0.2297327E-08 Eh
 * total energy  :   -92.1942732 Eh     change       -0.1155785E-03 Eh
 * total energy  :   -92.1943007 Eh     change       -0.2744062E-04 Eh
 * total energy  :   -92.1942732 Eh     change        0.2743005E-04 Eh
 * total energy  :   -92.1943127 Eh     change       -0.3950925E-04 Eh
 * total energy  :   -92.1943124 Eh     change        0.3681794E-06 Eh
 * total energy  :   -92.1943179 Eh     change       -0.5515839E-05 Eh
 * total energy  :   -92.1943191 Eh     change       -0.1221880E-05 Eh
 * total energy  :   -92.1943200 Eh     change       -0.8695006E-06 Eh
 * total energy  :   -92.1943198 Eh     change        0.1861203E-06 Eh
 * total energy  :   -92.1943229 Eh     change       -0.1034482E-05 Eh
 * total energy  :   -92.1943239 Eh     change       -0.9717038E-06 Eh
 * total energy  :   -92.1943245 Eh     change       -0.6587506E-06 Eh
 * total energy  :   -92.1943250 Eh     change       -0.5203028E-06 Eh
 * total energy  :   -92.1943256 Eh     change       -0.5796634E-06 Eh
 * total energy  :   -92.1943263 Eh     change       -0.6738068E-06 Eh
 * total energy  :   -92.1943269 Eh     change       -0.5736469E-06 Eh
 * total energy  :   -92.1943272 Eh     change       -0.3459648E-06 Eh
 * total energy  :   -92.1943272 Eh     change       -0.3842743E-08 Eh
   *** GEOMETRY OPTIMIZATION CONVERGED AFTER 22 ITERATIONS ***

 final structure:
================
58
 xtb: 6.7.1 (edcfbbe)
N            5.85131929456396       -3.96520343316619        0.12770940418941
C            6.02232461268754       -2.82103837515907        0.09589881088589
C            6.30900828754070       -1.46098890616966        0.05939535916810
C            7.67992956461070       -1.22921629599818        0.07632036748785
N            8.83142390925340       -1.11574483747819        0.09342340051551
C            5.32559601059474       -0.44022177742577        0.01466140801656
C            5.56519254574943        0.98210283893721       -0.02043771969586
C            6.74291135217756        1.72134280552108       -0.03721034197175
C            6.66727834154084        3.10325424415375       -0.07444478221908
C            5.43951888809697        3.76113759097391       -0.09549521097917
C            4.25608732082140        3.04485844128083       -0.08030051021507
C            4.31219291058159        1.65936253783847       -0.04348897968755
C            3.27518277587325        0.66481386698204       -0.03055850806323
C            1.90573718984954        0.77518941673119       -0.04288894979514
C            1.10884064999013       -0.37841828231391       -0.00304792966824
C           -0.33339144028203       -0.28854350685515       -0.00198366044623
C           -1.13254370566577       -1.27744360682001        0.60412566364363
C           -2.50076645093700       -1.19138797274836        0.60831887358087
C           -3.15293915845758       -0.10353685754860        0.00267449077969
N           -4.52973475844641       -0.01403550634794        0.00334746820838
C           -5.31803699470532       -1.17174878425018       -0.01442664815205
C           -6.49199804871759       -1.23232633069067        0.73975109980145
C           -7.27119677888125       -2.37223680609945        0.71284026436925
C           -6.89569361496063       -3.46007528262573       -0.06163617352652
C           -5.73242514155027       -3.40183956495927       -0.81482496446379
C           -4.94427080099936       -2.26785694788186       -0.79563517643267
C           -5.16118679628134        1.23624395456357        0.01866195343864
C           -4.64888665867150        2.27554212515633        0.79892452340928
C           -5.28152382679754        3.50317813138493        0.81392760476464
C           -6.42591043886381        3.71138033925514        0.05835566199999
C           -6.93926831456359        2.68029452471435       -0.71468534252816
C           -6.31604272122045        1.44807956606352       -0.73768402214160
C           -2.36638448425388        0.89042145900636       -0.60537401280863
C           -0.99906413529770        0.79597653148947       -0.60618460032448
C            1.75168827892591       -1.64648048971146        0.03049099497661
C            3.11450142786604       -1.77708059205095        0.02382227966945
C            3.91806506846114       -0.62565503562883        0.00440806124588
H            7.70470693781749        1.23110624116378       -0.02273233034514
H            7.58028151716617        3.68133573087139       -0.08685305817672
H            5.41691896918417        4.84083892037955       -0.12386865593770
H            3.30465090632192        3.55624529646844       -0.09620806078264
H            1.45009275519264        1.75352595958572       -0.03840618905688
H           -0.66007894620995       -2.09829207053064        1.12000314908365
H           -3.08652805185387       -1.94550194932303        1.11221015060501
H           -6.77483674082876       -0.39082865188979        1.35417948460351
H           -8.17254231612330       -2.41541791816104        1.30519830154120
H           -7.50779941750277       -4.34867706652456       -0.07991115410395
H           -5.44151672546315       -4.24164984648464       -1.42751614554579
H           -4.04964149150243       -2.21344524208914       -1.39784811741170
H           -3.77042426426388        2.10512956062653        1.40323210704570
H           -4.88451782596334        4.29913717659826        1.42560497943420
H           -6.91662020400615        4.67241837715447        0.07332623406440
H           -7.82603396012543        2.83985286739481       -1.30912105099976
H           -6.70520789741123        0.64962334340697       -1.35136932618352
H           -2.85072231985018        1.71361211945953       -1.10883752309591
H           -0.42371612097268        1.54746376833932       -1.12330116929209
H            1.14654278445927       -2.53997323326178        0.01698912523684
H            3.56710552000365       -2.75678683740579        0.03157669128519

          :  Hamiltonian                  GFN2-xTB          :
         :: gradient norm              0.000081164131 Eh/a0 ::
         :: HOMO-LUMO gap              1.282703660282 eV    ::
         :: SCC energy               -94.000605878302 Eh    ::
         :: -> dispersion             -0.077811100905 Eh    ::
         :: -> Gsolv                  -0.064317609686 Eh    ::
         :: repulsion energy           1.806278656134 Eh    ::

    * Orbital Energies and Occupations

         #    Occupation            Energy/Eh            Energy/eV
      -------------------------------------------------------------
         1        2.0000           -0.6978163             -18.9885
       ...           ...                  ...                  ...
        75        2.0000           -0.4282233             -11.6525
        76        2.0000           -0.4263956             -11.6028
        77        2.0000           -0.4261393             -11.5958
        78        2.0000           -0.4246314             -11.5548
        79        2.0000           -0.4212070             -11.4616
        80        2.0000           -0.4188756             -11.3982
        81        2.0000           -0.4111972             -11.1892
        82        2.0000           -0.4065426             -11.0626
        83        2.0000           -0.4040969             -10.9960
        84        1.9999           -0.3839719             -10.4484
        85        1.9938           -0.3798107             -10.3352
        86        1.0063           -0.3701675             -10.0728
        87        1.0000           -0.3113992              -8.4736 (HOMO)
        88                         -0.2642611              -7.1909 (LUMO)
        89                         -0.2536612              -6.9025
        90                         -0.2478143              -6.7434
        91                         -0.2452721              -6.6742
        92                         -0.2422125              -6.5909
        93                         -0.2416804              -6.5765
        94                         -0.2294715              -6.2442
        95                         -0.2193919              -5.9700
        96                         -0.2114159              -5.7529
        97                         -0.1943632              -5.2889
        98                         -0.1872188              -5.0945
       ...                                ...                  ...
       169                          1.1705560              31.8525
      -------------------------------------------------------------
                  HL-Gap            0.0471381 Eh            1.2827 eV

     #   Z          covCN         q      C6AA      α(0)
     1   7 N        0.911    -0.343    28.832     7.766
     2   6 C        1.952     0.119    28.159     8.570
     3   6 C        2.945    -0.027    28.686     8.784
     4   6 C        1.952     0.119    28.142     8.567
     5   7 N        0.911    -0.344    28.861     7.770
     6   6 C        3.029    -0.010    28.225     8.714
     7   6 C        3.071    -0.011    28.219     8.710
     8   6 C        2.911    -0.036    28.885     8.813
     9   6 C        2.919    -0.032    28.793     8.799
    10   6 C        2.919    -0.037    28.928     8.820
    11   6 C        2.911    -0.032    28.800     8.800
    12   6 C        3.055    -0.011    28.230     8.714
    13   6 C        3.052    -0.004    28.083     8.691
    14   6 C        2.913    -0.037    28.922     8.819
    15   6 C        2.973     0.008    27.826     8.653
    16   6 C        2.973     0.024    27.461     8.596
    17   6 C        2.921    -0.027    28.681     8.782
    18   6 C        2.916    -0.038    28.949     8.823
    19   6 C        2.925     0.065    26.534     8.447
    20   7 N        2.753    -0.006    21.379     6.867
    21   6 C        2.928     0.061    26.629     8.463
    22   6 C        2.921    -0.037    28.914     8.818
    23   6 C        2.918    -0.023    28.567     8.765
    24   6 C        2.919    -0.024    28.600     8.770
    25   6 C        2.918    -0.023    28.570     8.765
    26   6 C        2.920    -0.037    28.916     8.818
    27   6 C        2.928     0.061    26.628     8.463
    28   6 C        2.920    -0.037    28.917     8.818
    29   6 C        2.918    -0.023    28.571     8.765
    30   6 C        2.919    -0.024    28.602     8.770
    31   6 C        2.918    -0.022    28.567     8.765
    32   6 C        2.921    -0.037    28.913     8.818
    33   6 C        2.916    -0.038    28.950     8.823
    34   6 C        2.921    -0.027    28.682     8.782
    35   6 C        2.920    -0.032    28.799     8.800
    36   6 C        2.905    -0.036    28.884     8.812
    37   6 C        3.065     0.002    27.914     8.664
    38   1 H        0.926     0.020     2.737     2.587
    39   1 H        0.926     0.027     2.633     2.537
    40   1 H        0.926     0.031     2.572     2.508
    41   1 H        0.926     0.035     2.523     2.484
    42   1 H        0.926     0.044     2.395     2.420
    43   1 H        0.926     0.054     2.268     2.355
    44   1 H        0.926     0.055     2.258     2.350
    45   1 H        0.926     0.051     2.306     2.374
    46   1 H        0.926     0.051     2.303     2.373
    47   1 H        0.926     0.049     2.326     2.385
    48   1 H        0.926     0.051     2.313     2.379
    49   1 H        0.926     0.051     2.311     2.377
    50   1 H        0.926     0.051     2.308     2.376
    51   1 H        0.926     0.051     2.311     2.377
    52   1 H        0.926     0.050     2.326     2.385
    53   1 H        0.926     0.051     2.304     2.374
    54   1 H        0.926     0.051     2.308     2.376
    55   1 H        0.926     0.056     2.251     2.346
    56   1 H        0.926     0.056     2.251     2.346
    57   1 H        0.926     0.043     2.411     2.428
    58   1 H        0.926     0.028     2.611     2.527

molecular dipole:
                 x           y           z       tot (Debye)
 q only:      -11.961       2.361      -0.110
   full:      -12.055       2.609      -0.122      31.352

 projected vibrational frequencies (cm⁻¹)
eigval :       -0.00    -0.00    -0.00     0.00     0.00     0.00
eigval :        2.80     8.72    22.08    24.52    37.86    47.19
eigval :       55.49    66.68    69.34    73.95    97.84   106.16
eigval :      112.98   122.91   132.08   161.63   168.06   189.48
eigval :      219.36   220.00   227.13   233.41   265.11   303.79
eigval :      308.16   320.74   353.46   364.64   373.48   375.80
eigval :      384.93   388.15   394.58   406.95   411.72   421.66
eigval :      430.37   436.20   454.61   480.72   492.28   517.23
eigval :      525.14   543.49   563.00   577.93   580.32   585.85
eigval :      587.29   591.97   592.94   605.17   610.71   640.96
eigval :      657.34   662.02   679.18   687.65   693.77   701.63
eigval :      724.98   757.77   758.97   765.70   804.04   812.21
eigval :      828.46   849.46   864.55   865.53   868.52   870.03
eigval :      895.27   899.55   899.98   901.19   907.21   908.91
eigval :      915.49   915.55   919.57   921.96   926.30   928.77
eigval :      929.01   929.53   931.42   976.72   996.06  1000.88
eigval :     1014.42  1050.45  1073.75  1076.95  1078.10  1118.23
eigval :     1118.41  1120.46  1142.06  1156.48  1173.76  1174.89
eigval :     1176.47  1177.08  1186.49  1190.86  1202.21  1212.94
eigval :     1223.49  1242.03  1243.49  1257.35  1267.23  1269.69
eigval :     1274.11  1285.74  1289.66  1300.71  1314.65  1318.54
eigval :     1323.11  1326.91  1336.56  1347.51  1378.20  1410.87
eigval :     1425.17  1432.24  1434.20  1448.32  1449.23  1452.67
eigval :     1454.97  1461.43  1482.09  1497.55  1508.73  1543.84
eigval :     1561.22  1563.15  1565.70  1567.09  1575.07  1581.25
eigval :     1588.63  2239.26  2306.05  3068.18  3073.23  3083.44
eigval :     3083.92  3085.39  3085.64  3086.69  3087.36  3089.14
eigval :     3090.19  3091.13  3092.27  3093.54  3095.72  3097.32
eigval :     3101.13  3103.37  3104.10  3105.71  3106.62  3107.85

   temp. (K)  partition function   enthalpy   heat capacity  entropy
                                   cal/mol     cal/K/mol   cal/K/mol   J/K/mol
 298.15  VIB  0.273E+15            17350.785    108.142    110.173
         ROT  0.497E+08              888.752      2.981     38.199
         INT  0.136E+23            18239.537    111.123    148.372
         TR   0.991E+28             1481.254      4.968     44.321
         TOT                       19720.7910   116.0911   192.6931   806.2280

       T/K    H(0)-H(T)+PV         H(T)/Eh          T*S/Eh         G(T)/Eh
   ------------------------------------------------------------------------
    298.15    0.314271E-01    0.463750E+00    0.915547E-01    0.372195E+00
   ------------------------------------------------------------------------

         :::::::::::::::::::::::::::::::::::::::::::::::::::::
         ::                  THERMODYNAMIC                  ::
         :::::::::::::::::::::::::::::::::::::::::::::::::::::
         :: total free energy         -91.822131813643 Eh   ::
         ::.................................................::
         :: total energy              -92.194327221329 Eh   ::
         :: zero point energy           0.432323040492 Eh   ::
         :: G(RRHO) w/o ZPVE           -0.060127632806 Eh   ::
         :: G(RRHO) contrib.            0.372195407686 Eh   ::
         :::::::::::::::::::::::::::::::::::::::::::::::::::::

           -------------------------------------------------
          | TOTAL ENERGY              -92.194327221329 Eh   |
          | TOTAL ENTHALPY            -91.730577099905 Eh   |
          | TOTAL FREE ENERGY         -91.822131813643 Eh   |
          | GRADIENT NORM               0.000080734197 Eh/α |
          | HOMO-LUMO GAP               1.282692694669 eV   |
           -------------------------------------------------

 * finished run on 2025/07/20 at 08:09:32.301
