   * xtb version 6.7.1 (edcfbbe) compiled by 'albert@albert-system' on 2024-07-22

   ID    Z sym.   atoms
    1    7 N      1, 5, 20
    2    6 C      2-4, 6-19, 21-37
    3    1 H      38-58

          program call               : xtb data2507/toluene/3TPAFM/3TPAFM.xyz --gfn 2 --gbsa toluene --ohess vtight --parallel 40 --molden --ceasefiles --namespace data2507/toluene/3TPAFM/3TPAFM_toluene_S0_preOpt
      * Solvation model:               GBSA
        Solvent                        toluene
        Solvent mass                       9.2140E+01 g/mol
          :  Hamiltonian                  GFN2-xTB          :
 * total energy  :   -92.2261942 Eh     change       -0.1670784E-08 Eh
 * total energy  :   -92.2370129 Eh     change       -0.1081872E-01 Eh
 * total energy  :   -92.2412240 Eh     change       -0.4211013E-02 Eh
 * total energy  :   -92.2424382 Eh     change       -0.1214204E-02 Eh
 * total energy  :   -92.2428948 Eh     change       -0.4566335E-03 Eh
 * total energy  :   -92.2423756 Eh     change        0.5191985E-03 Eh
 * total energy  :   -92.2431984 Eh     change       -0.8228420E-03 Eh
 * total energy  :   -92.2432744 Eh     change       -0.7595343E-04 Eh
 * total energy  :   -92.2433194 Eh     change       -0.4500902E-04 Eh
 * total energy  :   -92.2434361 Eh     change       -0.1167132E-03 Eh
 * total energy  :   -92.2444843 Eh     change       -0.2050137E-06 Eh
 * total energy  :   -92.2444845 Eh     change       -0.1718856E-06 Eh
 * total energy  :   -92.2444846 Eh     change       -0.1433292E-06 Eh
 * total energy  :   -92.2444848 Eh     change       -0.1378407E-06 Eh
 * total energy  :   -92.2444849 Eh     change       -0.1356134E-06 Eh
 * total energy  :   -92.2444850 Eh     change       -0.1278955E-06 Eh
 * total energy  :   -92.2444851 Eh     change       -0.1190223E-06 Eh
 * total energy  :   -92.2444852 Eh     change       -0.1068414E-06 Eh
 * total energy  :   -92.2444852 Eh     change       -0.1817710E-08 Eh
   *** GEOMETRY OPTIMIZATION CONVERGED AFTER 68 ITERATIONS ***

 final structure:
================
58
 xtb: 6.7.1 (edcfbbe)
N            6.37334508718408        0.32756221113146       -4.37247526272395
C            6.55734069516175        0.23230246280545       -3.24174830258371
C            6.87764148039884        0.11521408572658       -1.87467305808603
C            8.27415783898490        0.08765021817248       -1.69292566117451
N            9.42175667880928        0.07289942289104       -1.62611883624524
C            5.95535056172499        0.03860806002962       -0.86308718027035
C            6.23793325061807       -0.08513746483360        0.56561845271279
C            7.43557887241721       -0.16236792390065        1.25625607616374
C            7.39917371030565       -0.27755735113317        2.64135670660472
C            6.19443108281754       -0.31495555787238        3.32361210348952
C            4.98482882953405       -0.23799856431902        2.64010066693260
C            5.01129555448668       -0.12444855065736        1.26629827449331
C            3.93051270684941       -0.02473514926973        0.29155763146497
C            2.56730014003074       -0.01516376877610        0.46132800221606
C            1.73477160205000        0.07529414621044       -0.66496151571731
C            0.28035530303591        0.07078535867146       -0.50652378968773
C           -0.32816920477277        0.72573284844466        0.56701515611233
C           -1.69653301167072        0.72181192682369        0.72152409999730
C           -2.51337744981071        0.04424689564127       -0.18874248226445
N           -3.89516545143656        0.02554098667195       -0.02839147464945
C           -4.63617642436061       -1.10774018341034       -0.39670037625019
C           -4.14027196782475       -2.38763270301445       -0.14981784968163
C           -4.87715517304304       -3.50001895767385       -0.50893474882233
C           -6.11812977255636       -3.35597413032944       -1.10842741169911
C           -6.61714358807684       -2.08623523939756       -1.35109743834908
C           -5.88400826151880       -0.96768870085346       -1.00302607127744
C           -4.56255518835146        1.13719792369861        0.50783310191169
C           -4.17427790207179        2.43083003336194        0.16043747820176
C           -4.83913782816988        3.52126261315910        0.68810738931040
C           -5.90190743500179        3.34136402440754        1.55901695158356
C           -6.29451993814659        2.05769074802638        1.90282502453104
C           -5.63034861024659        0.96104406384707        1.38712919694029
C           -1.90918111336129       -0.61638778988507       -1.26286680588690
C           -0.54127081074513       -0.59461725903336       -1.41966872437048
C            2.31506249689623        0.16128508112246       -1.93326701411527
C            3.68799172795374        0.16378756299201       -2.11098852574634
C            4.50994672250596        0.06834623690482       -0.99667410364862
H            8.38328789398245       -0.13493906153210        0.74196606148134
H            8.32771116968811       -0.33872878358666        3.18870579616588
H            6.19383201769368       -0.40515738265749        4.39977086818405
H            4.04885598447971       -0.26797151756560        3.17644939980102
H            2.13576756654983       -0.10549411605037        1.44608880085664
H            0.27931671816694        1.26503096137199        1.27845923473234
H           -2.14663428274015        1.23780518679414        1.55676490269069
H           -3.17816817931803       -2.50251596397405        0.32796881643990
H           -4.48310787115428       -4.48611427570634       -0.31032110577964
H           -6.69271990029724       -4.22737477219075       -1.38432574098972
H           -7.58169382981965       -1.96493118565726       -1.82213983637953
H           -6.27187814046520        0.02130129593972       -1.19948214055347
H           -3.35421285275862        2.57327903389967       -0.52829547132008
H           -4.53085053522047        4.51832607317629        0.40911109507910
H           -6.42141585411749        4.19579542215341        1.96598067344348
H           -7.11890575719238        1.90818349781599        2.58467919712877
H           -5.93271799865567       -0.03879459309541        1.66261141692795
H           -2.52542477456415       -1.14187153931653       -1.97743033928261
H           -0.09824371495082       -1.12216609318487       -2.25118548679355
H            1.67748407949128        0.25247652687297       -2.79943970383632
H            4.10027405061163        0.24206767013814       -3.10483911739791

          :  Hamiltonian                  GFN2-xTB          :
         :: gradient norm              0.000029491531 Eh/a0 ::
         :: HOMO-LUMO gap              0.721287671915 eV    ::
         :: SCC energy               -94.066419229242 Eh    ::
         :: -> dispersion             -0.077934635919 Eh    ::
         :: -> Gsolv                  -0.045898436100 Eh    ::
         :: repulsion energy           1.821933985592 Eh    ::

    * Orbital Energies and Occupations

         #    Occupation            Energy/Eh            Energy/eV
      -------------------------------------------------------------
         1        2.0000           -0.6816280             -18.5480
       ...           ...                  ...                  ...
        74        2.0000           -0.4302096             -11.7066
        75        2.0000           -0.4285384             -11.6611
        76        2.0000           -0.4266291             -11.6092
        77        2.0000           -0.4243260             -11.5465
        78        2.0000           -0.4217489             -11.4764
        79        2.0000           -0.4141610             -11.2699
        80        2.0000           -0.4138398             -11.2612
        81        2.0000           -0.4115853             -11.1998
        82        2.0000           -0.4088626             -11.1257
        83        2.0000           -0.4081603             -11.1066
        84        2.0000           -0.4026631             -10.9570
        85        2.0000           -0.3943363             -10.7304
        86        2.0000           -0.3549582              -9.6589 (HOMO)
        87        0.0000           -0.3284514              -8.9376 (LUMO)
        88                         -0.2606249              -7.0920
        89                         -0.2535910              -6.9006
        90                         -0.2463330              -6.7031
        91                         -0.2343441              -6.3768
        92                         -0.2319620              -6.3120
        93                         -0.2294175              -6.2428
        94                         -0.2268209              -6.1721
        95                         -0.2254158              -6.1339
        96                         -0.2217297              -6.0336
        97                         -0.2101147              -5.7175
       ...                                ...                  ...
       169                          1.1528408              31.3704
      -------------------------------------------------------------
                  HL-Gap            0.0265068 Eh            0.7213 eV

     #   Z          covCN         q      C6AA      α(0)
     1   7 N        0.911    -0.274    27.073     7.525
     2   6 C        1.943     0.129    27.917     8.533
     3   6 C        2.946     0.000    28.018     8.682
     4   6 C        1.943     0.129    27.921     8.533
     5   7 N        0.911    -0.274    27.090     7.528
     6   6 C        3.029     0.037    27.135     8.544
     7   6 C        3.052    -0.003    28.053     8.686
     8   6 C        2.912    -0.024    28.612     8.771
     9   6 C        2.920    -0.027    28.681     8.782
    10   6 C        2.921    -0.021    28.529     8.759
    11   6 C        2.912    -0.028    28.696     8.784
    12   6 C        3.052     0.008    27.796     8.647
    13   6 C        3.050     0.007    27.810     8.649
    14   6 C        2.917    -0.034    28.845     8.807
    15   6 C        2.976     0.023    27.487     8.600
    16   6 C        2.976     0.002    27.979     8.677
    17   6 C        2.923    -0.032    28.793     8.800
    18   6 C        2.920    -0.048    29.196     8.861
    19   6 C        2.922     0.068    26.483     8.439
    20   7 N        2.752    -0.070    22.588     7.059
    21   6 C        2.924     0.064    26.559     8.451
    22   6 C        2.922    -0.046    29.154     8.854
    23   6 C        2.919    -0.029    28.731     8.790
    24   6 C        2.919    -0.037    28.920     8.819
    25   6 C        2.919    -0.029    28.727     8.789
    26   6 C        2.922    -0.046    29.143     8.853
    27   6 C        2.924     0.064    26.558     8.451
    28   6 C        2.922    -0.046    29.152     8.854
    29   6 C        2.919    -0.029    28.730     8.790
    30   6 C        2.919    -0.037    28.920     8.819
    31   6 C        2.919    -0.029    28.727     8.789
    32   6 C        2.922    -0.046    29.145     8.853
    33   6 C        2.920    -0.048    29.186     8.859
    34   6 C        2.923    -0.032    28.790     8.799
    35   6 C        2.924    -0.035    28.874     8.812
    36   6 C        2.910    -0.025    28.619     8.772
    37   6 C        3.051    -0.008    28.179     8.706
    38   1 H        0.926     0.039     2.462     2.454
    39   1 H        0.926     0.046     2.374     2.409
    40   1 H        0.926     0.050     2.322     2.383
    41   1 H        0.926     0.050     2.320     2.382
    42   1 H        0.926     0.052     2.301     2.372
    43   1 H        0.926     0.042     2.423     2.434
    44   1 H        0.926     0.038     2.477     2.461
    45   1 H        0.926     0.035     2.521     2.483
    46   1 H        0.926     0.036     2.507     2.476
    47   1 H        0.926     0.034     2.529     2.487
    48   1 H        0.926     0.035     2.510     2.477
    49   1 H        0.926     0.034     2.532     2.488
    50   1 H        0.926     0.034     2.524     2.484
    51   1 H        0.926     0.036     2.508     2.476
    52   1 H        0.926     0.034     2.529     2.487
    53   1 H        0.926     0.036     2.508     2.477
    54   1 H        0.926     0.034     2.530     2.488
    55   1 H        0.926     0.037     2.486     2.466
    56   1 H        0.926     0.040     2.445     2.445
    57   1 H        0.926     0.046     2.365     2.405
    58   1 H        0.926     0.038     2.472     2.459

molecular dipole:
                 x           y           z       tot (Debye)
 q only:       -3.498      -0.160       2.290
   full:       -3.713      -0.184       2.538      11.441

 projected vibrational frequencies (cm⁻¹)
eigval :       -0.00    -0.00    -0.00     0.00     0.00     0.00
eigval :       14.13    19.06    26.88    37.34    45.91    52.22
eigval :       58.33    66.15    68.82    74.70   101.79   107.50
eigval :      114.19   128.69   132.85   155.84   165.11   191.65
eigval :      213.46   223.15   234.22   240.06   266.59   301.08
eigval :      307.24   342.39   350.32   371.99   376.71   378.84
eigval :      380.26   386.12   395.71   415.22   428.89   431.93
eigval :      441.68   449.77   456.68   487.00   494.87   511.41
eigval :      541.11   559.74   580.72   583.23   587.03   590.58
eigval :      591.66   599.53   606.63   612.74   631.99   643.15
eigval :      660.43   666.58   684.91   692.90   708.78   718.09
eigval :      729.37   759.78   762.55   778.74   807.41   816.64
eigval :      835.99   862.82   875.47   875.84   876.97   877.14
eigval :      893.03   896.18   899.41   909.00   913.00   913.33
eigval :      916.87   921.08   923.54   926.49   929.76   930.15
eigval :      931.70   932.24   936.72   982.40  1004.08  1007.87
eigval :     1027.99  1071.95  1078.00  1081.60  1083.13  1113.52
eigval :     1120.03  1123.16  1140.81  1148.80  1174.58  1178.25
eigval :     1180.27  1184.21  1193.48  1194.96  1197.44  1200.88
eigval :     1214.45  1217.78  1234.38  1246.79  1268.83  1272.53
eigval :     1276.85  1280.08  1296.10  1303.71  1314.36  1317.03
eigval :     1322.92  1325.96  1327.11  1367.23  1403.62  1415.23
eigval :     1427.44  1433.90  1439.73  1449.58  1460.16  1467.91
eigval :     1470.62  1493.53  1530.99  1545.03  1560.23  1575.69
eigval :     1577.83  1580.43  1581.45  1590.18  1592.48  1598.20
eigval :     1608.63  2315.74  2346.89  3073.82  3074.21  3075.01
eigval :     3075.52  3079.29  3080.89  3081.65  3083.37  3084.04
eigval :     3085.97  3086.91  3089.89  3090.51  3092.57  3093.64
eigval :     3095.19  3095.66  3096.17  3098.29  3112.15  3114.17

   temp. (K)  partition function   enthalpy   heat capacity  entropy
                                   cal/mol     cal/K/mol   cal/K/mol   J/K/mol
 298.15  VIB  0.871E+13            17116.611    107.785    106.559
         ROT  0.499E+08              888.752      2.981     38.206
         INT  0.434E+21            18005.363    110.766    144.765
         TR   0.991E+28             1481.254      4.968     44.321
         TOT                       19486.6172   115.7342   189.0856   791.1342

       T/K    H(0)-H(T)+PV         H(T)/Eh          T*S/Eh         G(T)/Eh
   ------------------------------------------------------------------------
    298.15    0.310539E-01    0.465582E+00    0.898407E-01    0.375741E+00
   ------------------------------------------------------------------------

         :::::::::::::::::::::::::::::::::::::::::::::::::::::
         ::                  THERMODYNAMIC                  ::
         :::::::::::::::::::::::::::::::::::::::::::::::::::::
         :: total free energy         -91.868744123774 Eh   ::
         ::.................................................::
         :: total energy              -92.244485241752 Eh   ::
         :: zero point energy           0.434527895725 Eh   ::
         :: G(RRHO) w/o ZPVE           -0.058786777747 Eh   ::
         :: G(RRHO) contrib.            0.375741117978 Eh   ::
         :::::::::::::::::::::::::::::::::::::::::::::::::::::

           -------------------------------------------------
          | TOTAL ENERGY              -92.244485241752 Eh   |
          | TOTAL ENTHALPY            -91.778903444889 Eh   |
          | TOTAL FREE ENERGY         -91.868744123774 Eh   |
          | GRADIENT NORM               0.000029475038 Eh/α |
          | HOMO-LUMO GAP               0.721287801895 eV   |
           -------------------------------------------------

 * finished run on 2025/07/20 at 08:04:00.359
