   * xtb version 6.7.1 (edcfbbe) compiled by 'albert@albert-system' on 2024-07-22

   ID    Z sym.   atoms
    1    6 C      1-9, 11-23, 25-28
    2    7 N      10, 24
    3    1 H      29-48

          program call               : xtb data2507/gas/BACN/BACN_gas_S0_crest.xyz --gfn 2 --ohess vtight --parallel 40 --molden --ceasefiles --namespace data2507/gas/BACN/BACN_gas_S0_finalOpt
          :  Hamiltonian                  GFN2-xTB          :
 * total energy  :   -71.7069740 Eh     change       -0.1833286E-08 Eh
 * total energy  :   -71.7069726 Eh     change        0.1404395E-05 Eh
 * total energy  :   -71.7069781 Eh     change       -0.5508180E-05 Eh
 * total energy  :   -71.7069790 Eh     change       -0.8999294E-06 Eh
 * total energy  :   -71.7069796 Eh     change       -0.6468171E-06 Eh
 * total energy  :   -71.7069798 Eh     change       -0.1968517E-06 Eh
 * total energy  :   -71.7069798 Eh     change        0.5222556E-07 Eh
 * total energy  :   -71.7069799 Eh     change       -0.1189359E-06 Eh
 * total energy  :   -71.7069798 Eh     change        0.4242084E-07 Eh
 * total energy  :   -71.7069798 Eh     change        0.5486854E-07 Eh
 * total energy  :   -71.7069797 Eh     change        0.1250257E-06 Eh
 * total energy  :   -71.7069797 Eh     change       -0.1859277E-08 Eh
   *** GEOMETRY OPTIMIZATION CONVERGED AFTER 12 ITERATIONS ***

 final structure:
================
48
 xtb: 6.7.1 (edcfbbe)
C            0.84542184847038       -2.78628781231951       -1.13631281247535
C            0.24939465997238       -1.98886015189662        0.05320223831884
C            0.64872746446532       -2.57217886758965        1.42786897453886
C           -1.26183370256371       -2.13004991531465       -0.01595912725907
C           -1.81773875245089       -3.40207229985949       -0.04824330041145
C           -3.18583911476028       -3.59865568381210       -0.07660945128087
C           -4.02925166102499       -2.50183494092451       -0.07187599262290
C           -3.50125801669235       -1.22794457034917       -0.04402898440901
C           -2.11846686678459       -1.03063313979890       -0.01594308308552
N           -1.59641735660143        0.25269005001094        0.00927195951490
C           -2.50792662297862        1.34821323613363        0.01042755446832
C           -2.93642532296335        1.88934929206060        1.21556335887030
C           -3.83226543973902        2.94399412721084        1.21510933782693
C           -4.30176883209173        3.45686712965015        0.01728369003950
C           -3.87544611604882        2.91514060155586       -1.18422079509542
C           -2.97949490528788        1.86095495979470       -1.19159381164843
C           -0.23784301622511        0.49269180609986       -0.00794368307600
C            0.17901041957550        1.84649647756918       -0.03607084742430
C            1.49493658665417        2.17515365045098       -0.04694722512266
C            2.48173413649655        1.16910691097393       -0.03170841119760
C            3.83902986798844        1.52514698802750       -0.03682865415720
C            4.82310057089741        0.56266478439696       -0.01890721198545
C            6.18738095502797        0.91962148307764       -0.02148394917256
N            7.29924102026760        1.20361250651537       -0.02076484798642
C            4.44802552226611       -0.79778101859618        0.00232739219705
C            3.13258999861853       -1.15670841784986        0.00562381029691
C            2.08208726153279       -0.20030140904462       -0.00914396775782
C            0.69901023219960       -0.53413382318680        0.00014718885996
H            0.04861476008360       -3.11641960060198       -1.79987851555422
H            1.38382839380326       -3.66891932050147       -0.79867308030001
H            1.51844431141270       -2.17132475536484       -1.72739296803965
H            0.44378028573249       -3.63902690204111        1.46513621509344
H            0.05744859407982       -2.08794939346555        2.20408405015885
H            1.69563009529802       -2.40900600851698        1.66061678361634
H           -1.16654940492728       -4.26310809929967       -0.05332132478907
H           -3.58860107837333       -4.59964201052882       -0.09956836469513
H           -5.10051081842478       -2.63503805195589       -0.09090288804190
H           -4.16376609585186       -0.37614843574638       -0.04260902467415
H           -2.56377082553725        1.47996970083344        2.14289065906839
H           -4.16491037887045        3.36501035893740        2.15202831384037
H           -5.00098262376005        4.27939180325236        0.01994227631445
H           -4.24153699458936        3.31395389894582       -2.11839074873157
H           -2.64018188970594        1.42890105634977       -2.12150049889027
H           -0.56898678798400        2.62364652176545       -0.04776342341632
H            1.80175586633339        3.21043003075082       -0.06635576456175
H            4.10430141067940        2.57297473825396       -0.05442096962920
H            5.22035441385768       -1.55316663326593        0.01505985200586
H            2.90973895452396       -2.20793340448648        0.01616730796197

          :  Hamiltonian                  GFN2-xTB          :
         :: gradient norm              0.000196462314 Eh/a0 ::
         :: HOMO-LUMO gap              2.167150753493 eV    ::
         :: SCC energy               -73.061693171825 Eh    ::
         :: -> dispersion             -0.064892159717 Eh    ::
         :: repulsion energy           1.354713510694 Eh    ::

    * Orbital Energies and Occupations

         #    Occupation            Energy/Eh            Energy/eV
      -------------------------------------------------------------
         1        2.0000           -0.6773643             -18.4320
       ...           ...                  ...                  ...
        55        2.0000           -0.4433888             -12.0652
        56        2.0000           -0.4377262             -11.9111
        57        2.0000           -0.4303229             -11.7097
        58        2.0000           -0.4255185             -11.5789
        59        2.0000           -0.4244199             -11.5491
        60        2.0000           -0.4218490             -11.4791
        61        2.0000           -0.4154893             -11.3060
        62        2.0000           -0.4116241             -11.2009
        63        2.0000           -0.4078680             -11.0987
        64        2.0000           -0.4065531             -11.0629
        65        2.0000           -0.3998072             -10.8793
        66        2.0000           -0.3910236             -10.6403
        67        2.0000           -0.3523504              -9.5879 (HOMO)
        68                         -0.2727091              -7.4208 (LUMO)
        69                         -0.2498200              -6.7979
        70                         -0.2446815              -6.6581
        71                         -0.2433964              -6.6232
        72                         -0.2236678              -6.0863
        73                         -0.2182928              -5.9400
        74                         -0.1948221              -5.3014
        75                         -0.1934005              -5.2627
        76                         -0.1776293              -4.8335
        77                         -0.1153895              -3.1399
        78                         -0.1144542              -3.1145
       ...                                ...                  ...
       132                          1.1821860              32.1689
      -------------------------------------------------------------
                  HL-Gap            0.0796413 Eh            2.1671 eV

     #   Z          covCN         q      C6AA      α(0)
     1   6 C        3.756    -0.107    22.600     6.778
     2   6 C        3.905     0.022    20.144     6.380
     3   6 C        3.764    -0.103    22.514     6.763
     4   6 C        2.986    -0.013    28.342     8.733
     5   6 C        2.928    -0.037    28.933     8.821
     6   6 C        2.917    -0.043    29.075     8.842
     7   6 C        2.920    -0.033    28.815     8.803
     8   6 C        2.924    -0.057    29.429     8.896
     9   6 C        2.932     0.057    26.721     8.477
    10   7 N        2.757    -0.067    22.531     7.050
    11   6 C        2.929     0.069    26.450     8.434
    12   6 C        2.922    -0.037    28.923     8.819
    13   6 C        2.920    -0.027    28.677     8.782
    14   6 C        2.920    -0.029    28.735     8.791
    15   6 C        2.920    -0.027    28.679     8.782
    16   6 C        2.921    -0.037    28.921     8.819
    17   6 C        2.923     0.061    26.626     8.462
    18   6 C        2.920    -0.052    29.302     8.877
    19   6 C        2.919    -0.037    28.918     8.818
    20   6 C        2.989     0.004    27.935     8.670
    21   6 C        2.932    -0.025    28.638     8.776
    22   6 C        2.968     0.010    27.788     8.647
    23   6 C        1.911     0.109    28.397     8.606
    24   7 N        0.911    -0.248    26.457     7.439
    25   6 C        2.921    -0.028    28.700     8.785
    26   6 C        2.918    -0.042    29.047     8.838
    27   6 C        2.978     0.011    27.775     8.645
    28   6 C        2.969    -0.026    28.649     8.780
    29   1 H        0.925     0.038     2.469     2.457
    30   1 H        0.925     0.037     2.487     2.466
    31   1 H        0.925     0.041     2.440     2.443
    32   1 H        0.925     0.039     2.458     2.452
    33   1 H        0.925     0.031     2.579     2.511
    34   1 H        0.925     0.043     2.415     2.430
    35   1 H        0.926     0.035     2.521     2.483
    36   1 H        0.926     0.028     2.612     2.527
    37   1 H        0.926     0.029     2.604     2.524
    38   1 H        0.926     0.025     2.657     2.549
    39   1 H        0.926     0.042     2.428     2.437
    40   1 H        0.926     0.040     2.447     2.446
    41   1 H        0.926     0.039     2.457     2.451
    42   1 H        0.926     0.040     2.448     2.447
    43   1 H        0.926     0.042     2.423     2.434
    44   1 H        0.926     0.031     2.566     2.505
    45   1 H        0.926     0.035     2.522     2.483
    46   1 H        0.926     0.036     2.501     2.473
    47   1 H        0.926     0.033     2.537     2.491
    48   1 H        0.926     0.050     2.315     2.379

molecular dipole:
                 x           y           z       tot (Debye)
 q only:       -2.188      -0.045       0.009
   full:       -2.668      -0.077       0.017       6.783

 projected vibrational frequencies (cm⁻¹)
eigval :       -0.00    -0.00    -0.00    -0.00     0.00     0.00
eigval :       17.08    27.33    34.60    58.63    67.14    88.41
eigval :       96.36   116.72   143.80   153.81   160.84   176.33
eigval :      187.14   217.66   225.77   238.82   261.33   287.69
eigval :      308.60   337.47   347.08   348.52   373.61   387.93
eigval :      398.55   413.26   434.24   453.83   454.68   485.55
eigval :      489.62   513.16   533.71   540.59   546.18   570.01
eigval :      590.35   592.25   596.17   609.85   634.08   640.91
eigval :      673.11   691.33   694.44   724.90   730.05   760.71
eigval :      779.45   797.28   811.45   831.87   839.22   867.97
eigval :      875.32   876.60   900.95   911.24   914.94   916.91
eigval :      922.87   924.30   929.48   933.77   934.03   964.19
eigval :      967.41   973.60   995.88  1032.79  1066.68  1078.32
eigval :     1083.26  1111.62  1113.32  1146.13  1146.93  1160.15
eigval :     1177.29  1180.43  1184.97  1186.59  1190.76  1205.45
eigval :     1230.93  1241.30  1250.88  1264.85  1270.97  1272.90
eigval :     1308.57  1312.50  1319.94  1335.08  1336.64  1376.15
eigval :     1404.65  1409.81  1410.83  1425.78  1432.71  1440.03
eigval :     1465.39  1473.63  1482.80  1489.79  1492.80  1503.70
eigval :     1510.34  1519.83  1543.21  1583.02  1588.24  1590.58
eigval :     1594.30  1596.39  1610.53  2367.13  3019.34  3023.30
eigval :     3029.57  3039.49  3049.37  3067.64  3076.04  3080.61
eigval :     3081.49  3082.29  3083.27  3084.59  3086.15  3090.15
eigval :     3094.54  3096.10  3100.68  3101.88  3105.41  3154.64

   temp. (K)  partition function   enthalpy   heat capacity  entropy
                                   cal/mol     cal/K/mol   cal/K/mol   J/K/mol
 298.15  VIB  0.690E+09            12785.891     84.077     77.229
         ROT  0.145E+08              888.752      2.981     35.744
         INT  0.998E+16            13674.644     87.058    112.973
         TR   0.662E+28             1481.254      4.968     43.520
         TOT                       15155.8976    92.0263   156.4928   654.7659

       T/K    H(0)-H(T)+PV         H(T)/Eh          T*S/Eh         G(T)/Eh
   ------------------------------------------------------------------------
    298.15    0.241525E-01    0.400894E+00    0.743548E-01    0.326539E+00
   ------------------------------------------------------------------------

         :::::::::::::::::::::::::::::::::::::::::::::::::::::
         ::                  THERMODYNAMIC                  ::
         :::::::::::::::::::::::::::::::::::::::::::::::::::::
         :: total free energy         -71.380440579325 Eh   ::
         ::.................................................::
         :: total energy              -71.706979661128 Eh   ::
         :: zero point energy           0.376741398771 Eh   ::
         :: G(RRHO) w/o ZPVE           -0.050202316968 Eh   ::
         :: G(RRHO) contrib.            0.326539081803 Eh   ::
         :::::::::::::::::::::::::::::::::::::::::::::::::::::

           -------------------------------------------------
          | TOTAL ENERGY              -71.706979661128 Eh   |
          | TOTAL ENTHALPY            -71.306085802204 Eh   |
          | TOTAL FREE ENERGY         -71.380440579325 Eh   |
          | GRADIENT NORM               0.000196405835 Eh/α |
          | HOMO-LUMO GAP               2.167149898620 eV   |
           -------------------------------------------------

 * finished run on 2025/09/04 at 10:41:38.959
