   * xtb version 6.7.1 (edcfbbe) compiled by 'albert@albert-system' on 2024-07-22

   ID    Z sym.   atoms
    1    6 C      1-9, 11-23, 25-28
    2    7 N      10, 24
    3    1 H      29-48

          program call               : xtb data2507/gas/BACN/BACN.xyz --gfn 2 --ohess vtight --parallel 40 --molden --ceasefiles --namespace data2507/gas/BACN/BACN_gas_S0_preOpt
          :  Hamiltonian                  GFN2-xTB          :
 * total energy  :   -71.6800373 Eh     change       -0.1912255E-08 Eh
 * total energy  :   -71.6938471 Eh     change       -0.1380980E-01 Eh
 * total energy  :   -71.6986440 Eh     change       -0.4796897E-02 Eh
 * total energy  :   -71.6994900 Eh     change       -0.8460555E-03 Eh
 * total energy  :   -71.6998348 Eh     change       -0.3447442E-03 Eh
 * total energy  :   -71.6998910 Eh     change       -0.5620241E-04 Eh
 * total energy  :   -71.7000304 Eh     change       -0.1394169E-03 Eh
 * total energy  :   -71.7001179 Eh     change       -0.8751729E-04 Eh
 * total energy  :   -71.7002110 Eh     change       -0.9307524E-04 Eh
 * total energy  :   -71.7002638 Eh     change       -0.5283706E-04 Eh
 * total energy  :   -71.7004962 Eh     change       -0.8823785E-07 Eh
 * total energy  :   -71.7004967 Eh     change       -0.4277429E-06 Eh
 * total energy  :   -71.7004967 Eh     change        0.1797659E-08 Eh
 * total energy  :   -71.7004969 Eh     change       -0.2616698E-06 Eh
 * total energy  :   -71.7004969 Eh     change       -0.1149429E-07 Eh
 * total energy  :   -71.7004972 Eh     change       -0.2222450E-06 Eh
 * total energy  :   -71.7004974 Eh     change       -0.2024050E-06 Eh
 * total energy  :   -71.7004975 Eh     change       -0.1008369E-06 Eh
 * total energy  :   -71.7004975 Eh     change       -0.1431549E-07 Eh
   *** GEOMETRY OPTIMIZATION CONVERGED AFTER 45 ITERATIONS ***

 final structure:
================
48
 xtb: 6.7.1 (edcfbbe)
C            1.79683296213556       -2.67892785102507        0.58341781892077
C            0.71027485701744       -1.60631346735071        0.60204566764394
C            0.32124303443930       -1.43044220676665        2.09263965842193
C           -0.52950089692667       -2.05428833257469       -0.14546761567738
C           -0.74397337369448       -3.34527636716203       -0.60022913835480
C           -1.95067779611895       -3.71239122735823       -1.17232874553553
C           -2.96593108514315       -2.78181327003731       -1.29732988942189
C           -2.76446391954647       -1.48109858310199       -0.88057330167618
C           -1.54749945338564       -1.10927633747716       -0.31363234449808
N           -1.30550162969355        0.20855942964295        0.06052138230583
C           -2.40997637464443        1.10401846466603        0.08214529276581
C           -3.24314291676505        1.11371424257782        1.19290545686782
C           -4.33596746357869        1.96199275947204        1.22851475787893
C           -4.60046820455900        2.80014502203000        0.15873900253816
C           -3.77383399255243        2.78606412633203       -0.95302479319440
C           -2.68198466271066        1.93839301686622       -0.99683722811619
C           -0.00559520248216        0.68430782714409        0.08080346593432
C            0.20729694331187        2.07921361097435        0.11591277628651
C            1.46796726173312        2.58449398552106        0.08550974632102
C            2.57046689934710        1.72859619087711       -0.10751973045359
C            3.85292736369934        2.27627901710238       -0.26352592731695
C            4.94160214067989        1.47307812213866       -0.51859834697048
C            6.23071354975247        2.02473643287951       -0.66842620897791
N            7.28224245995412        2.46875213856071       -0.78712387956962
C            4.74178054918230        0.08513447843015       -0.67311798417651
C            3.50548118813392       -0.46297984866689       -0.49449532501579
C            2.37031070977346        0.31234484232123       -0.14514666442080
C            1.07204533475114       -0.20646745719093        0.10617197415029
H            1.42771317612665       -3.55899685461142        1.10756138413345
H            2.67974848504154       -2.33458691365595        1.11472773889718
H            2.06018786340070       -2.97623685484830       -0.42852672082133
H           -0.46908891266696       -0.69611846458346        2.21837787408127
H            1.18761079730412       -1.10054376010117        2.66258950024430
H           -0.02599435752774       -2.37851336741978        2.49851031999885
H            0.02445036714542       -4.09400844098519       -0.49967930299074
H           -2.09852449305422       -4.72791124596466       -1.50688974306238
H           -3.91415293259442       -3.06264059563859       -1.73054227159506
H           -3.54912062710247       -0.74956975955346       -1.00024964622377
H           -3.03187746845858        0.45303413910521        2.02071209347324
H           -4.98082825136799        1.96859001187459        2.09437528509285
H           -5.45276373970857        3.46200798599397        0.18881247505899
H           -3.98287832016754        3.43334111541528       -1.79159736445319
H           -2.03693490868914        1.91380143674439       -1.86314394825203
H           -0.63916452691273        2.74066931363603        0.21334923692411
H            1.63681419405662        3.64733647989048        0.17364470944482
H            3.97302746159091        3.34877352866783       -0.20060688088014
H            5.58000730400241       -0.53744292935640       -0.95026496257432
H            3.39910160746982       -1.51153258343742       -0.69311165316424

          :  Hamiltonian                  GFN2-xTB          :
         :: gradient norm              0.000179019068 Eh/a0 ::
         :: HOMO-LUMO gap              2.247519408130 eV    ::
         :: SCC energy               -73.054486561324 Eh    ::
         :: -> dispersion             -0.064958079697 Eh    ::
         :: repulsion energy           1.353989082685 Eh    ::

    * Orbital Energies and Occupations

         #    Occupation            Energy/Eh            Energy/eV
      -------------------------------------------------------------
         1        2.0000           -0.6771000             -18.4248
       ...           ...                  ...                  ...
        55        2.0000           -0.4424043             -12.0384
        56        2.0000           -0.4367938             -11.8858
        57        2.0000           -0.4318932             -11.7524
        58        2.0000           -0.4244019             -11.5486
        59        2.0000           -0.4236216             -11.5273
        60        2.0000           -0.4209175             -11.4537
        61        2.0000           -0.4173617             -11.3570
        62        2.0000           -0.4142028             -11.2710
        63        2.0000           -0.4079720             -11.1015
        64        2.0000           -0.4063706             -11.0579
        65        2.0000           -0.4008597             -10.9079
        66        2.0000           -0.3854388             -10.4883
        67        2.0000           -0.3549176              -9.6578 (HOMO)
        68                         -0.2723228              -7.4103 (LUMO)
        69                         -0.2497129              -6.7950
        70                         -0.2440758              -6.6416
        71                         -0.2424856              -6.5984
        72                         -0.2242190              -6.1013
        73                         -0.2203307              -5.9955
        74                         -0.1972885              -5.3685
        75                         -0.1941744              -5.2838
        76                         -0.1788860              -4.8677
        77                         -0.1207252              -3.2851
        78                         -0.1129714              -3.0741
       ...                                ...                  ...
       132                          1.1826445              32.1814
      -------------------------------------------------------------
                  HL-Gap            0.0825948 Eh            2.2475 eV

     #   Z          covCN         q      C6AA      α(0)
     1   6 C        3.761    -0.105    22.557     6.771
     2   6 C        3.912     0.025    20.099     6.372
     3   6 C        3.769    -0.101    22.474     6.756
     4   6 C        2.985    -0.013    28.319     8.729
     5   6 C        2.924    -0.039    28.979     8.828
     6   6 C        2.919    -0.042    29.044     8.838
     7   6 C        2.920    -0.033    28.817     8.803
     8   6 C        2.921    -0.055    29.360     8.886
     9   6 C        2.941     0.056    26.734     8.480
    10   7 N        2.756    -0.070    22.589     7.059
    11   6 C        2.927     0.068    26.480     8.439
    12   6 C        2.923    -0.038    28.938     8.822
    13   6 C        2.920    -0.027    28.679     8.782
    14   6 C        2.920    -0.030    28.745     8.792
    15   6 C        2.920    -0.028    28.695     8.784
    16   6 C        2.921    -0.038    28.933     8.821
    17   6 C        2.933     0.060    26.659     8.468
    18   6 C        2.918    -0.052    29.304     8.877
    19   6 C        2.921    -0.039    28.961     8.825
    20   6 C        2.991     0.004    27.931     8.669
    21   6 C        2.932    -0.026    28.648     8.778
    22   6 C        2.968     0.010    27.788     8.647
    23   6 C        1.911     0.110    28.394     8.606
    24   7 N        0.911    -0.248    26.463     7.440
    25   6 C        2.921    -0.028    28.704     8.786
    26   6 C        2.918    -0.042    29.052     8.839
    27   6 C        2.977     0.012    27.749     8.641
    28   6 C        2.975    -0.026    28.638     8.778
    29   1 H        0.925     0.041     2.432     2.439
    30   1 H        0.925     0.044     2.391     2.418
    31   1 H        0.925     0.037     2.495     2.470
    32   1 H        0.925     0.034     2.534     2.489
    33   1 H        0.925     0.037     2.489     2.467
    34   1 H        0.925     0.037     2.486     2.466
    35   1 H        0.926     0.037     2.484     2.465
    36   1 H        0.926     0.029     2.597     2.520
    37   1 H        0.926     0.030     2.589     2.516
    38   1 H        0.926     0.026     2.651     2.546
    39   1 H        0.926     0.040     2.451     2.448
    40   1 H        0.926     0.040     2.454     2.450
    41   1 H        0.926     0.039     2.465     2.455
    42   1 H        0.926     0.039     2.460     2.453
    43   1 H        0.926     0.041     2.433     2.439
    44   1 H        0.926     0.033     2.551     2.497
    45   1 H        0.926     0.034     2.527     2.486
    46   1 H        0.926     0.036     2.499     2.472
    47   1 H        0.926     0.034     2.533     2.489
    48   1 H        0.926     0.048     2.350     2.397

molecular dipole:
                 x           y           z       tot (Debye)
 q only:       -2.185      -0.479       0.370
   full:       -2.677      -0.553       0.383       7.016

 projected vibrational frequencies (cm⁻¹)
eigval :       -0.00    -0.00    -0.00     0.00     0.00     0.00
eigval :       25.22    28.47    35.14    61.21    70.04    77.53
eigval :      103.60   122.22   141.44   174.57   184.93   199.42
eigval :      216.74   226.32   241.52   252.47   284.86   308.01
eigval :      323.84   333.97   355.97   375.27   387.12   402.97
eigval :      418.52   435.25   446.95   461.27   470.00   482.18
eigval :      491.57   512.01   519.78   527.95   546.34   566.14
eigval :      581.92   592.21   594.24   608.50   631.90   643.77
eigval :      673.23   687.26   701.57   721.95   725.20   758.25
eigval :      774.62   786.13   808.08   829.51   832.39   866.68
eigval :      870.33   877.69   901.13   905.58   907.96   913.95
eigval :      915.56   921.63   923.18   930.55   934.54   955.82
eigval :      964.96   974.83   998.73  1011.78  1059.13  1079.33
eigval :     1082.87  1112.21  1115.13  1139.38  1146.72  1164.74
eigval :     1178.38  1180.44  1185.85  1187.12  1189.29  1210.00
eigval :     1230.70  1242.33  1257.51  1269.59  1273.37  1276.76
eigval :     1309.12  1310.85  1320.49  1330.41  1337.17  1371.03
eigval :     1387.25  1397.40  1405.95  1416.94  1432.99  1444.40
eigval :     1456.05  1469.72  1481.72  1485.38  1494.01  1499.59
eigval :     1525.92  1531.00  1536.47  1582.63  1584.12  1586.40
eigval :     1593.79  1595.18  1600.67  2367.13  3015.66  3024.63
eigval :     3026.76  3032.29  3047.68  3053.63  3075.91  3080.53
eigval :     3080.85  3082.27  3083.39  3085.47  3088.62  3089.71
eigval :     3093.47  3098.36  3100.53  3103.72  3115.02  3185.89

   temp. (K)  partition function   enthalpy   heat capacity  entropy
                                   cal/mol     cal/K/mol   cal/K/mol   J/K/mol
 298.15  VIB  0.237E+09            12535.023     83.849     74.882
         ROT  0.142E+08              888.752      2.981     35.712
         INT  0.337E+16            13423.776     86.830    110.594
         TR   0.662E+28             1481.254      4.968     43.520
         TOT                       14905.0295    91.7980   154.1141   644.8134

       T/K    H(0)-H(T)+PV         H(T)/Eh          T*S/Eh         G(T)/Eh
   ------------------------------------------------------------------------
    298.15    0.237527E-01    0.400870E+00    0.732246E-01    0.327646E+00
   ------------------------------------------------------------------------

         :::::::::::::::::::::::::::::::::::::::::::::::::::::
         ::                  THERMODYNAMIC                  ::
         :::::::::::::::::::::::::::::::::::::::::::::::::::::
         :: total free energy         -71.372851827555 Eh   ::
         ::.................................................::
         :: total energy              -71.700497478640 Eh   ::
         :: zero point energy           0.377117556646 Eh   ::
         :: G(RRHO) w/o ZPVE           -0.049471905562 Eh   ::
         :: G(RRHO) contrib.            0.327645651084 Eh   ::
         :::::::::::::::::::::::::::::::::::::::::::::::::::::

           -------------------------------------------------
          | TOTAL ENERGY              -71.700497478640 Eh   |
          | TOTAL ENTHALPY            -71.299627245530 Eh   |
          | TOTAL FREE ENERGY         -71.372851827555 Eh   |
          | GRADIENT NORM               0.000178982662 Eh/α |
          | HOMO-LUMO GAP               2.247519456160 eV   |
           -------------------------------------------------

 * finished run on 2025/09/04 at 10:40:09.160
