   * xtb version 6.7.1 (edcfbbe) compiled by 'albert@albert-system' on 2024-07-22

   ID    Z sym.   atoms
    1    6 C      1-9, 11-23, 25-28
    2    7 N      10, 24
    3    1 H      29-48

          program call               : xtb data2507/gas/BACN/BACN_gas_S0_finalOpt.xtbopt.xyz --gfn 2 --spinpol --tblite --uhf 2 --ohess vtight --parallel 40 --molden --ceasefiles --namespace data2507/gas/BACN/BACN_gas_T1_preOpt
 * total energy  :   -71.6188929 Eh     change        0.2793371E-08 Eh
 * total energy  :   -71.6246161 Eh     change       -0.5723244E-02 Eh
 * total energy  :   -71.6258001 Eh     change       -0.1184015E-02 Eh
 * total energy  :   -71.6255415 Eh     change        0.2586165E-03 Eh
 * total energy  :   -71.6259383 Eh     change       -0.3967879E-03 Eh
 * total energy  :   -71.6259532 Eh     change       -0.1485806E-04 Eh
 * total energy  :   -71.6259655 Eh     change       -0.1230971E-04 Eh
 * total energy  :   -71.6259726 Eh     change       -0.7150186E-05 Eh
 * total energy  :   -71.6259821 Eh     change       -0.9478070E-05 Eh
 * total energy  :   -71.6259856 Eh     change       -0.3520583E-05 Eh
 * total energy  :   -71.6259923 Eh     change        0.1747949E-06 Eh
 * total energy  :   -71.6259927 Eh     change       -0.4238791E-06 Eh
 * total energy  :   -71.6259929 Eh     change       -0.1367709E-06 Eh
 * total energy  :   -71.6259931 Eh     change       -0.2168446E-06 Eh
 * total energy  :   -71.6259930 Eh     change        0.4970069E-07 Eh
 * total energy  :   -71.6259932 Eh     change       -0.1931151E-06 Eh
 * total energy  :   -71.6259933 Eh     change       -0.1158961E-06 Eh
 * total energy  :   -71.6259933 Eh     change        0.7449188E-09 Eh
 * total energy  :   -71.6259934 Eh     change       -0.3013987E-07 Eh
   *** GEOMETRY OPTIMIZATION CONVERGED AFTER 23 ITERATIONS ***

 final structure:
================
48
 xtb: 6.7.1 (edcfbbe)
C            0.84677755964294       -2.78910900578908       -1.14268898434241
C            0.25176700728645       -1.97272334901306        0.03649227512409
C            0.64474137962231       -2.54836703157053        1.42144539672978
C           -1.25176654751474       -2.12489815995737       -0.02508382074457
C           -1.80595302585234       -3.39677268261762       -0.05780664289200
C           -3.17407081384684       -3.59551590567901       -0.07568286670796
C           -4.02560491170504       -2.49725994107136       -0.05592777699678
C           -3.50688308300358       -1.22540615561604       -0.02764469487673
C           -2.11607206398994       -1.01969617688336       -0.01563121809412
N           -1.60370241161028        0.25273663611155       -0.00247904468095
C           -2.52250325011776        1.34427108078407        0.00621947130657
C           -2.94677553856512        1.87831086741931        1.21530592636129
C           -3.84555719024227        2.93056257887908        1.22014352010245
C           -4.31882945785789        3.44685465266846        0.02524438793575
C           -3.89360947742958        2.91131964052846       -1.17935302772450
C           -2.99529200103278        1.85901718282929       -1.19364177129158
C           -0.25754214879467        0.53566626371665       -0.02029186242030
C            0.15812475168296        1.86115565350074       -0.04720258099544
C            1.49303430665733        2.18510956714817       -0.06029494458594
C            2.49359270343372        1.17196892278508       -0.03849862836861
C            3.83038551660073        1.52182674324221       -0.03971886818198
C            4.85464824012101        0.52415233443375       -0.01210917967948
C            6.20214560689997        0.89057087288440       -0.01401829388411
N            7.31540744797363        1.19167256983961       -0.01575967330598
C            4.47462309470039       -0.81004632907002        0.01723253348228
C            3.14071169508779       -1.17094336440611        0.01662689017527
C            2.08560289035178       -0.20488444330712       -0.01194272898326
C            0.72275144933099       -0.53716522198743       -0.01418135896914
H            0.06256289430492       -3.03588948984404       -1.85572525922783
H            1.29200367190968       -3.71859468469345       -0.79665098439876
H            1.60035616862167       -2.21910853113838       -1.67737037292156
H            0.42744485987886       -3.61210977735718        1.46929638574868
H            0.06269089160325       -2.04750593673154        2.19388845991577
H            1.69502340606492       -2.39096612761055        1.64253770881001
H           -1.15411437113375       -4.25674143374064       -0.07427608370644
H           -3.57559916112859       -4.59641805337709       -0.10239756978031
H           -5.09561433820994       -2.63898379813303       -0.06444129622202
H           -4.17118388821145       -0.37546679945007       -0.01454635950622
H           -2.56916693957794        1.46797590894028        2.13991526842018
H           -4.17595682110174        3.34710007203998        2.15953255210141
H           -5.01942273972621        4.26789047681718        0.03268725811253
H           -4.26121479293840        3.31312313400459       -2.11132036586568
H           -2.65480306936321        1.43309025994903       -2.12559138191532
H           -0.57505351417267        2.65263134989832       -0.05868003604263
H            1.80180656314030        3.21802959204610       -0.08283340974756
H            4.11516417867943        2.56263964506910       -0.06048943947922
H            5.23372875027422       -1.57944654248271        0.03975003088025
H            2.92296220196012       -2.22272638016515        0.03541496431044

 projected vibrational frequencies (cm⁻¹)
eigval :       -0.00    -0.00    -0.00     0.00     0.00     0.00
eigval :       14.13    26.39    34.39    58.63    68.53    86.84
eigval :       96.65   106.85   136.94   144.71   163.39   175.05
eigval :      195.31   210.63   221.77   239.41   262.23   273.78
eigval :      306.83   327.62   336.77   339.45   365.14   372.47
eigval :      386.55   402.73   424.84   429.66   449.55   486.22
eigval :      489.68   506.87   513.26   526.38   538.29   560.06
eigval :      564.54   585.17   592.49   605.42   606.05   630.70
eigval :      670.29   684.72   688.47   695.28   718.43   747.40
eigval :      757.08   768.99   778.45   793.67   798.82   825.19
eigval :      861.02   863.87   874.36   892.23   899.95   912.88
eigval :      915.12   916.60   918.93   927.73   933.47   939.18
eigval :      959.80   973.08   992.80  1027.26  1049.04  1077.19
eigval :     1079.06  1101.73  1113.94  1115.20  1118.78  1146.69
eigval :     1152.66  1177.83  1179.81  1182.59  1184.58  1188.24
eigval :     1200.97  1226.32  1244.51  1261.69  1272.66  1275.67
eigval :     1281.40  1305.16  1309.41  1314.58  1342.84  1351.39
eigval :     1372.61  1392.37  1403.31  1415.51  1424.13  1429.85
eigval :     1431.50  1443.02  1459.23  1468.01  1471.10  1485.38
eigval :     1494.08  1498.80  1503.71  1506.47  1514.58  1541.18
eigval :     1574.96  1581.78  1591.01  2288.79  3020.69  3025.71
eigval :     3033.22  3040.47  3057.64  3065.14  3074.69  3085.38
eigval :     3086.08  3087.14  3089.94  3091.41  3093.07  3093.83
eigval :     3098.21  3101.14  3103.94  3104.16  3106.17  3151.97

   temp. (K)  partition function   enthalpy   heat capacity  entropy
                                   cal/mol     cal/K/mol   cal/K/mol   J/K/mol
 298.15  VIB  0.122E+10            13049.256     85.669     78.984
         ROT  0.145E+08              888.752      2.981     35.748
         INT  0.177E+17            13938.008     88.650    114.732
         TR   0.662E+28             1481.254      4.968     43.520
         TOT                       15419.2618    93.6182   158.2520   662.1262

       T/K    H(0)-H(T)+PV         H(T)/Eh          T*S/Eh         G(T)/Eh
   ------------------------------------------------------------------------
    298.15    0.245722E-01    0.397628E+00    0.751906E-01    0.322438E+00
   ------------------------------------------------------------------------

         :::::::::::::::::::::::::::::::::::::::::::::::::::::
         ::                  THERMODYNAMIC                  ::
         :::::::::::::::::::::::::::::::::::::::::::::::::::::
         :: total free energy         -71.303555515611 Eh   ::
         ::.................................................::
         :: total energy              -71.625993365198 Eh   ::
         :: zero point energy           0.373056300091 Eh   ::
         :: G(RRHO) w/o ZPVE           -0.050618450505 Eh   ::
         :: G(RRHO) contrib.            0.322437849587 Eh   ::
         :::::::::::::::::::::::::::::::::::::::::::::::::::::

           -------------------------------------------------
          | TOTAL ENERGY              -71.625993365198 Eh   |
          | TOTAL ENTHALPY            -71.228364907312 Eh   |
          | TOTAL FREE ENERGY         -71.303555515611 Eh   |
          | GRADIENT NORM               0.000052259618 Eh/α |
           -------------------------------------------------

 * finished run on 2025/09/04 at 10:41:41.375
