   * xtb version 6.7.1 (edcfbbe) compiled by 'albert@albert-system' on 2024-07-22

   ID    Z sym.   atoms
    1    6 C      1-9, 11-23, 25-28
    2    7 N      10, 24
    3    1 H      29-48

          program call               : xtb data2507/gas/BACN/BACN_gas_T1_crest.xyz --gfn 2 --spinpol --tblite --uhf 2 --ohess vtight --parallel 40 --molden --ceasefiles --namespace data2507/gas/BACN/BACN_gas_T1_finalOpt
 * total energy  :   -71.6259394 Eh     change        0.3086070E-07 Eh
 * total energy  :   -71.6259733 Eh     change       -0.3392818E-04 Eh
 * total energy  :   -71.6259903 Eh     change       -0.1697919E-04 Eh
 * total energy  :   -71.6259892 Eh     change        0.1132971E-05 Eh
 * total energy  :   -71.6259927 Eh     change       -0.3584594E-05 Eh
 * total energy  :   -71.6259929 Eh     change       -0.2061012E-06 Eh
 * total energy  :   -71.6259933 Eh     change       -0.3772270E-06 Eh
 * total energy  :   -71.6259937 Eh     change       -0.4230816E-06 Eh
 * total energy  :   -71.6259942 Eh     change       -0.4410185E-06 Eh
 * total energy  :   -71.6259944 Eh     change       -0.1673267E-06 Eh
 * total energy  :   -71.6259944 Eh     change       -0.6983703E-07 Eh
   *** GEOMETRY OPTIMIZATION CONVERGED AFTER 11 ITERATIONS ***

 final structure:
================
48
 xtb: 6.7.1 (edcfbbe)
C            0.86573358263679       -2.79755048396793       -1.12088379872003
C            0.25749606365854       -1.97098357372770        0.04406384095952
C            0.63922689267713       -2.53074235200162        1.43879236836815
C           -1.24500368497917       -2.12902975128174       -0.02685534736165
C           -1.79425519332553       -3.40309023025275       -0.05742860258551
C           -3.16163358057966       -3.60706962884157       -0.07327299610763
C           -4.01730434436170       -2.51214263243343       -0.04905624331574
C           -3.50345628011181       -1.23823947349972       -0.02238349236165
C           -2.11346982468355       -1.02702346428372       -0.01903860199029
N           -1.60542367862484        0.24735019567447       -0.01237230577463
C           -2.52700886736332        1.33616059117771        0.00825337512140
C           -2.89492452491923        1.90328072606932        1.22072491191805
C           -3.79650822423839        2.95290106211676        1.23918326761156
C           -4.32883904524598        3.43382198719787        0.05434342054224
C           -3.95973010397418        2.86553246611355       -1.15370807546263
C           -3.05878083721554        1.81575216516464       -1.18160761081990
C           -0.26030426615190        0.53450879199285       -0.04280825061945
C            0.15063974318367        1.86049960187399       -0.10071631984706
C            1.48438142499766        2.18892631532970       -0.11742855919081
C            2.48850582995824        1.18039512795690       -0.06506479913286
C            3.82398456395307        1.53519675833917       -0.06464173903824
C            4.85163685585381        0.54211528248943       -0.01004809244780
C            6.19780784974549        0.91338288923377       -0.00960678277523
N            7.31000240313813        1.21828770436478       -0.00911024896124
C            4.47629109029841       -0.79273214160377        0.04227882101434
C            3.14378348937521       -1.15862635391133        0.03994828243704
C            2.08539950223247       -0.19718970076308       -0.01351317104480
C            0.72383109468233       -0.53448834303751       -0.01877337034297
H            0.09026253358691       -3.04687540794244       -1.84254389210611
H            1.30356152568654       -3.72574056018491       -0.76213481094641
H            1.62821547243226       -2.23392216479856       -1.64958776310192
H            0.42603417162306       -3.59494678661894        1.49494561363053
H            0.04696958247293       -2.02502233561360        2.20026044219375
H            1.68639840262318       -2.36629335822335        1.66921664967549
H           -1.13909162406925       -4.26053503573809       -0.07243354389791
H           -3.55939309750107       -4.60949580820753       -0.09928657862268
H           -5.08678803734146       -2.65799915607221       -0.05221048983386
H           -4.17118611535268       -0.39112635844140       -0.00349229289349
H           -2.47129169028342        1.52069652031555        2.13725301908612
H           -4.08309638239294        3.39496268619498        2.18128214239193
H           -5.03163536949555        4.25280210711096        0.07236765035168
H           -4.37317746721400        3.23987118324831       -2.07788532899373
H           -2.76197424336888        1.36436281145837       -2.11652599382559
H           -0.58543912775726        2.64865970815259       -0.13451532374625
H            1.78958643098520        3.22203264886943       -0.16545821555546
H            4.10517040403079        2.57637978060844       -0.10561015662608
H            5.23808676166222       -1.55863543516490        0.08467689385615
H            2.92967804645722       -2.21067564734180        0.07789680289152

 projected vibrational frequencies (cm⁻¹)
eigval :       -0.00    -0.00    -0.00    -0.00     0.00     0.00
eigval :       14.41    26.30    34.69    58.74    68.55    86.91
eigval :       96.43   106.81   136.86   144.27   163.69   175.34
eigval :      194.59   210.33   221.78   239.49   262.31   274.02
eigval :      306.56   327.73   337.20   339.26   365.09   372.44
eigval :      386.84   402.55   425.03   429.71   449.68   486.39
eigval :      489.60   506.70   513.52   526.29   538.20   560.02
eigval :      564.47   585.10   592.52   605.28   606.05   630.50
eigval :      670.24   684.80   688.51   695.31   718.51   747.43
eigval :      757.01   769.03   778.50   793.81   798.89   825.22
eigval :      861.17   864.09   874.33   892.37   899.98   912.93
eigval :      915.11   916.62   918.98   927.68   933.38   939.35
eigval :      960.00   973.22   992.84  1027.06  1048.82  1077.08
eigval :     1079.02  1101.70  1114.05  1115.39  1119.05  1146.73
eigval :     1152.87  1177.93  1179.71  1182.51  1184.56  1188.20
eigval :     1201.35  1226.31  1244.75  1261.67  1272.64  1275.06
eigval :     1281.21  1305.19  1309.59  1314.42  1342.71  1351.11
eigval :     1372.65  1392.38  1403.22  1415.44  1424.17  1429.83
eigval :     1431.49  1442.84  1459.17  1467.96  1470.87  1484.85
eigval :     1494.01  1498.64  1503.44  1506.59  1514.95  1541.16
eigval :     1574.77  1581.49  1590.71  2289.06  3020.64  3025.98
eigval :     3033.35  3040.38  3058.40  3065.58  3074.69  3085.47
eigval :     3086.23  3087.15  3090.04  3091.71  3093.13  3093.77
eigval :     3098.20  3101.42  3103.98  3104.21  3106.25  3151.30

   temp. (K)  partition function   enthalpy   heat capacity  entropy
                                   cal/mol     cal/K/mol   cal/K/mol   J/K/mol
 298.15  VIB  0.120E+10            13048.923     85.675     78.973
         ROT  0.145E+08              888.752      2.981     35.747
         INT  0.173E+17            13937.676     88.656    114.720
         TR   0.662E+28             1481.254      4.968     43.520
         TOT                       15418.9295    93.6237   158.2405   662.0783

       T/K    H(0)-H(T)+PV         H(T)/Eh          T*S/Eh         G(T)/Eh
   ------------------------------------------------------------------------
    298.15    0.245716E-01    0.397630E+00    0.751852E-01    0.322445E+00
   ------------------------------------------------------------------------

         :::::::::::::::::::::::::::::::::::::::::::::::::::::
         ::                  THERMODYNAMIC                  ::
         :::::::::::::::::::::::::::::::::::::::::::::::::::::
         :: total free energy         -71.303549185425 Eh   ::
         ::.................................................::
         :: total energy              -71.625994452195 Eh   ::
         :: zero point energy           0.373058809525 Eh   ::
         :: G(RRHO) w/o ZPVE           -0.050613542756 Eh   ::
         :: G(RRHO) contrib.            0.322445266769 Eh   ::
         :::::::::::::::::::::::::::::::::::::::::::::::::::::

           -------------------------------------------------
          | TOTAL ENERGY              -71.625994452195 Eh   |
          | TOTAL ENTHALPY            -71.228364014526 Eh   |
          | TOTAL FREE ENERGY         -71.303549185425 Eh   |
          | GRADIENT NORM               0.000095752711 Eh/α |
           -------------------------------------------------

 * finished run on 2025/09/04 at 10:43:21.400
