   * xtb version 6.7.1 (edcfbbe) compiled by 'albert@albert-system' on 2024-07-22

   ID    Z sym.   atoms
    1    6 C      1-6, 8-22, 24-29, 33-38, 42-45, 47-60
    2    7 N      7, 23, 46
    3   16 S      30, 39
    4    8 O      31, 32, 40, 41
    5    1 H      61-95

          program call               : xtb data2507/toluene/2Cz-DMAC-TTR/2Cz-DMAC-TTR_toluene_T1_crest.xyz --gfn 2 --uhf 2 --gbsa toluene --ohess vtight --parallel 40 --molden --ceasefiles --namespace data2507/toluene/2Cz-DMAC-TTR/2Cz-DMAC-TTR_toluene_T1_finalOpt
      * Solvation model:               GBSA
        Solvent                        toluene
        Solvent mass                       9.2140E+01 g/mol
          :  Hamiltonian                  GFN2-xTB          :
 * total energy  :  -158.6528948 Eh     change       -0.6411057E-08 Eh
 * total energy  :  -158.6538237 Eh     change       -0.9288537E-03 Eh
 * total energy  :  -158.6544521 Eh     change       -0.6283654E-03 Eh
 * total energy  :  -158.6545033 Eh     change       -0.5128302E-04 Eh
 * total energy  :  -158.6545877 Eh     change       -0.8438318E-04 Eh
 * total energy  :  -158.6546138 Eh     change       -0.2607753E-04 Eh
 * total energy  :  -158.6546561 Eh     change       -0.4226102E-04 Eh
 * total energy  :  -158.6546898 Eh     change       -0.3370469E-04 Eh
 * total energy  :  -158.6547256 Eh     change       -0.3580416E-04 Eh
 * total energy  :  -158.6547603 Eh     change       -0.3468336E-04 Eh
 * total energy  :  -158.6552744 Eh     change       -0.7313467E-06 Eh
 * total energy  :  -158.6552748 Eh     change       -0.4139550E-06 Eh
 * total energy  :  -158.6552752 Eh     change       -0.3852626E-06 Eh
 * total energy  :  -158.6552757 Eh     change       -0.5194668E-06 Eh
 * total energy  :  -158.6552763 Eh     change       -0.6124980E-06 Eh
 * total energy  :  -158.6552770 Eh     change       -0.7339547E-06 Eh
 * total energy  :  -158.6552780 Eh     change       -0.1002342E-05 Eh
 * total energy  :  -158.6552794 Eh     change       -0.1316642E-05 Eh
 * total energy  :  -158.6552794 Eh     change       -0.2140422E-07 Eh
   *** GEOMETRY OPTIMIZATION CONVERGED AFTER 122 ITERATIONS ***

 final structure:
================
95
 xtb: 6.7.1 (edcfbbe)
C           -0.02917897931483        3.44717014544351       -1.46209441312924
C           -0.01378730865291        2.79112744650406       -0.06731885995843
C            0.08445571001419        3.87168204571813        1.02732746902066
C           -1.30385160031105        2.02350636216326        0.12996714021547
C           -2.50858881296078        2.69880702469026        0.08757350396579
C           -3.73098223712145        2.04513682636517        0.25038723000507
N           -4.92031561168417        2.75791807339845        0.18965468459974
C           -6.05594221116500        2.38094142189073       -0.50852822772425
C           -6.26060594768832        1.29034575771148       -1.34294881964839
C           -7.49514253293710        1.17029385652084       -1.95646299052120
C           -8.49851926035197        2.11518961342644       -1.76136804055057
C           -8.28734651302708        3.22319087597277       -0.95882626609110
C           -7.05839117393002        3.36248607540448       -0.33287229300258
C           -6.49722531823096        4.37397853123688        0.52632333507808
C           -7.00128667216191        5.54598550085646        1.06902618792855
C           -6.18909459109990        6.28877084869133        1.90864757568186
C           -4.90331859699784        5.85957775973590        2.22495201085266
C           -4.38098835900665        4.69284792315927        1.69524591533752
C           -5.17729213354768        3.96364996904994        0.82250627592769
C           -3.73528117443579        0.66472561535436        0.48279230608779
C           -2.54982833297892       -0.02053280974983        0.54547089755421
C           -1.31865474971656        0.63356165337133        0.35958491894049
N           -0.15207488196457       -0.08577041179665        0.42607107775551
C           -0.21785402814209       -1.48952948271269        0.66384569202906
C            0.04596035949575       -1.98935169268721        1.97121802834992
C           -0.01756399994501       -3.34193913304607        2.19778781278114
C           -0.38508111666672       -4.22050331650061        1.18288633131169
C           -0.63970516735518       -3.71589007330678       -0.11987471982507
C           -0.52626745407581       -2.35753550708994       -0.36507412311749
S           -0.83773558989323       -4.85235150733724       -1.44587750974341
O           -2.09073256431851       -5.57667575862340       -1.36049705971581
O           -0.65239167593835       -4.12100351405085       -2.69403420676298
C            0.55266973747645       -5.91306192704037       -1.20233843272233
C            1.48370808213650       -6.11417751153896       -2.21310831076602
C            2.62896494863599       -6.84095621708571       -1.96414587708730
C            2.87596538230463       -7.34212269708322       -0.67750010938810
C            1.97465817018935       -7.10726958542787        0.33948082286009
C            0.79892295616227       -6.41310713516299        0.08361832541823
S           -0.29399470410935       -5.95880031253981        1.39665776412421
O            0.36935727247557       -6.23120925697812        2.66586259758648
O           -1.58937997260132       -6.59500475263654        1.24773230264276
C            1.07660005930911        0.50205164138377        0.26136923328813
C            2.23753169382762       -0.29019461489836        0.31746212997249
C            3.48299141542022        0.26269544663105        0.16643309759997
C            3.61179630746615        1.63662925202097       -0.06826878828591
N            4.86221846052944        2.21615292521386       -0.23146450796370
C            5.21141686533874        3.12689519125816       -1.21592348470243
C            4.46645883916196        3.60294838847217       -2.28646533031694
C            5.07795743405280        4.48795266817367       -3.15686877464633
C            6.40111103312083        4.88249421691606       -2.98062010009775
C            7.16038689517133        4.38118446740019       -1.93730238460309
C            6.56649819537476        3.49461796419093       -1.05222844444650
C            7.05294465143588        2.76927127843591        0.09385612130080
C            8.27507790376051        2.73570506570830        0.74726943674358
C            8.40476341551982        1.93055214245425        1.86582942280522
C            7.32836680907958        1.18711756013587        2.34139355330972
C            6.09894916218135        1.20829591761768        1.70658334166271
C            5.97332502342058        1.98668860710310        0.56388778648037
C            2.45879273241076        2.41989331208488       -0.14448166614228
C            1.19568400114030        1.88476893969370        0.02118571794671
H           -0.06172616950421        2.68121931474238       -2.23430242532950
H            0.85853660046551        4.05404124498380       -1.60928549350778
H           -0.89846014713601        4.08688174661369       -1.57702335894144
H           -0.73457895499014        4.57858038942573        0.94134454317631
H            1.01604181387731        4.42198360448276        0.94208488930368
H            0.04589644002176        3.40967661751709        2.01146312052602
H           -2.52301525503674        3.75743828760961       -0.11416890980244
H           -5.48576078860914        0.56134718237462       -1.52253296233712
H           -7.68027753448082        0.32643471957458       -2.60425422219275
H           -9.45014560461952        1.98450761778063       -2.25440472128870
H           -9.05885917260513        3.96609523326253       -0.82696726655072
H           -8.00775157755746        5.86519938705523        0.84623556085789
H           -6.56189177353760        7.20624201513552        2.33871532073316
H           -4.30218620037113        6.44585015635791        2.90364055040367
H           -3.39620848458196        4.35449613613044        1.97516317210811
H           -4.66607689704889        0.14816618719751        0.65474353344425
H           -2.55689693201245       -1.07853448362712        0.75219201883367
H            0.29412533477487       -1.30110429174653        2.76237720611316
H            0.20543894787732       -3.76603429422916        3.16465786989827
H           -0.68886169133489       -2.00897952646638       -1.37387134390593
H            1.27375030395080       -5.68736582949931       -3.18210674085238
H            3.33904739310318       -7.01980290489563       -2.75623240254144
H            3.77544621939284       -7.90500639803574       -0.48325609794927
H            2.14446182799708       -7.45143336395173        1.34846655767433
H            2.13973565488900       -1.35360462613976        0.46366178730005
H            4.35792771915655       -0.36717906888992        0.18269251657748
H            3.45205025496479        3.27872229391205       -2.45577319505133
H            4.51774225513939        4.87498669719812       -3.99479934877264
H            6.84427298159111        5.57662053271713       -3.67890051827752
H            8.19417918961173        4.66639402200733       -1.81748916037004
H            9.10343722530522        3.32990715274916        0.39341475490574
H            9.34960364152070        1.88603772325880        2.38650944785004
H            7.45240536005154        0.58362950151490        3.22810189773599
H            5.26788614793772        0.64524648312529        2.10121022067106
H            2.57549082734096        3.47968114052958       -0.30184654494051

          :  Hamiltonian                  GFN2-xTB          :
         :: gradient norm              0.000088182211 Eh/a0 ::
         :: HOMO-LUMO gap              0.226936748050 eV    ::
         :: SCC energy              -161.270738162721 Eh    ::
         :: -> dispersion             -0.146587222775 Eh    ::
         :: -> Gsolv                  -0.104905288953 Eh    ::
         :: repulsion energy           2.615458780654 Eh    ::

    * Orbital Energies and Occupations

         #    Occupation            Energy/Eh            Energy/eV
      -------------------------------------------------------------
         1        2.0000           -0.7624966             -20.7486
       ...           ...                  ...                  ...
       134        2.0000           -0.4189375             -11.3999
       135        2.0000           -0.4188774             -11.3982
       136        2.0000           -0.4173340             -11.3562
       137        2.0000           -0.4159402             -11.3183
       138        2.0000           -0.4123911             -11.2217
       139        2.0000           -0.4100379             -11.1577
       140        2.0000           -0.3937879             -10.7155
       141        2.0000           -0.3929092             -10.6916
       142        2.0000           -0.3928716             -10.6906
       143        2.0000           -0.3893817             -10.5956
       144        1.9992           -0.3795461             -10.3280
       145        1.0008           -0.3660535              -9.9608
       146        0.9877           -0.2744591              -7.4684 (HOMO)
       147        0.0123           -0.2661195              -7.2415 (LUMO)
       148        0.0000           -0.2584945              -7.0340
       149        0.0000           -0.2555931              -6.9550
       150                         -0.2509618              -6.8290
       151                         -0.2505834              -6.8187
       152                         -0.2479923              -6.7482
       153                         -0.2448135              -6.6617
       154                         -0.2365980              -6.4382
       155                         -0.2365618              -6.4372
       156                         -0.2361249              -6.4253
       157                         -0.2335152              -6.3543
       ...                                ...                  ...
       285                          1.2024255              32.7197
      -------------------------------------------------------------
                  HL-Gap            0.0083396 Eh            0.2269 eV

     #   Z          covCN         q      C6AA      α(0)
     1   6 C        3.761    -0.114    22.722     6.795
     2   6 C        3.910     0.026    20.071     6.368
     3   6 C        3.761    -0.114    22.734     6.797
     4   6 C        2.977     0.006    27.890     8.663
     5   6 C        2.927    -0.046    29.150     8.854
     6   6 C        2.911     0.063    26.582     8.454
     7   7 N        2.801    -0.005    21.356     6.864
     8   6 C        3.066     0.044    26.945     8.512
     9   6 C        2.909    -0.044    29.081     8.843
    10   6 C        2.923    -0.030    28.746     8.792
    11   6 C        2.920    -0.032    28.809     8.802
    12   6 C        2.912    -0.029    28.722     8.788
    13   6 C        3.064    -0.010    28.190     8.707
    14   6 C        3.064    -0.009    28.181     8.705
    15   6 C        2.912    -0.028    28.712     8.786
    16   6 C        2.920    -0.033    28.814     8.803
    17   6 C        2.923    -0.030    28.754     8.794
    18   6 C        2.910    -0.045    29.118     8.848
    19   6 C        3.066     0.044    26.955     8.513
    20   6 C        2.918    -0.037    28.917     8.818
    21   6 C        2.921    -0.041    29.030     8.836
    22   6 C        2.932     0.057    26.721     8.477
    23   7 N        2.755     0.016    20.980     6.803
    24   6 C        2.929     0.030    27.327     8.573
    25   6 C        2.914    -0.059    29.477     8.903
    26   6 C        2.950    -0.024    28.608     8.773
    27   6 C        3.003    -0.116    30.923     9.122
    28   6 C        3.009    -0.112    30.819     9.106
    29   6 C        2.956    -0.035    28.866     8.812
    30  16 S        3.905     0.899   109.604    17.620
    31   8 O        0.860    -0.596    26.011     6.838
    32   8 O        0.860    -0.580    25.638     6.789
    33   6 C        3.009    -0.100    30.496     9.059
    34   6 C        2.953    -0.027    28.663     8.781
    35   6 C        2.918    -0.036    28.902     8.816
    36   6 C        2.918    -0.036    28.894     8.815
    37   6 C        2.952    -0.026    28.655     8.780
    38   6 C        3.010    -0.099    30.475     9.056
    39  16 S        3.902     0.893   109.791    17.635
    40   8 O        0.860    -0.583    25.698     6.797
    41   8 O        0.860    -0.598    26.078     6.847
    42   6 C        2.932     0.057    26.718     8.477
    43   6 C        2.921    -0.042    29.038     8.837
    44   6 C        2.918    -0.037    28.922     8.819
    45   6 C        2.910     0.063    26.578     8.454
    46   7 N        2.800    -0.004    21.337     6.860
    47   6 C        3.066     0.043    26.959     8.514
    48   6 C        2.910    -0.045    29.116     8.848
    49   6 C        2.923    -0.030    28.753     8.793
    50   6 C        2.920    -0.033    28.811     8.802
    51   6 C        2.912    -0.029    28.713     8.787
    52   6 C        3.064    -0.009    28.181     8.705
    53   6 C        3.064    -0.009    28.186     8.706
    54   6 C        2.912    -0.029    28.718     8.788
    55   6 C        2.920    -0.032    28.809     8.802
    56   6 C        2.923    -0.030    28.747     8.792
    57   6 C        2.910    -0.044    29.089     8.844
    58   6 C        3.066     0.044    26.950     8.513
    59   6 C        2.927    -0.046    29.149     8.854
    60   6 C        2.977     0.006    27.886     8.662
    61   1 H        0.925     0.042     2.422     2.434
    62   1 H        0.925     0.061     2.186     2.312
    63   1 H        0.925     0.059     2.205     2.322
    64   1 H        0.925     0.061     2.191     2.315
    65   1 H        0.925     0.060     2.194     2.316
    66   1 H        0.925     0.045     2.389     2.417
    67   1 H        0.926     0.075     2.032     2.229
    68   1 H        0.926     0.041     2.435     2.440
    69   1 H        0.926     0.039     2.461     2.453
    70   1 H        0.926     0.040     2.447     2.446
    71   1 H        0.926     0.044     2.391     2.418
    72   1 H        0.926     0.043     2.414     2.430
    73   1 H        0.926     0.041     2.436     2.441
    74   1 H        0.926     0.045     2.385     2.415
    75   1 H        0.926     0.050     2.323     2.384
    76   1 H        0.926     0.059     2.205     2.322
    77   1 H        0.926     0.051     2.302     2.373
    78   1 H        0.926     0.062     2.172     2.305
    79   1 H        0.926     0.057     2.235     2.338
    80   1 H        0.926     0.060     2.198     2.318
    81   1 H        0.926     0.055     2.261     2.351
    82   1 H        0.926     0.061     2.191     2.315
    83   1 H        0.926     0.060     2.198     2.318
    84   1 H        0.926     0.053     2.280     2.361
    85   1 H        0.926     0.055     2.254     2.348
    86   1 H        0.926     0.063     2.164     2.301
    87   1 H        0.926     0.049     2.338     2.391
    88   1 H        0.926     0.044     2.401     2.423
    89   1 H        0.926     0.040     2.444     2.445
    90   1 H        0.926     0.043     2.414     2.430
    91   1 H        0.926     0.043     2.403     2.424
    92   1 H        0.926     0.040     2.448     2.447
    93   1 H        0.926     0.041     2.432     2.439
    94   1 H        0.926     0.045     2.386     2.415
    95   1 H        0.926     0.074     2.038     2.232

molecular dipole:
                 x           y           z       tot (Debye)
 q only:        3.146      12.765       0.007
   full:        2.838      11.959       0.004      31.242

 projected vibrational frequencies (cm⁻¹)
eigval :       -0.00     0.00     0.00     0.00     0.00     0.00
eigval :        7.68    13.41    14.99    15.48    20.20    24.11
eigval :       32.11    36.75    42.01    46.82    56.48    84.64
eigval :       86.99    90.06   103.96   107.28   111.57   116.54
eigval :      120.59   126.04   128.79   133.66   135.64   147.15
eigval :      150.57   168.90   173.19   181.59   184.33   193.20
eigval :      199.88   208.93   219.65   233.24   241.32   256.73
eigval :      266.89   270.94   272.42   279.86   281.88   295.21
eigval :      311.45   318.04   322.40   327.09   332.72   339.66
eigval :      348.89   353.48   363.42   372.28   385.58   391.21
eigval :      395.28   400.46   408.16   416.63   417.78   420.83
eigval :      427.33   436.07   437.07   446.82   448.69   455.64
eigval :      462.18   480.65   486.48   508.93   510.79   514.31
eigval :      514.67   517.17   531.27   532.05   536.58   537.49
eigval :      538.53   543.68   553.63   566.97   578.02   585.49
eigval :      588.21   589.93   605.94   626.92   629.75   634.69
eigval :      638.45   639.64   649.86   673.85   675.22   677.34
eigval :      679.24   692.06   696.82   703.27   707.59   710.87
eigval :      711.73   738.99   754.07   754.21   754.38   770.34
eigval :      770.47   770.92   779.74   780.26   797.89   831.73
eigval :      835.26   841.67   863.26   868.68   870.65   872.34
eigval :      872.89   874.10   892.98   893.90   897.38   897.77
eigval :      900.30   900.98   903.21   904.88   905.53   906.36
eigval :      911.32   913.38   920.96   921.36   924.78   925.56
eigval :      928.80   931.19   931.82   940.36   959.38   980.73
eigval :      989.30   997.40  1006.52  1011.36  1011.79  1012.28
eigval :     1051.16  1056.61  1060.63  1068.57  1068.74  1070.36
eigval :     1071.92  1074.06  1079.15  1088.74  1114.02  1119.71
eigval :     1124.47  1143.16  1143.30  1145.27  1148.86  1151.08
eigval :     1153.51  1157.19  1164.86  1166.99  1168.75  1172.75
eigval :     1173.71  1176.53  1176.99  1182.54  1185.67  1185.99
eigval :     1199.02  1209.43  1222.42  1226.14  1226.60  1230.46
eigval :     1235.18  1245.33  1249.38  1261.64  1278.03  1282.17
eigval :     1289.66  1290.43  1297.87  1305.80  1314.05  1332.12
eigval :     1332.98  1341.85  1343.08  1344.34  1347.25  1353.09
eigval :     1358.22  1361.02  1366.18  1383.06  1394.66  1396.09
eigval :     1407.29  1410.69  1413.08  1413.18  1413.80  1414.47
eigval :     1424.04  1434.69  1436.85  1457.72  1460.51  1462.17
eigval :     1475.52  1478.35  1478.59  1479.14  1479.77  1480.81
eigval :     1490.71  1493.00  1494.09  1511.72  1522.58  1534.32
eigval :     1561.65  1568.89  1569.18  1571.01  1579.88  1580.85
eigval :     1580.93  1583.58  1598.43  1601.38  3032.22  3036.67
eigval :     3054.72  3056.69  3062.38  3066.39  3080.67  3081.53
eigval :     3081.59  3082.23  3087.02  3087.61  3088.18  3088.88
eigval :     3089.15  3089.81  3093.08  3094.87  3095.51  3095.97
eigval :     3096.32  3097.61  3097.89  3100.69  3102.14  3103.13
eigval :     3104.67  3105.12  3107.37  3107.49  3108.99  3114.34
eigval :     3114.86  3118.90  3120.03

   temp. (K)  partition function   enthalpy   heat capacity  entropy
                                   cal/mol     cal/K/mol   cal/K/mol   J/K/mol
 298.15  VIB  0.116E+23            29053.262    183.993    178.673
         ROT  0.207E+09              888.752      2.981     41.035
         INT  0.241E+31            29942.014    186.974    219.707
         TR   0.226E+29             1481.254      4.968     45.962
         TOT                       31423.2679   191.9421   265.6692  1111.5597

       T/K    H(0)-H(T)+PV         H(T)/Eh          T*S/Eh         G(T)/Eh
   ------------------------------------------------------------------------
    298.15    0.500762E-01    0.757864E+00    0.126228E+00    0.631636E+00
   ------------------------------------------------------------------------

         :::::::::::::::::::::::::::::::::::::::::::::::::::::
         ::                  THERMODYNAMIC                  ::
         :::::::::::::::::::::::::::::::::::::::::::::::::::::
         :: total free energy        -158.023643637126 Eh   ::
         ::.................................................::
         :: total energy             -158.655279377942 Eh   ::
         :: zero point energy           0.707787562086 Eh   ::
         :: G(RRHO) w/o ZPVE           -0.076151821270 Eh   ::
         :: G(RRHO) contrib.            0.631635740816 Eh   ::
         :::::::::::::::::::::::::::::::::::::::::::::::::::::

           -------------------------------------------------
          | TOTAL ENERGY             -158.655279377942 Eh   |
          | TOTAL ENTHALPY           -157.897415650903 Eh   |
          | TOTAL FREE ENERGY        -158.023643637126 Eh   |
          | GRADIENT NORM               0.000086360890 Eh/α |
          | HOMO-LUMO GAP               0.226932791721 eV   |
           -------------------------------------------------

 * finished run on 2025/07/17 at 22:55:44.512
