   * xtb version 6.7.1 (edcfbbe) compiled by 'albert@albert-system' on 2024-07-22

   ID    Z sym.   atoms
    1    6 C      1-6, 8-22, 24-29, 33-38, 42-45, 47-60
    2    7 N      7, 23, 46
    3   16 S      30, 39
    4    8 O      31, 32, 40, 41
    5    1 H      61-95

          program call               : xtb data2507/toluene/2Cz-DMAC-TTR/2Cz-DMAC-TTR_toluene_S0_crest.xyz --gfn 2 --gbsa toluene --ohess vtight --parallel 40 --molden --ceasefiles --namespace data2507/toluene/2Cz-DMAC-TTR/2Cz-DMAC-TTR_toluene_S0_finalOpt
      * Solvation model:               GBSA
        Solvent                        toluene
        Solvent mass                       9.2140E+01 g/mol
          :  Hamiltonian                  GFN2-xTB          :
 * total energy  :  -158.7296538 Eh     change       -0.2965834E-08 Eh
 * total energy  :  -158.7299978 Eh     change       -0.3440245E-03 Eh
 * total energy  :  -158.7302667 Eh     change       -0.2688633E-03 Eh
 * total energy  :  -158.7303038 Eh     change       -0.3716047E-04 Eh
 * total energy  :  -158.7303555 Eh     change       -0.5164211E-04 Eh
 * total energy  :  -158.7303710 Eh     change       -0.1552581E-04 Eh
 * total energy  :  -158.7303951 Eh     change       -0.2404749E-04 Eh
 * total energy  :  -158.7304087 Eh     change       -0.1362487E-04 Eh
 * total energy  :  -158.7304514 Eh     change       -0.4273444E-04 Eh
 * total energy  :  -158.7304683 Eh     change       -0.1688753E-04 Eh
 * total energy  :  -158.7306609 Eh     change       -0.6068256E-06 Eh
 * total energy  :  -158.7306613 Eh     change       -0.4333291E-06 Eh
 * total energy  :  -158.7306617 Eh     change       -0.4297769E-06 Eh
 * total energy  :  -158.7306622 Eh     change       -0.4524184E-06 Eh
 * total energy  :  -158.7306626 Eh     change       -0.4375736E-06 Eh
 * total energy  :  -158.7306630 Eh     change       -0.3458884E-06 Eh
 * total energy  :  -158.7306632 Eh     change       -0.2648434E-06 Eh
 * total energy  :  -158.7306634 Eh     change       -0.2170846E-06 Eh
 * total energy  :  -158.7306634 Eh     change       -0.2536837E-08 Eh
   *** GEOMETRY OPTIMIZATION CONVERGED AFTER 68 ITERATIONS ***

 final structure:
================
95
 xtb: 6.7.1 (edcfbbe)
C            0.52245790603217       -0.05959837195916       -2.42457720412358
C            1.34134667376782        0.78734577954425       -1.42845077706163
C            2.22401207308605        1.74442999223226       -2.22991487745414
C            0.38369516816078        1.51875907501598       -0.50218151110788
C            0.09343780404977        2.86927512087920       -0.59497998935695
C           -0.79333441777361        3.47247337193468        0.29311522336115
N           -1.09718897549825        4.83396216628632        0.16347212352007
C           -2.36960892294043        5.37180548524177        0.13121894182818
C           -3.60089458283396        4.73144351214957        0.15319718781559
C           -4.73664089117801        5.51557481378337        0.07955080860318
C           -4.65817594658450        6.90330373008703       -0.02247663699325
C           -3.43567910179667        7.54380777024568       -0.06837738556311
C           -2.27929588984442        6.77737251344835        0.00412946938458
C           -0.87855471310565        7.09505858004405       -0.03274360922706
C           -0.17072963142093        8.28704405516789       -0.12295227558482
C            1.20929671976576        8.24065826469026       -0.10614340853712
C            1.88387136915691        7.02712862575912        0.01335942032261
C            1.20180646769518        5.82864332830348        0.10516850017524
C           -0.18493932660128        5.86667896749079        0.06527836068174
C           -1.36952966337579        2.72366145858279        1.31474839811657
C           -1.08879650457664        1.37638101852133        1.41787916898497
C           -0.24663592597079        0.76852070436580        0.49504703283300
N            0.07484110207715       -0.60562615131111        0.59028380175583
C           -0.86681155404382       -1.59155074500232        0.61125174288444
C           -0.51583792649628       -2.95680530923406        0.57444909616890
C           -1.47632324814734       -3.94387977824283        0.60462871991196
C           -2.82311075992727       -3.61371606482734        0.66526210481178
C           -3.18275790191104       -2.27883218804902        0.63073941359422
C           -2.24136154450322       -1.28020924113724        0.58492841351777
S           -4.91629188719213       -1.83634368208546        0.60270084022415
O           -5.49499293819871       -2.03244452619150        1.90733701900964
O           -5.03472299752233       -0.50301530197191        0.05492646039389
C           -5.64723446247754       -2.98899712739525       -0.56065091786805
C           -6.55725174458397       -2.54512473368995       -1.50349377274910
C           -7.11133818141380       -3.45287966828886       -2.39470254480394
C           -6.74521374956378       -4.78989654861613       -2.34611568510347
C           -5.82251888505236       -5.22687227263997       -1.40629878211338
C           -5.28136517744002       -4.32024814138301       -0.51234465169624
S           -4.09017286525325       -4.86007044512413        0.71831284374196
O           -3.52181955751970       -6.11462186609229        0.27781590672228
O           -4.72722248950858       -4.87513905010234        2.01165604319149
C            1.46326150778653       -0.84160927318464        0.45911528628940
C            2.14595833286722       -1.65581385207673        1.35398765090032
C            3.50813012561629       -1.84123833851825        1.22265882879608
C            4.19967498585509       -1.18030345545538        0.21236886829956
N            5.58079551784723       -1.36221947765495        0.06139189650004
C            6.22570145344859       -1.69097322638579       -1.11571663162480
C            5.69550459949202       -1.95178823985487       -2.37152552012990
C            6.57162532268512       -2.29009276076790       -3.38540377006130
C            7.94438457485063       -2.37671283515995       -3.16185506119399
C            8.47547434899374       -2.14169796696304       -1.90899565644035
C            7.61430673640222       -1.80129942760027       -0.87341050061083
C            7.80863737496832       -1.52034905413657        0.52211984913639
C            8.93192221106440       -1.46100077186213        1.33721169252157
C            8.76703993479150       -1.13443271322283        2.66876372804480
C            7.50420073223728       -0.85135144464461        3.18553511243826
C            6.37210291631888       -0.90387342817505        2.39458832596548
C            6.52811502602353       -1.25797021352195        1.06171975978999
C            3.51886100174255       -0.32016622591349       -0.64604922548643
C            2.15055011374822       -0.14128581099273       -0.53812257603732
H           -0.12365076849327       -0.77051331708477       -1.91753845787433
H            1.19497407215694       -0.61096616313717       -3.07748166241198
H           -0.09865981935424        0.59235699949536       -3.03429639519793
H            1.60913176520901        2.38065957886111       -2.86043824667526
H            2.88414829908167        1.18444895879498       -2.88669399972412
H            2.82360566293399        2.36875071504590       -1.57206353161287
H            0.53289831595737        3.47566303736874       -1.36892780639882
H           -3.67653508089284        3.65601278030332        0.21625593287476
H           -5.70645381486452        5.03976663954453        0.09882899686223
H           -5.56950608501371        7.48097571460580       -0.07424714077077
H           -3.37580213817813        8.61786788779458       -0.16261765946588
H           -0.69330498188716        9.22893985240535       -0.19889460229935
H            1.77775522106559        9.15648625111263       -0.17675488373519
H            2.96390062256045        7.02395675854030        0.03981399448869
H            1.73304842883923        4.89633218838385        0.22000000434377
H           -2.01877541086252        3.20091189386640        2.03214731590160
H           -1.51014892838302        0.79798023321096        2.22584233296661
H            0.52024397117782       -3.24133942540053        0.49564530512944
H           -1.20673100531869       -4.98753057346039        0.57358379123810
H           -2.59516343300711       -0.26650137146546        0.49885524074582
H           -6.80697954106401       -1.49596963982215       -1.52295675030419
H           -7.82547185854499       -3.11276250178697       -3.12838151486436
H           -7.17350677138929       -5.49451297582718       -3.04184597491520
H           -5.50326549334613       -6.25571677580475       -1.35008364283482
H            1.61109930347588       -2.13621650425226        2.15860216109360
H            4.03565145369400       -2.49671240091974        1.89777936662157
H            4.63226634655204       -1.90658327472277       -2.55080926565675
H            6.18392899920820       -2.49632124215637       -4.37249260888567
H            8.59745765221063       -2.64143725764448       -3.98059508081223
H            9.53742575617575       -2.22548097096201       -1.73210887901406
H            9.91265328987350       -1.66388703025129        0.93332513253863
H            9.62736781780903       -1.08636016686845        3.32030708143948
H            7.40831914815591       -0.58193974315509        4.22742767862587
H            5.40145721364002       -0.66523905131564        2.80207292215534
H            4.08747113308681        0.21183405862249       -1.39004016373799

          :  Hamiltonian                  GFN2-xTB          :
         :: gradient norm              0.000039062052 Eh/a0 ::
         :: HOMO-LUMO gap              1.961910759790 eV    ::
         :: SCC energy              -161.364794867298 Eh    ::
         :: -> dispersion             -0.147174158311 Eh    ::
         :: -> Gsolv                  -0.078350108482 Eh    ::
         :: repulsion energy           2.634131430969 Eh    ::

    * Orbital Energies and Occupations

         #    Occupation            Energy/Eh            Energy/eV
      -------------------------------------------------------------
         1        2.0000           -0.7941687             -21.6104
       ...           ...                  ...                  ...
       133        2.0000           -0.4191737             -11.4063
       134        2.0000           -0.4185352             -11.3889
       135        2.0000           -0.4172891             -11.3550
       136        2.0000           -0.4154719             -11.3056
       137        2.0000           -0.4139898             -11.2652
       138        2.0000           -0.4128290             -11.2336
       139        2.0000           -0.4060075             -11.0480
       140        2.0000           -0.4053791             -11.0309
       141        2.0000           -0.3826632             -10.4128
       142        2.0000           -0.3794202             -10.3245
       143        2.0000           -0.3787756             -10.3070
       144        2.0000           -0.3642063              -9.9106
       145        2.0000           -0.3617503              -9.8437 (HOMO)
       146                         -0.2896514              -7.8818 (LUMO)
       147                         -0.2723564              -7.4112
       148                         -0.2689239              -7.3178
       149                         -0.2635674              -7.1720
       150                         -0.2479267              -6.7464
       151                         -0.2459584              -6.6929
       152                         -0.2439732              -6.6388
       153                         -0.2395903              -6.5196
       154                         -0.2363718              -6.4320
       155                         -0.2346471              -6.3851
       156                         -0.2228132              -6.0631
       ...                                ...                  ...
       285                          1.2115454              32.9678
      -------------------------------------------------------------
                  HL-Gap            0.0720989 Eh            1.9619 eV

     #   Z          covCN         q      C6AA      α(0)
     1   6 C        3.762    -0.106    22.577     6.773
     2   6 C        3.910     0.025    20.092     6.371
     3   6 C        3.759    -0.114    22.725     6.796
     4   6 C        2.986     0.001    28.006     8.681
     5   6 C        2.926    -0.050    29.253     8.870
     6   6 C        2.912     0.061    26.622     8.461
     7   7 N        2.803    -0.041    22.039     6.972
     8   6 C        3.074     0.046    26.891     8.502
     9   6 C        2.909    -0.052    29.286     8.874
    10   6 C        2.924    -0.035    28.862     8.810
    11   6 C        2.919    -0.042    29.049     8.838
    12   6 C        2.912    -0.035    28.866     8.810
    13   6 C        3.067    -0.018    28.388     8.737
    14   6 C        3.067    -0.018    28.381     8.736
    15   6 C        2.912    -0.034    28.856     8.809
    16   6 C        2.920    -0.042    29.050     8.839
    17   6 C        2.924    -0.035    28.865     8.811
    18   6 C        2.910    -0.052    29.300     8.876
    19   6 C        3.073     0.046    26.894     8.503
    20   6 C        2.922    -0.044    29.091     8.845
    21   6 C        2.919    -0.044    29.095     8.845
    22   6 C        2.950     0.043    27.032     8.528
    23   7 N        2.754    -0.033    21.883     6.948
    24   6 C        2.912     0.081    26.202     8.394
    25   6 C        2.922    -0.052    29.285     8.874
    26   6 C        2.949    -0.018    28.460     8.750
    27   6 C        3.005    -0.104    30.607     9.075
    28   6 C        3.010    -0.082    30.037     8.990
    29   6 C        2.968    -0.053    29.308     8.880
    30  16 S        3.873     0.974   107.406    17.443
    31   8 O        0.860    -0.573    25.465     6.766
    32   8 O        0.860    -0.557    25.092     6.716
    33   6 C        3.006    -0.082    30.024     8.988
    34   6 C        2.953    -0.016    28.400     8.741
    35   6 C        2.920    -0.013    28.336     8.729
    36   6 C        2.920    -0.013    28.330     8.728
    37   6 C        2.952    -0.015    28.395     8.740
    38   6 C        3.006    -0.081    30.009     8.986
    39  16 S        3.861     0.967   107.597    17.458
    40   8 O        0.860    -0.558    25.104     6.718
    41   8 O        0.860    -0.577    25.552     6.777
    42   6 C        2.948     0.044    27.021     8.526
    43   6 C        2.919    -0.045    29.111     8.848
    44   6 C        2.922    -0.045    29.112     8.848
    45   6 C        2.911     0.061    26.625     8.461
    46   7 N        2.802    -0.040    22.020     6.969
    47   6 C        3.074     0.046    26.898     8.503
    48   6 C        2.910    -0.053    29.305     8.877
    49   6 C        2.924    -0.035    28.866     8.811
    50   6 C        2.920    -0.042    29.049     8.838
    51   6 C        2.912    -0.034    28.855     8.808
    52   6 C        3.067    -0.018    28.382     8.736
    53   6 C        3.067    -0.018    28.384     8.736
    54   6 C        2.912    -0.035    28.860     8.809
    55   6 C        2.920    -0.042    29.050     8.838
    56   6 C        2.924    -0.035    28.865     8.811
    57   6 C        2.910    -0.052    29.300     8.876
    58   6 C        3.074     0.046    26.897     8.503
    59   6 C        2.926    -0.050    29.232     8.867
    60   6 C        2.985     0.001    27.999     8.680
    61   1 H        0.925     0.036     2.509     2.477
    62   1 H        0.925     0.052     2.300     2.372
    63   1 H        0.925     0.050     2.324     2.384
    64   1 H        0.925     0.052     2.301     2.372
    65   1 H        0.925     0.052     2.291     2.367
    66   1 H        0.925     0.046     2.375     2.410
    67   1 H        0.926     0.065     2.137     2.286
    68   1 H        0.926     0.029     2.605     2.524
    69   1 H        0.926     0.029     2.606     2.525
    70   1 H        0.926     0.028     2.613     2.528
    71   1 H        0.926     0.032     2.565     2.504
    72   1 H        0.926     0.030     2.582     2.513
    73   1 H        0.926     0.028     2.611     2.527
    74   1 H        0.926     0.032     2.559     2.502
    75   1 H        0.926     0.034     2.533     2.489
    76   1 H        0.926     0.050     2.323     2.383
    77   1 H        0.926     0.047     2.359     2.402
    78   1 H        0.926     0.085     1.932     2.173
    79   1 H        0.926     0.078     2.003     2.213
    80   1 H        0.926     0.077     2.010     2.217
    81   1 H        0.926     0.083     1.952     2.185
    82   1 H        0.926     0.092     1.860     2.133
    83   1 H        0.926     0.092     1.862     2.134
    84   1 H        0.926     0.082     1.955     2.187
    85   1 H        0.926     0.054     2.276     2.359
    86   1 H        0.926     0.054     2.276     2.359
    87   1 H        0.926     0.034     2.534     2.489
    88   1 H        0.926     0.031     2.568     2.506
    89   1 H        0.926     0.028     2.622     2.532
    90   1 H        0.926     0.030     2.591     2.517
    91   1 H        0.926     0.030     2.584     2.514
    92   1 H        0.926     0.027     2.626     2.534
    93   1 H        0.926     0.030     2.588     2.516
    94   1 H        0.926     0.032     2.564     2.504
    95   1 H        0.926     0.065     2.145     2.290

molecular dipole:
                 x           y           z       tot (Debye)
 q only:        2.437       1.073      -3.670
   full:        2.065       0.860      -3.224       9.974

 projected vibrational frequencies (cm⁻¹)
eigval :       -0.00     0.00     0.00     0.00     0.00     0.00
eigval :        9.72    11.15    14.03    16.48    18.61    20.94
eigval :       30.60    44.14    47.87    52.38    60.76    79.73
eigval :       84.30    96.26    99.26   102.80   107.48   109.22
eigval :      120.16   133.98   135.76   141.06   146.93   149.03
eigval :      160.46   170.10   174.35   177.57   185.79   191.88
eigval :      209.86   214.72   231.05   249.22   254.15   259.12
eigval :      271.26   271.54   275.81   278.44   285.39   288.18
eigval :      299.66   315.90   321.11   329.33   331.07   343.26
eigval :      360.07   369.15   375.26   392.72   393.89   394.67
eigval :      403.10   406.60   419.65   422.01   424.59   433.48
eigval :      435.35   437.69   439.03   446.25   455.08   466.36
eigval :      481.77   491.77   505.70   507.66   513.77   516.87
eigval :      517.92   524.53   530.00   531.91   540.66   542.33
eigval :      543.29   550.50   565.17   569.73   575.83   587.99
eigval :      590.94   595.89   619.52   632.38   633.96   646.43
eigval :      649.51   656.48   673.97   674.77   675.39   677.91
eigval :      686.22   689.20   704.21   707.09   710.10   711.48
eigval :      721.64   744.70   755.19   755.89   767.80   769.05
eigval :      779.30   779.93   780.62   796.25   815.73   830.51
eigval :      840.10   848.84   866.02   867.67   871.74   874.92
eigval :      878.43   890.64   892.77   893.94   897.61   898.18
eigval :      902.12   902.58   903.49   905.09   906.53   914.05
eigval :      921.44   921.77   922.76   923.18   924.87   929.22
eigval :      934.55   941.32   943.25   951.14   966.80   989.28
eigval :      990.23  1000.32  1007.84  1010.03  1011.83  1013.40
eigval :     1067.33  1068.47  1069.39  1071.85  1072.71  1076.46
eigval :     1086.23  1086.48  1091.99  1118.40  1120.22  1135.00
eigval :     1138.88  1142.71  1146.39  1149.93  1151.82  1153.88
eigval :     1167.65  1167.83  1171.66  1174.51  1177.57  1179.96
eigval :     1182.38  1184.43  1185.64  1197.17  1202.93  1209.96
eigval :     1210.32  1217.12  1221.51  1231.83  1233.18  1234.78
eigval :     1235.55  1249.20  1253.59  1271.18  1279.26  1299.59
eigval :     1300.18  1300.96  1301.68  1312.17  1313.57  1321.10
eigval :     1328.27  1344.74  1355.25  1355.90  1359.73  1360.15
eigval :     1369.56  1370.74  1397.25  1402.21  1407.95  1412.32
eigval :     1419.80  1422.31  1424.43  1426.94  1427.54  1433.43
eigval :     1436.32  1460.68  1470.80  1474.05  1474.74  1481.53
eigval :     1486.22  1486.49  1487.11  1489.49  1500.52  1518.55
eigval :     1527.09  1557.45  1558.65  1566.73  1572.54  1573.57
eigval :     1574.36  1580.78  1584.22  1587.36  1587.82  1592.60
eigval :     1597.19  1597.39  1612.37  1612.68  3033.86  3036.05
eigval :     3039.04  3039.63  3054.28  3057.82  3070.73  3071.28
eigval :     3071.52  3071.81  3076.06  3077.35  3077.83  3078.11
eigval :     3083.62  3086.07  3086.54  3087.05  3091.04  3091.30
eigval :     3092.52  3094.09  3094.50  3094.75  3095.52  3101.61
eigval :     3105.77  3106.58  3106.96  3107.48  3110.45  3121.45
eigval :     3123.27  3125.90  3126.72

   temp. (K)  partition function   enthalpy   heat capacity  entropy
                                   cal/mol     cal/K/mol   cal/K/mol   J/K/mol
 298.15  VIB  0.613E+22            28726.230    182.623    176.854
         ROT  0.206E+09              888.752      2.981     41.020
         INT  0.126E+31            29614.982    185.603    217.874
         TR   0.226E+29             1481.254      4.968     45.962
         TOT                       31096.2361   190.5716   263.8359  1103.8893

       T/K    H(0)-H(T)+PV         H(T)/Eh          T*S/Eh         G(T)/Eh
   ------------------------------------------------------------------------
    298.15    0.495550E-01    0.761430E+00    0.125357E+00    0.636073E+00
   ------------------------------------------------------------------------

         :::::::::::::::::::::::::::::::::::::::::::::::::::::
         ::                  THERMODYNAMIC                  ::
         :::::::::::::::::::::::::::::::::::::::::::::::::::::
         :: total free energy        -158.094590111634 Eh   ::
         ::.................................................::
         :: total energy             -158.730663431225 Eh   ::
         :: zero point energy           0.711875247198 Eh   ::
         :: G(RRHO) w/o ZPVE           -0.075801927607 Eh   ::
         :: G(RRHO) contrib.            0.636073319591 Eh   ::
         :::::::::::::::::::::::::::::::::::::::::::::::::::::

           -------------------------------------------------
          | TOTAL ENERGY             -158.730663431225 Eh   |
          | TOTAL ENTHALPY           -157.969233177480 Eh   |
          | TOTAL FREE ENERGY        -158.094590111634 Eh   |
          | GRADIENT NORM               0.000039065166 Eh/α |
          | HOMO-LUMO GAP               1.961910997065 eV   |
           -------------------------------------------------

 * finished run on 2025/07/17 at 22:46:11.746
