   * xtb version 6.7.1 (edcfbbe) compiled by 'albert@albert-system' on 2024-07-22

   ID    Z sym.   atoms
    1    6 C      1-6, 8-22, 24-29, 33-38, 42-45, 47-60
    2    7 N      7, 23, 46
    3   16 S      30, 39
    4    8 O      31, 32, 40, 41
    5    1 H      61-95

          program call               : xtb data2507/toluene/2Cz-DMAC-TTR/2Cz-DMAC-TTR_toluene_S0_finalOpt.xtbopt.xyz --gfn 2 --uhf 2 --gbsa toluene --ohess vtight --parallel 40 --molden --ceasefiles --namespace data2507/toluene/2Cz-DMAC-TTR/2Cz-DMAC-TTR_toluene_T1_preOpt
      * Solvation model:               GBSA
        Solvent                        toluene
        Solvent mass                       9.2140E+01 g/mol
          :  Hamiltonian                  GFN2-xTB          :
 * total energy  :  -158.6376417 Eh     change       -0.9969767E-09 Eh
 * total energy  :  -158.6410266 Eh     change       -0.3384942E-02 Eh
 * total energy  :  -158.6424142 Eh     change       -0.1387549E-02 Eh
 * total energy  :  -158.6427170 Eh     change       -0.3027847E-03 Eh
 * total energy  :  -158.6430396 Eh     change       -0.3225833E-03 Eh
 * total energy  :  -158.6432626 Eh     change       -0.2230285E-03 Eh
 * total energy  :  -158.6434998 Eh     change       -0.2371943E-03 Eh
 * total energy  :  -158.6437222 Eh     change       -0.2223820E-03 Eh
 * total energy  :  -158.6439100 Eh     change       -0.1878183E-03 Eh
 * total energy  :  -158.6440609 Eh     change       -0.1508858E-03 Eh
 * total energy  :  -158.6445308 Eh     change       -0.1554875E-05 Eh
 * total energy  :  -158.6445324 Eh     change       -0.1579230E-05 Eh
 * total energy  :  -158.6445333 Eh     change       -0.8672440E-06 Eh
 * total energy  :  -158.6445337 Eh     change       -0.4610404E-06 Eh
 * total energy  :  -158.6445340 Eh     change       -0.2830659E-06 Eh
 * total energy  :  -158.6445342 Eh     change       -0.1854585E-06 Eh
 * total energy  :  -158.6445342 Eh     change       -0.1551328E-07 Eh
 * total energy  :  -158.6445344 Eh     change       -0.1532090E-06 Eh
 * total energy  :  -158.6445344 Eh     change       -0.6771648E-07 Eh
   *** GEOMETRY OPTIMIZATION CONVERGED AFTER 45 ITERATIONS ***

 final structure:
================
95
 xtb: 6.7.1 (edcfbbe)
C            0.51290855023819        0.01194281818961       -2.50124244841775
C            1.33252642193462        0.82907236886520       -1.47900423934201
C            2.24046254069579        1.78722965308101       -2.25076844827005
C            0.37624804084503        1.55099352214824       -0.54988562166098
C            0.09567525604321        2.89824810094677       -0.62602974098249
C           -0.82533497993809        3.49558947817504        0.24095041788023
N           -1.12213015361532        4.84840671524622        0.12642065539689
C           -2.39319818795707        5.39497623357887        0.16151923782773
C           -3.62716204493271        4.76080392091306        0.22848684239282
C           -4.76070326719406        5.55420078914198        0.20924745880219
C           -4.67610374574691        6.94047121295160        0.11170572329489
C           -3.44935113721571        7.57505154970779        0.01087137550796
C           -2.30015542481226        6.80053366387740        0.03002555175454
C           -0.89730376660259        7.10979774478351       -0.08068833058559
C           -0.19212894559358        8.29696666190864       -0.20312117941869
C            1.19049941276643        8.24293591192628       -0.25603873530264
C            1.86417957302185        7.02821887397464       -0.16414877692961
C            1.18066172961397        5.83180584304868       -0.03790972690185
C           -0.20723606198891        5.87647650641243       -0.02023746012564
C           -1.43518670820127        2.72202251381917        1.23540030360636
C           -1.16803454172193        1.37822006650984        1.32097306509432
C           -0.29561878330102        0.76841026084317        0.41118718894281
N            0.01264828820613       -0.58746609803919        0.49305989598821
C           -0.95052123841747       -1.57294457024447        0.65507739277339
C           -0.59552950654086       -2.96217329808618        0.64740304161573
C           -1.55456516726523       -3.92540814472173        0.81674060210698
C           -2.89087130780476       -3.58718982762000        1.02669492774488
C           -3.26305352089236       -2.22733066220658        0.91260278781107
C           -2.30938502005174       -1.25635865303661        0.68804095719939
S           -4.97387070376524       -1.81810067180068        0.79202244007933
O           -5.65805042415252       -1.99702031796421        2.05635187562219
O           -5.07135012591151       -0.47038576827726        0.24388426584290
C           -5.53482682171092       -2.96763762704133       -0.42584611657638
C           -6.18407894331554       -2.53416681970333       -1.57430985155797
C           -6.50452600564657       -3.43477750224937       -2.56870877127056
C           -6.13695454541373       -4.78171339676620       -2.44015167537018
C           -5.45375870273973       -5.20738003454334       -1.31996489146574
C           -5.16647082045735       -4.31306875472756       -0.29698834056767
S           -4.16168664891651       -4.79738878081249        1.07653085632530
O           -3.57317957775450       -6.09694049179655        0.78404377641153
O           -4.90636823502734       -4.73605436706133        2.31898000471007
C            1.37919812301118       -0.85097866209360        0.36805859033290
C            2.04236432570272       -1.70608349829542        1.25408370409419
C            3.40064686565860       -1.90094267765468        1.14792330300594
C            4.12399087620724       -1.23770681083581        0.15430622403739
N            5.49742381608984       -1.43352182885853        0.02306348239042
C            6.16670711329860       -1.67404526112010       -1.16379959920015
C            5.66091159323021       -1.84690129512596       -2.44562526897408
C            6.55855445985838       -2.11177897786140       -3.46405467844465
C            7.92540723953724       -2.21526738635078       -3.21869988880206
C            8.43162946268891       -2.07863375596569       -1.93769769110948
C            7.54980516435797       -1.81116755298703       -0.90163303193144
C            7.71567514432149       -1.63889327384829        0.51842990206061
C            8.82235854507241       -1.64157376204170        1.35364244238962
C            8.63259293169017       -1.40506520230935        2.70410253801267
C            7.36291921364530       -1.14782420160803        3.21469035727808
C            6.24495526711144       -1.14084563977558        2.40021188161255
C            6.42451698164251       -1.41081085632555        1.04979627299137
C            3.46642580383460       -0.34569534296247       -0.70035470059031
C            2.10868660539106       -0.13122005323197       -0.59759599185042
H           -0.16143686756718       -0.68720823800097       -2.01404835843497
H            1.18366732822689       -0.55037973358002       -3.14612007764292
H           -0.07991993526582        0.68457922442381       -3.11629627621757
H            1.64362465176572        2.44538263516993       -2.87546817288910
H            2.89651586190110        1.22857313010337       -2.91213154079681
H            2.84306564271050        2.38611001083282       -1.57283417468160
H            0.54663992563453        3.50781576598083       -1.39032597954869
H           -3.71234045963259        3.68603653402710        0.27868495691922
H           -5.73072176235641        5.08320373746970        0.26560086731090
H           -5.58367514944871        7.52524821562555        0.10223677409727
H           -3.38806697713547        8.64798614501706       -0.08698173948561
H           -0.71208385413687        9.24136057347794       -0.25004844658617
H            1.75727837134714        9.15651672573189       -0.35517333834896
H            2.94358806236750        7.01947513841029       -0.18478299712210
H            1.71456511271037        4.90074479742488        0.06498855012798
H           -2.08192382735604        3.19203373163161        1.95928979347708
H           -1.59305599676781        0.79513055782082        2.12273012572616
H            0.41927549524636       -3.26068694480480        0.45201494589766
H           -1.30599094941201       -4.97513262486664        0.79244158896788
H           -2.67877467294716       -0.25917778240582        0.51407287556304
H           -6.42440324679960       -1.48476809207740       -1.65116879336772
H           -7.03156827160848       -3.10321705105927       -3.44941717079273
H           -6.38269598147338       -5.48301255196980       -3.22194135976672
H           -5.12955733716988       -6.22984540334999       -1.19948695848203
H            1.48980656499664       -2.18704997759908        2.04527021485590
H            3.90217460616798       -2.57865800246207        1.82030839514945
H            4.60195053728771       -1.79561691016378       -2.64365790799397
H            6.19076347750050       -2.24650031042549       -4.47026290834869
H            8.59607485557684       -2.42003586088600       -4.03976269150577
H            9.48843387264238       -2.18368562853924       -1.74585867874479
H            9.80991155739531       -1.81874549575121        0.95603639454150
H            9.48076806984607       -1.40707784371275        3.37229423214360
H            7.24799952029708       -0.94568095017179        4.26917494303206
H            5.27062669870601       -0.91792289113365        2.80583668318659
H            4.05323701654493        0.19422633974678       -1.42382503747435

          :  Hamiltonian                  GFN2-xTB          :
         :: gradient norm              0.000063276412 Eh/a0 ::
         :: HOMO-LUMO gap              0.409346002671 eV    ::
         :: SCC energy              -161.257330994487 Eh    ::
         :: -> dispersion             -0.147268001503 Eh    ::
         :: -> Gsolv                  -0.099781669792 Eh    ::
         :: repulsion energy           2.612796503437 Eh    ::

    * Orbital Energies and Occupations

         #    Occupation            Energy/Eh            Energy/eV
      -------------------------------------------------------------
         1        2.0000           -0.7660296             -20.8447
       ...           ...                  ...                  ...
       134        2.0000           -0.4210021             -11.4560
       135        2.0000           -0.4191242             -11.4049
       136        2.0000           -0.4182247             -11.3805
       137        2.0000           -0.4173138             -11.3557
       138        2.0000           -0.4168355             -11.3427
       139        2.0000           -0.4130576             -11.2399
       140        2.0000           -0.3930869             -10.6964
       141        2.0000           -0.3922383             -10.6733
       142        2.0000           -0.3911719             -10.6443
       143        2.0000           -0.3866276             -10.5207
       144        1.9841           -0.3769188             -10.2565
       145        1.0159           -0.3690757             -10.0431
       146        0.9996           -0.2758100              -7.5052 (HOMO)
       147        0.0003           -0.2607668              -7.0958 (LUMO)
       148        0.0001           -0.2593745              -7.0579
       149        0.0000           -0.2544142              -6.9230
       150                         -0.2514654              -6.8427
       151                         -0.2503376              -6.8120
       152                         -0.2473526              -6.7308
       153                         -0.2431371              -6.6161
       154                         -0.2400215              -6.5313
       155                         -0.2360843              -6.4242
       156                         -0.2349831              -6.3942
       157                         -0.2318205              -6.3082
       ...                                ...                  ...
       285                          1.2025720              32.7237
      -------------------------------------------------------------
                  HL-Gap            0.0150432 Eh            0.4093 eV

     #   Z          covCN         q      C6AA      α(0)
     1   6 C        3.762    -0.108    22.602     6.777
     2   6 C        3.911     0.026    20.077     6.369
     3   6 C        3.759    -0.118    22.813     6.809
     4   6 C        2.986     0.004    27.924     8.668
     5   6 C        2.922    -0.048    29.200     8.862
     6   6 C        2.912     0.059    26.669     8.468
     7   7 N        2.801    -0.004    21.340     6.861
     8   6 C        3.068     0.045    26.932     8.510
     9   6 C        2.909    -0.042    29.045     8.837
    10   6 C        2.923    -0.030    28.741     8.792
    11   6 C        2.920    -0.032    28.797     8.800
    12   6 C        2.912    -0.029    28.717     8.787
    13   6 C        3.064    -0.010    28.198     8.708
    14   6 C        3.064    -0.009    28.183     8.705
    15   6 C        2.912    -0.028    28.704     8.785
    16   6 C        2.920    -0.032    28.805     8.801
    17   6 C        2.923    -0.030    28.755     8.794
    18   6 C        2.910    -0.044    29.088     8.844
    19   6 C        3.066     0.044    26.944     8.512
    20   6 C        2.919    -0.040    28.997     8.831
    21   6 C        2.917    -0.038    28.953     8.824
    22   6 C        2.954     0.047    26.949     8.515
    23   7 N        2.753     0.011    21.071     6.818
    24   6 C        2.910     0.045    26.992     8.519
    25   6 C        2.916    -0.061    29.506     8.907
    26   6 C        2.946    -0.025    28.626     8.775
    27   6 C        3.002    -0.112    30.825     9.107
    28   6 C        3.009    -0.106    30.647     9.081
    29   6 C        2.965    -0.045    29.115     8.851
    30  16 S        3.908     0.906   109.405    17.604
    31   8 O        0.860    -0.593    25.945     6.829
    32   8 O        0.860    -0.578    25.580     6.781
    33   6 C        3.008    -0.100    30.495     9.058
    34   6 C        2.953    -0.026    28.643     8.778
    35   6 C        2.918    -0.035    28.867     8.811
    36   6 C        2.918    -0.034    28.859     8.809
    37   6 C        2.953    -0.025    28.635     8.777
    38   6 C        3.011    -0.099    30.470     9.055
    39  16 S        3.897     0.900   109.564    17.617
    40   8 O        0.860    -0.580    25.633     6.788
    41   8 O        0.860    -0.595    25.998     6.836
    42   6 C        2.952     0.045    26.999     8.523
    43   6 C        2.917    -0.040    29.005     8.832
    44   6 C        2.919    -0.042    29.041     8.837
    45   6 C        2.911     0.058    26.694     8.472
    46   7 N        2.801    -0.008    21.417     6.873
    47   6 C        3.069     0.044    26.936     8.510
    48   6 C        2.910    -0.045    29.110     8.847
    49   6 C        2.923    -0.031    28.769     8.796
    50   6 C        2.920    -0.033    28.834     8.806
    51   6 C        2.912    -0.029    28.726     8.789
    52   6 C        3.064    -0.011    28.216     8.711
    53   6 C        3.065    -0.011    28.219     8.711
    54   6 C        2.912    -0.029    28.731     8.789
    55   6 C        2.920    -0.034    28.836     8.806
    56   6 C        2.923    -0.031    28.770     8.796
    57   6 C        2.910    -0.045    29.107     8.847
    58   6 C        3.068     0.044    26.935     8.510
    59   6 C        2.923    -0.048    29.184     8.859
    60   6 C        2.986     0.004    27.935     8.670
    61   1 H        0.925     0.037     2.490     2.467
    62   1 H        0.925     0.055     2.252     2.347
    63   1 H        0.925     0.053     2.279     2.361
    64   1 H        0.925     0.057     2.240     2.341
    65   1 H        0.925     0.058     2.225     2.333
    66   1 H        0.925     0.052     2.296     2.369
    67   1 H        0.926     0.078     2.001     2.212
    68   1 H        0.926     0.041     2.437     2.441
    69   1 H        0.926     0.038     2.470     2.458
    70   1 H        0.926     0.041     2.438     2.442
    71   1 H        0.926     0.045     2.378     2.411
    72   1 H        0.926     0.043     2.406     2.426
    73   1 H        0.926     0.042     2.427     2.436
    74   1 H        0.926     0.045     2.381     2.413
    75   1 H        0.926     0.050     2.324     2.384
    76   1 H        0.926     0.059     2.213     2.326
    77   1 H        0.926     0.054     2.265     2.353
    78   1 H        0.926     0.073     2.051     2.239
    79   1 H        0.926     0.060     2.204     2.321
    80   1 H        0.926     0.068     2.103     2.268
    81   1 H        0.926     0.057     2.229     2.335
    82   1 H        0.926     0.063     2.163     2.300
    83   1 H        0.926     0.062     2.173     2.305
    84   1 H        0.926     0.055     2.256     2.349
    85   1 H        0.926     0.059     2.206     2.323
    86   1 H        0.926     0.060     2.195     2.317
    87   1 H        0.926     0.046     2.376     2.410
    88   1 H        0.926     0.041     2.431     2.438
    89   1 H        0.926     0.039     2.468     2.457
    90   1 H        0.926     0.041     2.436     2.441
    91   1 H        0.926     0.041     2.430     2.438
    92   1 H        0.926     0.038     2.472     2.459
    93   1 H        0.926     0.040     2.451     2.448
    94   1 H        0.926     0.043     2.404     2.425
    95   1 H        0.926     0.074     2.039     2.233

molecular dipole:
                 x           y           z       tot (Debye)
 q only:        9.692       6.726      -3.999
   full:        9.072       6.326      -3.531      29.510

 projected vibrational frequencies (cm⁻¹)
eigval :       -0.00    -0.00    -0.00    -0.00    -0.00     0.00
eigval :        9.13    14.29    14.79    16.45    20.38    23.55
eigval :       33.06    42.45    46.21    53.54    64.41    83.87
eigval :       87.71    96.58   101.89   102.79   111.18   115.91
eigval :      130.30   135.29   136.20   139.50   149.14   149.99
eigval :      167.44   172.24   177.18   189.09   190.43   200.27
eigval :      209.30   221.16   232.77   247.02   256.46   263.92
eigval :      268.25   270.35   277.16   279.76   287.60   293.41
eigval :      301.98   316.89   326.48   330.27   335.54   344.01
eigval :      356.93   367.37   371.46   382.15   386.41   389.73
eigval :      396.29   403.06   409.73   414.94   418.67   421.59
eigval :      429.11   435.50   439.08   439.69   444.86   452.65
eigval :      476.99   487.10   496.50   505.37   507.93   513.00
eigval :      514.23   514.92   520.50   525.63   535.05   536.66
eigval :      537.54   543.51   548.33   564.55   576.52   585.51
eigval :      589.28   591.90   606.82   615.27   627.39   630.52
eigval :      633.39   640.83   648.39   671.45   672.83   675.19
eigval :      677.87   683.60   697.88   707.21   708.05   712.84
eigval :      716.77   740.97   753.50   754.14   758.06   767.69
eigval :      768.79   769.80   776.72   778.42   794.44   829.84
eigval :      833.66   848.23   859.23   866.74   866.83   869.52
eigval :      873.74   879.47   885.46   888.08   895.48   896.53
eigval :      900.08   901.80   902.09   905.40   905.99   907.82
eigval :      910.56   913.28   920.77   920.95   922.68   926.63
eigval :      929.65   939.67   943.73   947.60   965.12   978.77
eigval :      985.17   996.19  1004.37  1008.68  1011.01  1012.02
eigval :     1051.31  1061.08  1061.99  1068.08  1068.35  1068.92
eigval :     1070.42  1072.12  1080.29  1082.76  1113.74  1117.75
eigval :     1124.00  1140.71  1142.56  1144.84  1147.45  1151.79
eigval :     1158.51  1164.03  1167.17  1171.53  1172.35  1172.48
eigval :     1174.39  1176.38  1178.41  1181.57  1184.29  1197.49
eigval :     1205.57  1209.94  1217.67  1225.71  1227.03  1229.05
eigval :     1229.67  1243.89  1249.71  1265.11  1265.71  1278.61
eigval :     1280.53  1289.10  1291.00  1307.72  1317.37  1327.95
eigval :     1335.21  1337.68  1340.37  1343.38  1345.59  1353.48
eigval :     1357.32  1357.77  1361.54  1383.58  1393.32  1395.30
eigval :     1405.83  1406.91  1409.41  1410.64  1412.12  1414.12
eigval :     1421.26  1435.71  1439.66  1443.33  1458.96  1460.86
eigval :     1466.85  1477.70  1479.33  1482.69  1485.00  1486.95
eigval :     1493.93  1495.37  1497.04  1502.73  1516.15  1530.90
eigval :     1534.26  1565.81  1566.15  1570.52  1576.91  1577.02
eigval :     1578.88  1580.40  1596.27  1599.34  3037.68  3038.60
eigval :     3042.28  3043.59  3051.80  3058.68  3080.53  3081.16
eigval :     3081.29  3081.76  3086.97  3087.14  3087.98  3088.98
eigval :     3089.14  3091.67  3094.34  3095.36  3096.66  3097.24
eigval :     3097.50  3097.78  3097.81  3099.94  3101.45  3102.40
eigval :     3103.05  3104.68  3105.03  3109.83  3112.63  3113.28
eigval :     3129.13  3129.45  3130.54

   temp. (K)  partition function   enthalpy   heat capacity  entropy
                                   cal/mol     cal/K/mol   cal/K/mol   J/K/mol
 298.15  VIB  0.295E+22            28829.957    184.298    176.401
         ROT  0.203E+09              888.752      2.981     40.997
         INT  0.599E+30            29718.709    187.278    217.398
         TR   0.226E+29             1481.254      4.968     45.962
         TOT                       31199.9628   192.2466   263.3598  1101.8973

       T/K    H(0)-H(T)+PV         H(T)/Eh          T*S/Eh         G(T)/Eh
   ------------------------------------------------------------------------
    298.15    0.497203E-01    0.757703E+00    0.125131E+00    0.632572E+00
   ------------------------------------------------------------------------

         :::::::::::::::::::::::::::::::::::::::::::::::::::::
         ::                  THERMODYNAMIC                  ::
         :::::::::::::::::::::::::::::::::::::::::::::::::::::
         :: total free energy        -158.011962250542 Eh   ::
         ::.................................................::
         :: total energy             -158.644534487275 Eh   ::
         :: zero point energy           0.707982656666 Eh   ::
         :: G(RRHO) w/o ZPVE           -0.075410419932 Eh   ::
         :: G(RRHO) contrib.            0.632572236734 Eh   ::
         :::::::::::::::::::::::::::::::::::::::::::::::::::::

           -------------------------------------------------
          | TOTAL ENERGY             -158.644534487275 Eh   |
          | TOTAL ENTHALPY           -157.886831525073 Eh   |
          | TOTAL FREE ENERGY        -158.011962250542 Eh   |
          | GRADIENT NORM               0.000063697216 Eh/α |
          | HOMO-LUMO GAP               0.409345758346 eV   |
           -------------------------------------------------

 * finished run on 2025/07/17 at 22:46:25.134
