   * xtb version 6.7.1 (edcfbbe) compiled by 'albert@albert-system' on 2024-07-22

   ID    Z sym.   atoms
    1    6 C      1-6, 8-22, 24-29, 33-38, 42-45, 47-60
    2    7 N      7, 23, 46
    3   16 S      30, 39
    4    8 O      31, 32, 40, 41
    5    1 H      61-95

          program call               : xtb data2507/toluene/2Cz-DMAC-TTR/2Cz-DMAC-TTR.xyz --gfn 2 --gbsa toluene --ohess vtight --parallel 40 --molden --ceasefiles --namespace data2507/toluene/2Cz-DMAC-TTR/2Cz-DMAC-TTR_toluene_S0_preOpt
      * Solvation model:               GBSA
        Solvent                        toluene
        Solvent mass                       9.2140E+01 g/mol
          :  Hamiltonian                  GFN2-xTB          :
 * total energy  :  -158.6917368 Eh     change       -0.2925560E-08 Eh
 * total energy  :  -158.7123028 Eh     change       -0.2056608E-01 Eh
 * total energy  :  -158.7193855 Eh     change       -0.7082692E-02 Eh
 * total energy  :  -158.7214614 Eh     change       -0.2075856E-02 Eh
 * total energy  :  -158.7229361 Eh     change       -0.1474672E-02 Eh
 * total energy  :  -158.7235793 Eh     change       -0.6432184E-03 Eh
 * total energy  :  -158.7238828 Eh     change       -0.3034956E-03 Eh
 * total energy  :  -158.7240804 Eh     change       -0.1976712E-03 Eh
 * total energy  :  -158.7242441 Eh     change       -0.1636414E-03 Eh
 * total energy  :  -158.7244193 Eh     change       -0.1752003E-03 Eh
 * total energy  :  -158.7263191 Eh     change       -0.7515907E-06 Eh
 * total energy  :  -158.7263197 Eh     change       -0.5772326E-06 Eh
 * total energy  :  -158.7263201 Eh     change       -0.4069991E-06 Eh
 * total energy  :  -158.7263205 Eh     change       -0.3700786E-06 Eh
 * total energy  :  -158.7263208 Eh     change       -0.3839023E-06 Eh
 * total energy  :  -158.7263212 Eh     change       -0.3513154E-06 Eh
 * total energy  :  -158.7263215 Eh     change       -0.2683081E-06 Eh
 * total energy  :  -158.7263216 Eh     change       -0.1799744E-06 Eh
 * total energy  :  -158.7263217 Eh     change       -0.8091263E-07 Eh
   *** GEOMETRY OPTIMIZATION CONVERGED AFTER 111 ITERATIONS ***

 final structure:
================
95
 xtb: 6.7.1 (edcfbbe)
C           -1.18701350561988        2.98266780397191        1.06189527057687
C           -0.74526633299596        1.97556931459631       -0.01645407638916
C           -0.84700664238648        2.61279297005129       -1.41490845909925
C            0.69871694636270        1.59067792736563        0.23705235487788
C            1.67078779063838        2.57931253346694        0.19522198281309
C            3.01847349347693        2.29906222209640        0.37621063976453
N            3.96424540128211        3.33574243633281        0.35048071677310
C            3.90612793219146        4.49429993728978        1.09799402333725
C            2.97137299403408        4.88898586817309        2.04543710918155
C            3.16200376813943        6.10506418003208        2.67307370876156
C            4.25907685339102        6.91250761174546        2.37747077963732
C            5.20389523147657        6.51556064919996        1.45206732087827
C            5.03375607378102        5.29701782376722        0.80682474881926
C            5.80289849344547        4.57883506583184       -0.17063275902362
C            6.98498273430693        4.85276844616802       -0.84709992028941
C            7.45122581116549        3.93246515864237       -1.76481553730748
C            6.74729525192608        2.75722418932301       -2.02170537469694
C            5.57015552115895        2.46167228847667       -1.36122673743920
C            5.10737075332039        3.37265924922974       -0.42151297576999
C            3.40982319943539        0.97933942645566        0.56739262712956
C            2.45828169805541       -0.01652509147413        0.60323273635379
C            1.09558632403314        0.27130148387188        0.47856213718577
N            0.15640230972664       -0.75825665739257        0.54560794306247
C            0.58729501733045       -2.06781411555970        0.82037703823381
C            1.18224664828089       -2.37746954682551        2.04657787450470
C            1.60007574267268       -3.66840105026591        2.31832823846373
C            1.41205425891696       -4.66460423004349        1.37401463864635
C            0.82820929308393       -4.36376562447760        0.15740881414582
C            0.42501792311362       -3.07733815830070       -0.13368090566551
S            0.60858080348105       -5.66346552605076       -1.06157454891517
O           -0.46793317308730       -6.52486192029573       -0.65049852373210
O            0.47172690514803       -5.04446164156663       -2.35837405095362
C            2.16180645950045       -6.55789628523581       -1.02168373331153
C            2.78505869727987       -6.92315495210123       -2.20177152845480
C            3.99140186759973       -7.60727809749797       -2.15088716739434
C            4.57076830648702       -7.91010967130788       -0.92749813185023
C            3.94771551810054       -7.53026320279189        0.25295413583002
C            2.73922058674396       -6.85884814091723        0.19717641495287
S            1.91798399334628       -6.35032470285254        1.70832700952266
O            2.89356969789547       -6.32727050388808        2.77208027310615
O            0.75373851719454       -7.16686573462328        1.92861384743807
C           -1.20069827810757       -0.51838492836650        0.32853570137840
C           -2.12567627107412       -1.55949500277099        0.45644116063203
C           -3.47102707795300       -1.35737377025657        0.23801053371499
C           -3.93278576705617       -0.08801540766091       -0.08867063401739
N           -5.29680765800653        0.14742264126014       -0.32064302313833
C           -6.33542607363814       -0.21126824550264        0.51395375833138
C           -6.29842107856045       -0.83056111480944        1.75575153968376
C           -7.49918934743596       -1.05535562657797        2.40126309619166
C           -8.71316148188957       -0.66924307637977        1.83559327972590
C           -8.75506141033921       -0.03270668373955        0.61101261538843
C           -7.56074970238661        0.20534518504889       -0.05757900881272
C           -7.23364806765523        0.84375087173876       -1.30192509231857
C           -7.99287063593615        1.43677750808002       -2.30301389656151
C           -7.34484506692701        1.95422963328601       -3.40707154737302
C           -5.95879142467135        1.87134424805666       -3.52908246170594
C           -5.18223691126564        1.28599463048786       -2.54758965416821
C           -5.82565491123356        0.78584700438657       -1.42379541715954
C           -3.02227385357958        0.95734280090331       -0.16529112709222
C           -1.66341981508976        0.77022831079084        0.04008765362226
H           -1.10746311388991        2.53048929375215        2.04873195031858
H           -2.21731202508759        3.28922224314514        0.90812111321311
H           -0.56347852554528        3.87163206848767        1.03671914667326
H           -0.52749094789806        1.90031990291782       -2.17325467774445
H           -0.21816211348865        3.49514196347685       -1.48673586590335
H           -1.86914589284607        2.91054957966323       -1.62935523807303
H            1.38797020599490        3.60243023024155        0.00528714245047
H            2.12892171585676        4.26202955808238        2.29479138069724
H            2.44718956354883        6.43649941744832        3.41243156295753
H            4.37216937773421        7.85772501824858        2.88824610790556
H            6.06146568682300        7.13489632672386        1.23443333271787
H            7.52320170061583        5.77004571030168       -0.65916525392464
H            8.36939460496490        4.12588547910246       -2.30023599575666
H            7.12963135160451        2.06345628454138       -2.75652240996188
H            5.02473450249574        1.55589181378301       -1.57907700631540
H            4.45303790836642        0.73549303661606        0.69407927489010
H            2.78389463636040       -1.03617045823056        0.73035663286927
H            1.31095223193410       -1.59973483159338        2.78402443501015
H            2.06787829360927       -3.92751308002668        3.25480840424519
H           -0.00629340173866       -2.87263935389720       -1.10153967203807
H            2.31538331541145       -6.65674387888357       -3.13549991820890
H            4.47861227902876       -7.89892758660737       -3.06821637643622
H            5.51061053665661       -8.43837895074859       -0.88894035120413
H            4.37809983366220       -7.73505265219169        1.22051616228459
H           -1.79496875300835       -2.54881912505432        0.73001275813396
H           -4.16014255510158       -2.18391429791239        0.31609571443827
H           -5.36242593873198       -1.12092875800616        2.20861862234196
H           -7.49711024615496       -1.53889915227016        3.36754938744514
H           -9.63100129096926       -0.86584491094463        2.37034043018687
H           -9.69506214066694        0.27883305237522        0.18013732174566
H           -9.06820974542479        1.48719496934274       -2.21698224314935
H           -7.91733042339403        2.42163910084260       -4.19499942988836
H           -5.48219517524479        2.27071482449179       -4.41267150695778
H           -4.11149963146666        1.20753207161056       -2.65914141219883
H           -3.40284415462445        1.94351038048087       -0.37900695279591

          :  Hamiltonian                  GFN2-xTB          :
         :: gradient norm              0.000072709472 Eh/a0 ::
         :: HOMO-LUMO gap              1.432594464870 eV    ::
         :: SCC energy              -161.359990041804 Eh    ::
         :: -> dispersion             -0.146591682987 Eh    ::
         :: -> Gsolv                  -0.075996132973 Eh    ::
         :: repulsion energy           2.633668324142 Eh    ::

    * Orbital Energies and Occupations

         #    Occupation            Energy/Eh            Energy/eV
      -------------------------------------------------------------
         1        2.0000           -0.8010812             -21.7985
       ...           ...                  ...                  ...
       133        2.0000           -0.4177505             -11.3676
       134        2.0000           -0.4170318             -11.3480
       135        2.0000           -0.4167337             -11.3399
       136        2.0000           -0.4152731             -11.3002
       137        2.0000           -0.4128604             -11.2345
       138        2.0000           -0.4072349             -11.0814
       139        2.0000           -0.4041305             -10.9970
       140        2.0000           -0.4039923             -10.9932
       141        2.0000           -0.3774760             -10.2716
       142        2.0000           -0.3774636             -10.2713
       143        2.0000           -0.3749749             -10.2036
       144        2.0000           -0.3624345              -9.8623
       145        2.0000           -0.3527951              -9.6000 (HOMO)
       146                         -0.3001482              -8.1674 (LUMO)
       147                         -0.2823720              -7.6837
       148                         -0.2803955              -7.6300
       149                         -0.2734820              -7.4418
       150                         -0.2470619              -6.7229
       151                         -0.2440821              -6.6418
       152                         -0.2393934              -6.5142
       153                         -0.2347733              -6.3885
       154                         -0.2340283              -6.3682
       155                         -0.2209133              -6.0114
       156                         -0.2209080              -6.0112
       ...                                ...                  ...
       285                          1.2153487              33.0713
      -------------------------------------------------------------
                  HL-Gap            0.0526469 Eh            1.4326 eV

     #   Z          covCN         q      C6AA      α(0)
     1   6 C        3.761    -0.108    22.614     6.779
     2   6 C        3.910     0.024    20.114     6.375
     3   6 C        3.761    -0.108    22.615     6.779
     4   6 C        2.979    -0.005    28.136     8.701
     5   6 C        2.931    -0.048    29.187     8.860
     6   6 C        2.910     0.054    26.794     8.488
     7   7 N        2.802    -0.043    22.066     6.977
     8   6 C        3.077     0.046    26.883     8.501
     9   6 C        2.909    -0.053    29.318     8.879
    10   6 C        2.924    -0.036    28.884     8.814
    11   6 C        2.919    -0.043    29.075     8.842
    12   6 C        2.912    -0.035    28.874     8.811
    13   6 C        3.067    -0.019    28.415     8.741
    14   6 C        3.068    -0.019    28.414     8.741
    15   6 C        2.912    -0.035    28.876     8.812
    16   6 C        2.919    -0.043    29.075     8.842
    17   6 C        2.924    -0.036    28.886     8.814
    18   6 C        2.909    -0.053    29.311     8.877
    19   6 C        3.076     0.046    26.882     8.501
    20   6 C        2.921    -0.044    29.105     8.847
    21   6 C        2.924    -0.058    29.449     8.899
    22   6 C        2.925     0.049    26.892     8.504
    23   7 N        2.752    -0.044    22.094     6.981
    24   6 C        2.926     0.083    26.156     8.387
    25   6 C        2.922    -0.029    28.727     8.789
    26   6 C        2.950    -0.015    28.376     8.737
    27   6 C        3.004    -0.088    30.203     9.015
    28   6 C        3.006    -0.083    30.054     8.993
    29   6 C        2.958    -0.031    28.769     8.798
    30  16 S        3.861     0.984   107.118    17.419
    31   8 O        0.860    -0.567    25.327     6.747
    32   8 O        0.860    -0.551    24.954     6.698
    33   6 C        3.006    -0.082    30.035     8.990
    34   6 C        2.953    -0.014    28.366     8.736
    35   6 C        2.920    -0.011    28.288     8.722
    36   6 C        2.920    -0.011    28.287     8.722
    37   6 C        2.953    -0.014    28.365     8.735
    38   6 C        3.006    -0.082    30.025     8.989
    39  16 S        3.858     0.981   107.202    17.426
    40   8 O        0.860    -0.550    24.930     6.694
    41   8 O        0.860    -0.568    25.350     6.750
    42   6 C        2.925     0.050    26.885     8.503
    43   6 C        2.923    -0.057    29.426     8.896
    44   6 C        2.921    -0.044    29.099     8.846
    45   6 C        2.910     0.054    26.792     8.487
    46   7 N        2.802    -0.044    22.089     6.980
    47   6 C        3.076     0.046    26.878     8.500
    48   6 C        2.909    -0.053    29.307     8.877
    49   6 C        2.924    -0.036    28.885     8.814
    50   6 C        2.919    -0.043    29.076     8.842
    51   6 C        2.912    -0.035    28.878     8.812
    52   6 C        3.068    -0.019    28.416     8.741
    53   6 C        3.067    -0.019    28.415     8.741
    54   6 C        2.912    -0.035    28.874     8.811
    55   6 C        2.920    -0.043    29.074     8.842
    56   6 C        2.924    -0.036    28.884     8.813
    57   6 C        2.909    -0.053    29.318     8.879
    58   6 C        3.077     0.046    26.880     8.500
    59   6 C        2.931    -0.048    29.198     8.862
    60   6 C        2.979    -0.005    28.138     8.701
    61   1 H        0.925     0.037     2.494     2.469
    62   1 H        0.925     0.048     2.347     2.396
    63   1 H        0.925     0.049     2.328     2.386
    64   1 H        0.925     0.036     2.507     2.476
    65   1 H        0.925     0.049     2.333     2.389
    66   1 H        0.925     0.048     2.341     2.393
    67   1 H        0.926     0.053     2.280     2.361
    68   1 H        0.926     0.033     2.545     2.495
    69   1 H        0.926     0.030     2.592     2.517
    70   1 H        0.926     0.026     2.645     2.543
    71   1 H        0.926     0.028     2.613     2.528
    72   1 H        0.926     0.028     2.608     2.525
    73   1 H        0.926     0.026     2.642     2.542
    74   1 H        0.926     0.029     2.600     2.522
    75   1 H        0.926     0.031     2.578     2.511
    76   1 H        0.926     0.047     2.353     2.399
    77   1 H        0.926     0.039     2.463     2.454
    78   1 H        0.926     0.096     1.818     2.108
    79   1 H        0.926     0.091     1.868     2.137
    80   1 H        0.926     0.088     1.896     2.153
    81   1 H        0.926     0.086     1.918     2.166
    82   1 H        0.926     0.095     1.830     2.116
    83   1 H        0.926     0.095     1.829     2.115
    84   1 H        0.926     0.086     1.913     2.163
    85   1 H        0.926     0.031     2.571     2.507
    86   1 H        0.926     0.042     2.419     2.432
    87   1 H        0.926     0.029     2.601     2.522
    88   1 H        0.926     0.028     2.608     2.525
    89   1 H        0.926     0.027     2.635     2.538
    90   1 H        0.926     0.029     2.595     2.519
    91   1 H        0.926     0.029     2.603     2.523
    92   1 H        0.926     0.027     2.630     2.536
    93   1 H        0.926     0.030     2.580     2.512
    94   1 H        0.926     0.032     2.552     2.498
    95   1 H        0.926     0.054     2.268     2.355

molecular dipole:
                 x           y           z       tot (Debye)
 q only:        2.897       1.812      -0.792
   full:        2.679       1.385      -0.693       7.866

 projected vibrational frequencies (cm⁻¹)
eigval :       -0.00    -0.00    -0.00     0.00     0.00     0.00
eigval :        7.43    12.36    13.57    17.52    19.50    22.81
eigval :       34.20    36.39    40.20    47.23    55.82    85.82
eigval :       86.64    90.63   102.52   104.47   108.28   113.42
eigval :      114.08   120.99   123.58   130.62   134.27   145.06
eigval :      148.08   167.76   169.36   178.78   182.60   189.01
eigval :      199.14   208.75   209.35   225.97   241.19   254.48
eigval :      264.62   271.26   272.25   277.58   282.87   293.75
eigval :      305.24   311.94   320.71   329.54   332.53   337.38
eigval :      353.00   355.03   367.15   380.27   389.36   396.36
eigval :      397.26   405.74   419.83   420.77   424.41   428.77
eigval :      434.12   435.74   443.55   453.22   457.43   465.55
eigval :      471.21   482.98   493.59   505.81   515.51   517.42
eigval :      517.91   524.99   527.80   531.06   541.42   541.75
eigval :      542.21   554.26   560.67   568.83   587.16   588.28
eigval :      591.58   599.19   623.31   627.08   637.80   638.47
eigval :      649.90   672.85   673.96   675.52   679.78   682.18
eigval :      684.22   685.86   693.02   701.92   707.53   708.38
eigval :      709.51   740.13   755.28   755.49   768.47   770.75
eigval :      778.12   779.79   782.07   799.87   824.20   828.65
eigval :      837.57   846.01   868.68   870.89   873.54   873.95
eigval :      891.13   891.58   892.34   898.43   898.52   900.88
eigval :      901.32   904.00   905.11   908.22   910.33   915.79
eigval :      919.21   921.88   922.31   924.08   925.20   927.35
eigval :      928.36   929.04   930.95   948.33   957.70   991.07
eigval :      993.17  1001.26  1011.36  1011.78  1013.50  1014.77
eigval :     1067.81  1068.03  1069.06  1071.18  1072.29  1079.02
eigval :     1090.39  1093.71  1094.99  1120.89  1122.69  1125.69
eigval :     1138.72  1142.13  1147.69  1149.72  1150.68  1158.44
eigval :     1161.16  1167.10  1175.03  1175.58  1176.82  1180.27
eigval :     1180.76  1187.15  1188.01  1195.49  1205.18  1206.71
eigval :     1213.25  1219.56  1228.02  1235.02  1235.48  1235.77
eigval :     1245.04  1255.84  1262.62  1271.47  1293.60  1297.30
eigval :     1300.81  1302.12  1304.10  1306.27  1314.04  1316.71
eigval :     1322.62  1327.58  1355.62  1355.74  1360.68  1361.08
eigval :     1369.07  1375.21  1386.33  1399.96  1401.55  1413.55
eigval :     1418.64  1419.44  1422.64  1427.35  1427.72  1432.62
eigval :     1439.30  1447.18  1473.08  1474.70  1476.11  1484.69
eigval :     1487.07  1487.18  1488.15  1493.64  1498.34  1499.77
eigval :     1536.08  1555.19  1557.62  1561.57  1570.13  1572.68
eigval :     1576.06  1579.75  1587.05  1587.31  1592.07  1596.41
eigval :     1596.93  1597.53  1612.81  1613.06  3025.83  3028.17
eigval :     3044.94  3046.82  3054.51  3058.59  3069.57  3069.91
eigval :     3070.26  3071.10  3075.24  3075.87  3076.07  3077.02
eigval :     3083.50  3083.77  3085.38  3085.65  3090.90  3090.91
eigval :     3093.37  3093.63  3095.57  3097.28  3097.91  3099.30
eigval :     3102.89  3104.79  3105.19  3105.80  3108.24  3108.37
eigval :     3111.12  3111.79  3113.69

   temp. (K)  partition function   enthalpy   heat capacity  entropy
                                   cal/mol     cal/K/mol   cal/K/mol   J/K/mol
 298.15  VIB  0.164E+23            28954.366    182.569    178.801
         ROT  0.215E+09              888.752      2.981     41.109
         INT  0.352E+31            29843.119    185.550    219.910
         TR   0.226E+29             1481.254      4.968     45.962
         TOT                       31324.3727   190.5182   265.8718  1112.4076

       T/K    H(0)-H(T)+PV         H(T)/Eh          T*S/Eh         G(T)/Eh
   ------------------------------------------------------------------------
    298.15    0.499186E-01    0.761066E+00    0.126324E+00    0.634742E+00
   ------------------------------------------------------------------------

         :::::::::::::::::::::::::::::::::::::::::::::::::::::
         ::                  THERMODYNAMIC                  ::
         :::::::::::::::::::::::::::::::::::::::::::::::::::::
         :: total free energy        -158.091579812217 Eh   ::
         ::.................................................::
         :: total energy             -158.726321714943 Eh   ::
         :: zero point energy           0.711147611693 Eh   ::
         :: G(RRHO) w/o ZPVE           -0.076405708968 Eh   ::
         :: G(RRHO) contrib.            0.634741902726 Eh   ::
         :::::::::::::::::::::::::::::::::::::::::::::::::::::

           -------------------------------------------------
          | TOTAL ENERGY             -158.726321714943 Eh   |
          | TOTAL ENTHALPY           -157.965255537936 Eh   |
          | TOTAL FREE ENERGY        -158.091579812217 Eh   |
          | GRADIENT NORM               0.000072633738 Eh/α |
          | HOMO-LUMO GAP               1.432596160452 eV   |
           -------------------------------------------------

 * finished run on 2025/07/17 at 22:39:28.977
