   * xtb version 6.7.1 (edcfbbe) compiled by 'albert@albert-system' on 2024-07-22

   ID    Z sym.   atoms
    1    6 C      1-9, 11-18, 20-37, 39-44, 46-54
    2    7 N      10, 19, 38, 45
    3    1 H      55-92

          program call               : xtb data2507/toluene/AcDbp/AcDbp_toluene_T1_crest.xyz --gfn 2 --uhf 2 --gbsa toluene --ohess vtight --parallel 40 --molden --ceasefiles --namespace data2507/toluene/AcDbp/AcDbp_toluene_T1_finalOpt
      * Solvation model:               GBSA
        Solvent                        toluene
        Solvent mass                       9.2140E+01 g/mol
          :  Hamiltonian                  GFN2-xTB          :
 * total energy  :  -138.2561708 Eh     change        0.1916987E-08 Eh
 * total energy  :  -138.2562628 Eh     change       -0.9202201E-04 Eh
 * total energy  :  -138.2563039 Eh     change       -0.4108931E-04 Eh
 * total energy  :  -138.2563092 Eh     change       -0.5261794E-05 Eh
 * total energy  :  -138.2563108 Eh     change       -0.1642422E-05 Eh
 * total energy  :  -138.2563123 Eh     change       -0.1431133E-05 Eh
 * total energy  :  -138.2563145 Eh     change       -0.2271849E-05 Eh
 * total energy  :  -138.2563164 Eh     change       -0.1857569E-05 Eh
 * total energy  :  -138.2563180 Eh     change       -0.1645682E-05 Eh
 * total energy  :  -138.2563197 Eh     change       -0.1709785E-05 Eh
 * total energy  :  -138.2563364 Eh     change       -0.5380361E-06 Eh
 * total energy  :  -138.2563369 Eh     change       -0.5248710E-06 Eh
 * total energy  :  -138.2563373 Eh     change       -0.4473822E-06 Eh
 * total energy  :  -138.2563377 Eh     change       -0.3863340E-06 Eh
 * total energy  :  -138.2563382 Eh     change       -0.4766108E-06 Eh
 * total energy  :  -138.2563387 Eh     change       -0.4739618E-06 Eh
 * total energy  :  -138.2563390 Eh     change       -0.3315709E-06 Eh
 * total energy  :  -138.2563392 Eh     change       -0.1859724E-06 Eh
 * total energy  :  -138.2563393 Eh     change       -0.9671436E-07 Eh
   *** GEOMETRY OPTIMIZATION CONVERGED AFTER 37 ITERATIONS ***

 final structure:
================
92
 xtb: 6.7.1 (edcfbbe)
C           -8.78202053958242       -2.06433004895541        0.04878583608307
C           -7.87638654888594       -0.81908490364870       -0.01280076275621
C           -8.73439047352458        0.45878365979875       -0.08498750313681
C           -7.02134787256468       -0.90103978508222       -1.26207784661810
C           -7.63015278375350       -0.95188405492450       -2.50876766932833
C           -6.89900692770575       -1.02562623390621       -3.68045825361091
C           -5.51557286648837       -1.04881826655377       -3.61807081655573
C           -4.88384209076603       -1.00066198699010       -2.39438870438727
C           -5.62140457153182       -0.92850732508862       -1.20637052523922
N           -4.95814297392158       -0.88935508821806        0.00576853162264
C           -3.53333581654534       -0.91556706358902        0.01251290867211
C           -2.85643342020667       -2.14309824579666        0.02821793136062
C           -1.48478422393082       -2.16956093174309        0.02929138862090
C           -0.71986874958524       -0.99106344727926        0.01525832842005
C            0.72017391206116       -0.99072826444050        0.01282608992900
C            1.48557050612419       -2.16898831815887        0.01539004678016
C            2.85718282143757       -2.14191858072359        0.01166161822948
C            3.53361429179943       -0.91400693011570        0.00658859746814
N            4.95843832445351       -0.88773692049131        0.00453819269040
C            5.62969090516800       -0.91946481030902        1.21247442061106
C            4.89984643931603       -0.97842637561250        2.40594090092761
C            5.53955060496805       -1.02000871313322        3.62571935035544
C            6.92347366209898       -1.00289132512720        3.67866832825373
C            7.64702989509203       -0.94098440450624        2.50159569322317
C            7.03008275877154       -0.89707370919505        1.25865440051889
C            7.87705388381359       -0.82787589440560        0.00314449829578
C            8.74086882894686        0.44684701112311        0.06034598224906
C            8.77695169197821       -2.07744611179705       -0.05525740510551
C            7.02639258827072       -0.78326027776722       -1.25104665746796
C            7.64003612698942       -0.71448294753532       -2.49451980675052
C            6.91357326532678       -0.67794583474174       -3.67079321513862
C            5.53003985270603       -0.71350251438050       -3.61654770217437
C            4.89349594870002       -0.78148802283367       -2.39629051802933
C            5.62616036056655       -0.81454607774709       -1.20356854920876
C            2.81877075534205        0.25931565886228        0.00359985326412
C            1.41565364054332        0.24503670020910        0.00522627323715
C            0.71084768595861        1.49043926463930       -0.00325344549273
N            1.37115795148141        2.64244021823470       -0.01073341140069
C            0.71930529902341        3.81215203246626       -0.02209156333361
C            1.39273017278967        5.03357364736360       -0.03076246104992
C            0.69232484133155        6.22639364567512       -0.04187698893920
C           -0.69583076575413        6.22599025472498       -0.04456340764772
C           -1.39555092180380        5.03275042811325       -0.03642774312330
C           -0.72141287782917        3.81174428794128       -0.02539766152572
N           -1.37262372083338        2.64165710233986       -0.01765012964822
C           -0.71167825159629        1.49005729996894       -0.00633617933013
C           -1.41588748004100        0.24434456697898        0.00352843306327
C           -2.81899053974634        0.25799652715095        0.00148306579821
C           -5.63357973144902       -0.80489707414822        1.20874716085777
C           -4.90853037368830       -0.76495458858061        2.40589398296506
C           -5.55283071194354       -0.68610399819138        3.62142179094038
C           -6.93658444108479       -0.64600332806627        3.66628515015169
C           -7.65553125172084       -0.68891754346039        2.48559732318405
C           -7.03398251541350       -0.76875010783025        1.24672528006518
H           -9.41311398470094       -2.12677798698531       -0.83305278887103
H           -8.17249334480429       -2.96489459794935        0.10019703386404
H           -9.42279755318308       -2.03306470523975        0.92527704442450
H           -9.36373078490909        0.45264927464557       -0.97026737277715
H           -9.37517115329678        0.54410829659066        0.78790533246423
H           -8.09114139819459        1.33613887037331       -0.12654611036154
H           -8.70716736452496       -0.93337702091747       -2.57428511906817
H           -7.40507840691870       -1.06338179737384       -4.63325992365585
H           -4.92680080176745       -1.10339234626500       -4.52175477855484
H           -3.80596855140246       -1.01496913564646       -2.34909375443762
H           -3.42531319159831       -3.06069037884613        0.03875500676645
H           -0.99326234139471       -3.12854581232405        0.04191553611024
H            0.99445974228889       -3.12825980372283        0.01836999953895
H            3.42654282512773       -3.05925834332463        0.01275894915536
H            3.82164255883473       -0.98758164974834        2.36788732441146
H            4.95662712860466       -1.06454968313418        4.53373529899424
H            7.43577546397342       -1.03570754171516        4.62832849128083
H            8.72452583225275       -0.92663930451671        2.55971556048975
H            9.37500647331877        0.52386496644425       -0.81813339870387
H            9.37731422706795        0.44359191035163        0.94054096593589
H            8.10175993332128        1.32725767050621        0.10145351680231
H            8.16342042225298       -2.97594935882858       -0.09351136687951
H            9.41018047731115       -2.05649819691389       -0.93751315418253
H            9.41544665669712       -2.13471408097818        0.82159393798343
H            8.71726778317808       -0.68852268015547       -2.55367889133491
H            7.42329048853632       -0.62354955784485       -4.62085456589417
H            4.94492308795633       -0.68771841430796       -4.52388987976302
H            3.81555416891610       -0.80744183507410       -2.35710430651137
H            3.32222719963739        1.21411666713135       -0.00155925966042
H            2.47234465997915        5.02019238635740       -0.02865165945668
H            1.23218254564502        7.16162975334666       -0.04837746552893
H           -1.23621995582910        7.16089928048885       -0.05326915349972
H           -2.47515788741956        5.01869726486348       -0.03827370241911
H           -3.32287096089942        1.21252770348548       -0.00872463016084
H           -3.83042387532207       -0.79425451790906        2.37373775479213
H           -4.97361007794653       -0.65524185155545        4.53238277502485
H           -7.45232947773272       -0.58311766690657        4.61256014484339
H           -8.73303577791388       -0.65906783061800        2.53755031128922

          :  Hamiltonian                  GFN2-xTB          :
         :: gradient norm              0.000083881090 Eh/a0 ::
         :: HOMO-LUMO gap              0.897269394692 eV    ::
         :: SCC energy              -140.755157796453 Eh    ::
         :: -> dispersion             -0.132471994817 Eh    ::
         :: -> Gsolv                  -0.057191565341 Eh    ::
         :: repulsion energy           2.498818506378 Eh    ::

    * Orbital Energies and Occupations

         #    Occupation            Energy/Eh            Energy/eV
      -------------------------------------------------------------
         1        2.0000           -0.6737815             -18.3345
       ...           ...                  ...                  ...
       118        2.0000           -0.4088638             -11.1258
       119        2.0000           -0.4087634             -11.1230
       120        2.0000           -0.4033076             -10.9746
       121        2.0000           -0.4032669             -10.9735
       122        2.0000           -0.3977048             -10.8221
       123        2.0000           -0.3976822             -10.8215
       124        2.0000           -0.3959538             -10.7745
       125        2.0000           -0.3920246             -10.6675
       126        2.0000           -0.3826193             -10.4116
       127        1.9494           -0.3534706              -9.6184
       128        1.8468           -0.3523104              -9.5869
       129        1.2038           -0.3493912              -9.5074
       130        1.0000           -0.2989911              -8.1360 (HOMO)
       131                         -0.2660170              -7.2387 (LUMO)
       132                         -0.2583832              -7.0310
       133                         -0.2304373              -6.2705
       134                         -0.2304194              -6.2700
       135                         -0.2241115              -6.0984
       136                         -0.2241075              -6.0983
       137                         -0.2238096              -6.0902
       138                         -0.2232962              -6.0762
       139                         -0.2206158              -6.0033
       140                         -0.2117003              -5.7607
       141                         -0.2025063              -5.5105
       ...                                ...                  ...
       254                          0.7091443              19.2968
      -------------------------------------------------------------
                  HL-Gap            0.0329741 Eh            0.8973 eV

     #   Z          covCN         q      C6AA      α(0)
     1   6 C        3.761    -0.105    22.557     6.771
     2   6 C        3.909     0.022    20.144     6.379
     3   6 C        3.761    -0.105    22.552     6.770
     4   6 C        2.978    -0.009    28.239     8.717
     5   6 C        2.927    -0.036    28.891     8.815
     6   6 C        2.917    -0.041    29.008     8.832
     7   6 C        2.919    -0.032    28.798     8.800
     8   6 C        2.923    -0.054    29.352     8.885
     9   6 C        2.929     0.060    26.648     8.466
    10   7 N        2.755    -0.052    22.241     7.004
    11   6 C        2.925     0.061    26.642     8.465
    12   6 C        2.917    -0.044    29.097     8.846
    13   6 C        2.920    -0.035    28.864     8.810
    14   6 C        2.976    -0.004    28.129     8.700
    15   6 C        2.976    -0.004    28.129     8.700
    16   6 C        2.920    -0.035    28.864     8.810
    17   6 C        2.917    -0.044    29.097     8.846
    18   6 C        2.925     0.061    26.643     8.465
    19   7 N        2.755    -0.052    22.241     7.004
    20   6 C        2.929     0.060    26.648     8.466
    21   6 C        2.923    -0.054    29.352     8.885
    22   6 C        2.919    -0.032    28.798     8.800
    23   6 C        2.917    -0.041    29.008     8.832
    24   6 C        2.927    -0.036    28.891     8.815
    25   6 C        2.978    -0.009    28.239     8.717
    26   6 C        3.909     0.022    20.144     6.379
    27   6 C        3.761    -0.105    22.552     6.770
    28   6 C        3.761    -0.105    22.557     6.771
    29   6 C        2.978    -0.009    28.240     8.717
    30   6 C        2.927    -0.036    28.891     8.815
    31   6 C        2.917    -0.041    29.008     8.832
    32   6 C        2.919    -0.032    28.798     8.800
    33   6 C        2.923    -0.054    29.350     8.884
    34   6 C        2.928     0.060    26.648     8.466
    35   6 C        2.925    -0.039    28.957     8.825
    36   6 C        2.986    -0.010    28.267     8.721
    37   6 C        2.942     0.081    26.198     8.395
    38   7 N        1.848    -0.262    27.655     7.794
    39   6 C        2.942     0.086    26.084     8.376
    40   6 C        2.918    -0.061    29.527     8.911
    41   6 C        2.916    -0.039    28.980     8.828
    42   6 C        2.916    -0.039    28.980     8.828
    43   6 C        2.918    -0.061    29.527     8.911
    44   6 C        2.942     0.086    26.084     8.376
    45   7 N        1.848    -0.262    27.655     7.794
    46   6 C        2.942     0.081    26.198     8.395
    47   6 C        2.986    -0.010    28.267     8.721
    48   6 C        2.925    -0.038    28.957     8.825
    49   6 C        2.928     0.060    26.648     8.466
    50   6 C        2.923    -0.054    29.350     8.884
    51   6 C        2.919    -0.032    28.798     8.800
    52   6 C        2.917    -0.041    29.008     8.832
    53   6 C        2.927    -0.036    28.891     8.815
    54   6 C        2.978    -0.009    28.240     8.717
    55   1 H        0.925     0.046     2.372     2.408
    56   1 H        0.925     0.033     2.543     2.494
    57   1 H        0.925     0.046     2.373     2.409
    58   1 H        0.925     0.046     2.374     2.409
    59   1 H        0.925     0.046     2.374     2.409
    60   1 H        0.925     0.032     2.560     2.502
    61   1 H        0.926     0.040     2.450     2.448
    62   1 H        0.926     0.033     2.541     2.493
    63   1 H        0.926     0.032     2.554     2.499
    64   1 H        0.926     0.029     2.596     2.520
    65   1 H        0.926     0.044     2.392     2.419
    66   1 H        0.926     0.048     2.339     2.392
    67   1 H        0.926     0.048     2.339     2.392
    68   1 H        0.926     0.044     2.393     2.419
    69   1 H        0.926     0.029     2.596     2.520
    70   1 H        0.926     0.032     2.554     2.499
    71   1 H        0.926     0.033     2.542     2.493
    72   1 H        0.926     0.040     2.450     2.448
    73   1 H        0.925     0.046     2.374     2.409
    74   1 H        0.925     0.046     2.374     2.409
    75   1 H        0.925     0.032     2.559     2.502
    76   1 H        0.925     0.033     2.543     2.494
    77   1 H        0.925     0.046     2.373     2.409
    78   1 H        0.925     0.046     2.372     2.408
    79   1 H        0.926     0.040     2.450     2.448
    80   1 H        0.926     0.033     2.542     2.493
    81   1 H        0.926     0.032     2.557     2.501
    82   1 H        0.926     0.029     2.601     2.522
    83   1 H        0.926     0.050     2.316     2.380
    84   1 H        0.926     0.037     2.485     2.465
    85   1 H        0.926     0.033     2.547     2.496
    86   1 H        0.926     0.033     2.547     2.496
    87   1 H        0.926     0.037     2.485     2.465
    88   1 H        0.926     0.050     2.316     2.380
    89   1 H        0.926     0.029     2.600     2.522
    90   1 H        0.926     0.032     2.557     2.500
    91   1 H        0.926     0.033     2.542     2.493
    92   1 H        0.926     0.040     2.450     2.448

molecular dipole:
                 x           y           z       tot (Debye)
 q only:        0.000      -2.035       0.009
   full:        0.000      -1.895       0.009       4.817

 projected vibrational frequencies (cm⁻¹)
eigval :       -0.00    -0.00     0.00     0.00     0.00     0.00
eigval :        6.17     9.23     9.69    15.60    21.34    26.83
eigval :       33.83    43.37    46.16    58.81    81.50    87.59
eigval :       90.81    92.20    93.89    98.30    99.37   115.04
eigval :      134.73   135.11   137.87   154.22   171.47   184.43
eigval :      196.36   196.52   202.47   218.98   219.44   231.42
eigval :      238.93   241.12   245.89   280.95   285.88   300.91
eigval :      303.06   310.72   324.25   328.47   328.59   334.40
eigval :      342.53   347.39   364.24   367.03   367.60   372.36
eigval :      379.15   383.66   409.04   411.71   420.11   435.86
eigval :      436.40   447.75   450.92   451.13   459.24   486.41
eigval :      500.72   505.68   509.44   509.68   509.76   526.11
eigval :      537.98   542.50   543.94   544.45   545.06   554.77
eigval :      564.78   579.15   584.25   585.12   598.42   600.87
eigval :      613.17   628.80   651.51   651.90   664.87   674.30
eigval :      684.69   684.70   684.82   688.25   696.66   696.96
eigval :      703.73   708.08   720.63   748.11   756.18   774.42
eigval :      774.81   775.99   776.39   782.24   807.30   812.91
eigval :      821.83   825.30   825.47   832.21   850.91   865.61
eigval :      866.38   866.41   867.24   873.55   877.84   882.59
eigval :      894.72   897.68   901.44   906.92   913.93   914.59
eigval :      915.05   915.24   915.37   915.40   921.78   921.82
eigval :      922.47   922.91   938.65   938.88   959.56   959.96
eigval :      976.29   990.65  1012.65  1013.25  1022.30  1060.63
eigval :     1071.92  1075.26  1075.30  1084.60  1087.39  1107.52
eigval :     1108.27  1114.48  1114.96  1128.75  1137.86  1137.95
eigval :     1150.73  1151.77  1154.26  1154.36  1161.82  1165.32
eigval :     1171.03  1182.22  1183.12  1183.91  1184.24  1185.51
eigval :     1191.28  1215.47  1222.90  1232.35  1232.97  1243.81
eigval :     1244.57  1244.74  1249.65  1253.88  1261.06  1262.03
eigval :     1279.07  1288.52  1292.52  1292.60  1296.29  1308.37
eigval :     1312.02  1319.56  1320.69  1322.02  1322.24  1330.88
eigval :     1330.94  1332.86  1333.27  1347.23  1358.72  1386.61
eigval :     1399.75  1400.03  1406.53  1409.91  1418.27  1418.47
eigval :     1431.07  1431.08  1431.24  1432.32  1438.27  1454.85
eigval :     1460.88  1463.09  1463.18  1479.22  1483.13  1484.58
eigval :     1484.91  1485.87  1486.10  1486.30  1494.45  1494.76
eigval :     1500.28  1500.49  1513.98  1527.41  1534.00  1550.57
eigval :     1562.09  1563.07  1563.10  1574.82  1578.39  1582.38
eigval :     1583.15  1583.19  1593.71  1594.31  3024.18  3024.31
eigval :     3026.74  3026.90  3042.56  3042.64  3044.37  3044.42
eigval :     3050.18  3050.31  3053.61  3053.80  3073.40  3076.32
eigval :     3076.45  3076.94  3077.02  3077.69  3083.38  3083.76
eigval :     3084.29  3084.35  3084.49  3086.65  3087.88  3092.48
eigval :     3094.11  3094.17  3094.30  3094.46  3098.29  3098.57
eigval :     3100.59  3100.96  3101.32  3101.83  3105.18  3113.95

   temp. (K)  partition function   enthalpy   heat capacity  entropy
                                   cal/mol     cal/K/mol   cal/K/mol   J/K/mol
 298.15  VIB  0.276E+21            26098.069    166.554    161.808
         ROT  0.630E+08              888.752      2.981     38.668
         INT  0.173E+29            26986.821    169.535    200.476
         TR   0.177E+29             1481.254      4.968     45.476
         TOT                       28468.0753   174.5027   245.9521  1029.0637

       T/K    H(0)-H(T)+PV         H(T)/Eh          T*S/Eh         G(T)/Eh
   ------------------------------------------------------------------------
    298.15    0.453668E-01    0.766297E+00    0.116860E+00    0.649437E+00
   ------------------------------------------------------------------------

         :::::::::::::::::::::::::::::::::::::::::::::::::::::
         ::                  THERMODYNAMIC                  ::
         :::::::::::::::::::::::::::::::::::::::::::::::::::::
         :: total free energy        -137.606902124628 Eh   ::
         ::.................................................::
         :: total energy             -138.256339290461 Eh   ::
         :: zero point energy           0.720930189210 Eh   ::
         :: G(RRHO) w/o ZPVE           -0.071493023377 Eh   ::
         :: G(RRHO) contrib.            0.649437165833 Eh   ::
         :::::::::::::::::::::::::::::::::::::::::::::::::::::

           -------------------------------------------------
          | TOTAL ENERGY             -138.256339290461 Eh   |
          | TOTAL ENTHALPY           -137.490042335464 Eh   |
          | TOTAL FREE ENERGY        -137.606902124628 Eh   |
          | GRADIENT NORM               0.000083546002 Eh/α |
          | HOMO-LUMO GAP               0.897271383138 eV   |
           -------------------------------------------------

 * finished run on 2025/09/12 at 08:28:57.468
