   * xtb version 6.7.1 (edcfbbe) compiled by 'albert@albert-system' on 2024-07-22

   ID    Z sym.   atoms
    1    6 C      1-9, 11-18, 20-37, 39-44, 46-54
    2    7 N      10, 19, 38, 45
    3    1 H      55-92

          program call               : xtb data2507/toluene/AcDbp/AcDbp.xyz --gfn 2 --gbsa toluene --ohess vtight --parallel 40 --molden --ceasefiles --namespace data2507/toluene/AcDbp/AcDbp_toluene_S0_preOpt
      * Solvation model:               GBSA
        Solvent                        toluene
        Solvent mass                       9.2140E+01 g/mol
          :  Hamiltonian                  GFN2-xTB          :
 * total energy  :  -138.2677638 Eh     change       -0.5007706E-08 Eh
 * total energy  :  -138.2918551 Eh     change       -0.2409134E-01 Eh
 * total energy  :  -138.2996985 Eh     change       -0.7843409E-02 Eh
 * total energy  :  -138.3009180 Eh     change       -0.1219424E-02 Eh
 * total energy  :  -138.3016187 Eh     change       -0.7007300E-03 Eh
 * total energy  :  -138.3019180 Eh     change       -0.2993339E-03 Eh
 * total energy  :  -138.3020791 Eh     change       -0.1610332E-03 Eh
 * total energy  :  -138.3021698 Eh     change       -0.9073422E-04 Eh
 * total energy  :  -138.3022370 Eh     change       -0.6721251E-04 Eh
 * total energy  :  -138.3022610 Eh     change       -0.2403161E-04 Eh
 * total energy  :  -138.3022709 Eh     change       -0.9857364E-05 Eh
 * total energy  :  -138.3022743 Eh     change       -0.3383283E-05 Eh
 * total energy  :  -138.3022753 Eh     change       -0.9904535E-06 Eh
 * total energy  :  -138.3022754 Eh     change       -0.1383428E-06 Eh
 * total energy  :  -138.3022755 Eh     change       -0.1464662E-06 Eh
 * total energy  :  -138.3022756 Eh     change       -0.9930557E-07 Eh
   *** GEOMETRY OPTIMIZATION CONVERGED AFTER 16 ITERATIONS ***

 final structure:
================
92
 xtb: 6.7.1 (edcfbbe)
C           -8.77531202854383       -2.00585609879082        0.00009652090625
C           -7.88614902192558       -0.74796388704320        0.00029185196599
C           -8.76000711473187        0.52052855654889        0.00039365740834
C           -7.03592680161188       -0.75299754537413       -1.25698501798241
C           -7.65299929978677       -0.74610490290312       -2.50054780639585
C           -6.93111109593623       -0.75102407839754       -3.68036390621504
C           -5.54886006712105       -0.76257032252698       -3.62702710916543
C           -4.90944921295382       -0.76968523845990       -2.40486540932212
C           -5.63755956676038       -0.76525147717204       -1.21136900811936
N           -4.96561380368754       -0.77712285155146        0.00044803985092
C           -3.54308019966518       -0.79441301264729        0.00052135149112
C           -2.85759286671314       -2.01039203048448        0.00117671686308
C           -1.48115682105979       -2.03233571911256        0.00120778001145
C           -0.72801074714079       -0.85099381212053        0.00057707981949
C            0.72809049857725       -0.85092154309002        0.00056305546145
C            1.48134924363126       -2.03219076384506        0.00110835963141
C            2.85778208670122       -2.01011290945365        0.00113238282212
C            3.54315405470532       -0.79406927281365        0.00053684106951
N            4.96568621848954       -0.77668110375276        0.00047251338832
C            5.63774266685620       -0.76343056541998        1.21221159484945
C            4.90973568302902       -0.76629268742458        2.40577550405400
C            5.54925773460976       -0.75775411214571        3.62787034493009
C            6.93151502628508       -0.74633224978439        3.68106944196053
C            7.65329959000910       -0.74298323622317        2.50118502624717
C            7.03611589259939       -0.75132228313773        1.25768684000160
C            7.88622762403102       -0.74800663410334        0.00032938361913
C            8.76035281706433        0.52030286587601       -0.00142648864808
C            8.77512667715578       -2.00608282452186        0.00201074791992
C            7.03602862421464       -0.75467777356290       -1.25695544955265
C            7.65312495004199       -0.74961884827212       -2.50051521628445
C            6.93125534196401       -0.75589975842233       -3.68033649142388
C            5.54899979484708       -0.76686417369699       -3.62700924655428
C            4.90956565152147       -0.77219533170820       -2.40484994440656
C            5.63765755236724       -0.76654627940854       -1.21134750665081
C            2.82733237709448        0.38557290825401       -0.00001436140110
C            1.43092171271068        0.37081652724958       -0.00002228033509
C            0.71350797080635        1.62783335097351       -0.00070628619606
N            1.39813806543681        2.75643666816160       -0.00133194324275
C            0.71374472704112        3.90985827978337       -0.00200115091856
C            1.40557839313596        5.14070423966456       -0.00265482607358
C            0.70424003119794        6.31234077964493       -0.00331292648137
C           -0.70487399161065        6.31226979192279       -0.00335269227712
C           -1.40609360673069        5.14056227016822       -0.00273739980780
C           -0.71413485925215        3.90978671182700       -0.00204543120908
N           -1.39841223224953        2.75629666011239       -0.00141408076688
C           -0.71366871101033        1.62776232125336       -0.00074346720767
C           -1.43095886527235        0.37067567628834       -0.00006627800668
C           -2.82736984150165        0.38529622364375       -0.00008146064523
C           -5.63769184547265       -0.76543721959005        1.21219196585471
C           -4.90970506509542       -0.76988878886306        2.40576343680017
C           -5.54924674266796       -0.76299686394103        3.62785861374244
C           -6.93150466695067       -0.75163930831316        3.68104959579612
C           -7.65326911429559       -0.74658436704928        2.50115797048882
C           -7.03606407183994       -0.75323379674135        1.25765996286016
H           -8.15400437649725       -2.90002927234648        0.00001633993349
H           -9.41143435286864       -2.03065322518633        0.88053313817833
H           -9.41137108473656       -2.03044806110825       -0.88039201368795
H           -8.12753043570388        1.40682352752443        0.00056378854884
H           -9.39581241978757        0.55332243684715       -0.87999525853980
H           -9.39597122958540        0.55309462631515        0.88067704476349
H           -8.73102737258675       -0.73692262153305       -2.55743836418861
H           -7.44434359082581       -0.74563959987244       -4.63037346613948
H           -4.96446232675184       -0.76584632051335       -4.53567663975515
H           -3.83065354864323       -0.77693514283056       -2.37010643392504
H           -3.41844123583674       -2.93324321795916        0.00164395102414
H           -0.98829360021926       -2.99023678112578        0.00171830955145
H            0.98857888883046       -2.99013943941799        0.00161104367445
H            3.41871876668019       -2.93291031855009        0.00152127683101
H            3.83093524738849       -0.77347300769029        2.37111593478663
H            4.96494334350478       -0.75983435724158        4.53657634150885
H            7.44483312661823       -0.73986071959154        4.63102613389427
H            8.73133436364075       -0.73391209271010        2.55797044140257
H            9.39631997081750        0.55158586939798       -0.88175360660887
H            9.39616999952765        0.55412073062977        0.87891470516058
H            8.12806138414780        1.40672814278567       -0.00276249137079
H            9.41134026112128       -2.02964093825500        0.88241577212001
H            8.15364054063967       -2.90013126198255        0.00338868458860
H            9.41108541307537       -2.03216615902870       -0.87850713119191
H            8.73115651694899       -0.74083194091573       -2.55739920617936
H            7.44450576667708       -0.75192607613326       -4.63034314210857
H            4.96461770858752       -0.77105908931495       -4.53566403566292
H            3.83076666077137       -0.77894241226769       -2.37009865847561
H            3.33168163701566        1.33934449807932       -0.00044738792725
H            2.48459314824543        5.11836075417715       -0.00260571954906
H            1.22833249836337        7.25648574823352       -0.00380916682370
H           -1.22906188312048        7.25636184521823       -0.00387439743311
H           -2.48510605860203        5.11810855856129       -0.00274824531903
H           -3.33181098908507        1.33901871744431       -0.00058801695222
H           -3.83090411200737       -0.77694309095004        2.37111185997712
H           -4.96494781773598       -0.76626712984325        4.53657061613292
H           -7.44483861535657       -0.74642980066677        4.63100516059511
H           -8.73130393718755       -0.73750153768419        2.55793644464268

          :  Hamiltonian                  GFN2-xTB          :
         :: gradient norm              0.000041472492 Eh/a0 ::
         :: HOMO-LUMO gap              0.925901860322 eV    ::
         :: SCC energy              -140.800646195661 Eh    ::
         :: -> dispersion             -0.132548656178 Eh    ::
         :: -> Gsolv                  -0.055207366146 Eh    ::
         :: repulsion energy           2.498370549309 Eh    ::

    * Orbital Energies and Occupations

         #    Occupation            Energy/Eh            Energy/eV
      -------------------------------------------------------------
         1        2.0000           -0.6838223             -18.6078
       ...           ...                  ...                  ...
       117        2.0000           -0.4059253             -11.0458
       118        2.0000           -0.4058152             -11.0428
       119        2.0000           -0.4046327             -11.0106
       120        2.0000           -0.4020416             -10.9401
       121        2.0000           -0.4017118             -10.9311
       122        2.0000           -0.3968751             -10.7995
       123        2.0000           -0.3966675             -10.7939
       124        2.0000           -0.3966343             -10.7930
       125        2.0000           -0.3913337             -10.6487
       126        2.0000           -0.3913279             -10.6486
       127        2.0000           -0.3607161              -9.8156
       128        2.0000           -0.3452051              -9.3935
       129        2.0000           -0.3451782              -9.3928 (HOMO)
       130                         -0.3111520              -8.4669 (LUMO)
       131                         -0.2767968              -7.5320
       132                         -0.2670004              -7.2655
       133                         -0.2339378              -6.3658
       134                         -0.2264333              -6.1616
       135                         -0.2229047              -6.0655
       136                         -0.2228874              -6.0651
       137                         -0.2178914              -5.9291
       138                         -0.2178901              -5.9291
       139                         -0.2170411              -5.9060
       140                         -0.2169011              -5.9022
       ...                                ...                  ...
       254                          0.7048613              19.1803
      -------------------------------------------------------------
                  HL-Gap            0.0340262 Eh            0.9259 eV

     #   Z          covCN         q      C6AA      α(0)
     1   6 C        3.761    -0.103    22.522     6.765
     2   6 C        3.908     0.021    20.166     6.383
     3   6 C        3.761    -0.103    22.523     6.765
     4   6 C        2.979    -0.014    28.362     8.736
     5   6 C        2.928    -0.038    28.936     8.822
     6   6 C        2.917    -0.047    29.163     8.856
     7   6 C        2.919    -0.035    28.871     8.811
     8   6 C        2.924    -0.060    29.494     8.906
     9   6 C        2.928     0.059    26.681     8.471
    10   7 N        2.754    -0.075    22.693     7.075
    11   6 C        2.924     0.073    26.371     8.421
    12   6 C        2.919    -0.036    28.891     8.814
    13   6 C        2.921    -0.033    28.815     8.803
    14   6 C        2.975     0.006    27.893     8.663
    15   6 C        2.975     0.006    27.893     8.663
    16   6 C        2.921    -0.033    28.815     8.803
    17   6 C        2.919    -0.036    28.891     8.814
    18   6 C        2.924     0.073    26.371     8.421
    19   7 N        2.754    -0.075    22.693     7.075
    20   6 C        2.928     0.059    26.681     8.471
    21   6 C        2.924    -0.060    29.494     8.906
    22   6 C        2.919    -0.035    28.871     8.811
    23   6 C        2.917    -0.047    29.163     8.856
    24   6 C        2.928    -0.038    28.936     8.822
    25   6 C        2.979    -0.014    28.362     8.736
    26   6 C        3.908     0.021    20.166     6.383
    27   6 C        3.761    -0.103    22.523     6.765
    28   6 C        3.761    -0.103    22.522     6.765
    29   6 C        2.979    -0.014    28.362     8.736
    30   6 C        2.928    -0.038    28.936     8.822
    31   6 C        2.917    -0.047    29.163     8.856
    32   6 C        2.919    -0.035    28.871     8.811
    33   6 C        2.924    -0.060    29.494     8.906
    34   6 C        2.928     0.059    26.681     8.471
    35   6 C        2.926    -0.037    28.913     8.818
    36   6 C        2.987    -0.004    28.118     8.698
    37   6 C        2.960     0.086    26.093     8.379
    38   7 N        1.848    -0.257    27.526     7.776
    39   6 C        2.966     0.084    26.136     8.386
    40   6 C        2.916    -0.042    29.050     8.838
    41   6 C        2.916    -0.025    28.633     8.775
    42   6 C        2.916    -0.025    28.633     8.775
    43   6 C        2.916    -0.042    29.050     8.838
    44   6 C        2.966     0.084    26.136     8.386
    45   7 N        1.848    -0.257    27.526     7.776
    46   6 C        2.960     0.086    26.093     8.379
    47   6 C        2.987    -0.004    28.118     8.698
    48   6 C        2.926    -0.037    28.913     8.818
    49   6 C        2.928     0.059    26.681     8.471
    50   6 C        2.924    -0.060    29.494     8.906
    51   6 C        2.919    -0.035    28.871     8.811
    52   6 C        2.917    -0.047    29.163     8.856
    53   6 C        2.928    -0.038    28.936     8.822
    54   6 C        2.979    -0.014    28.362     8.736
    55   1 H        0.925     0.030     2.586     2.515
    56   1 H        0.925     0.042     2.429     2.437
    57   1 H        0.925     0.042     2.429     2.437
    58   1 H        0.925     0.030     2.589     2.516
    59   1 H        0.925     0.041     2.429     2.437
    60   1 H        0.925     0.041     2.429     2.437
    61   1 H        0.926     0.032     2.552     2.498
    62   1 H        0.926     0.025     2.654     2.548
    63   1 H        0.926     0.026     2.651     2.546
    64   1 H        0.926     0.021     2.719     2.579
    65   1 H        0.926     0.053     2.282     2.362
    66   1 H        0.926     0.057     2.232     2.336
    67   1 H        0.926     0.057     2.232     2.336
    68   1 H        0.926     0.053     2.282     2.362
    69   1 H        0.926     0.021     2.719     2.579
    70   1 H        0.926     0.026     2.651     2.546
    71   1 H        0.926     0.025     2.654     2.548
    72   1 H        0.926     0.032     2.552     2.498
    73   1 H        0.925     0.041     2.429     2.437
    74   1 H        0.925     0.041     2.429     2.437
    75   1 H        0.925     0.030     2.589     2.516
    76   1 H        0.925     0.042     2.429     2.437
    77   1 H        0.925     0.030     2.586     2.515
    78   1 H        0.925     0.042     2.429     2.437
    79   1 H        0.926     0.032     2.552     2.498
    80   1 H        0.926     0.025     2.654     2.548
    81   1 H        0.926     0.026     2.651     2.546
    82   1 H        0.926     0.021     2.719     2.579
    83   1 H        0.926     0.064     2.154     2.295
    84   1 H        0.926     0.055     2.257     2.349
    85   1 H        0.926     0.053     2.280     2.361
    86   1 H        0.926     0.053     2.280     2.361
    87   1 H        0.926     0.055     2.257     2.349
    88   1 H        0.926     0.064     2.154     2.295
    89   1 H        0.926     0.021     2.719     2.579
    90   1 H        0.926     0.026     2.651     2.546
    91   1 H        0.926     0.025     2.654     2.548
    92   1 H        0.926     0.032     2.552     2.498

molecular dipole:
                 x           y           z       tot (Debye)
 q only:        0.000      -0.210       0.000
   full:        0.000      -0.137       0.000       0.349

 projected vibrational frequencies (cm⁻¹)
eigval :       -0.00    -0.00    -0.00     0.00     0.00     0.00
eigval :       -6.95    -2.76    11.28    14.86    21.06    23.99
eigval :       27.89    41.88    43.82    56.23    80.59    82.85
eigval :       91.44    93.02    94.01    94.95    99.48   114.46
eigval :      126.19   128.01   137.95   152.05   170.42   185.33
eigval :      188.78   190.04   203.76   219.95   220.10   231.62
eigval :      239.01   242.13   258.25   282.07   293.34   301.98
eigval :      303.47   309.82   322.23   329.56   329.61   333.43
eigval :      343.12   346.06   365.71   367.21   369.30   369.64
eigval :      379.05   384.43   409.10   411.63   421.44   434.90
eigval :      436.57   447.97   449.44   449.83   454.31   484.19
eigval :      489.26   495.90   513.44   513.47   514.78   536.32
eigval :      543.67   544.61   545.95   546.02   546.99   556.73
eigval :      566.14   586.15   586.38   594.12   599.27   614.06
eigval :      617.71   635.04   652.25   655.08   680.97   680.99
eigval :      684.88   691.32   692.15   692.41   693.16   706.13
eigval :      715.28   735.06   755.64   768.88   770.27   776.30
eigval :      776.50   777.46   777.67   788.85   814.40   818.50
eigval :      826.32   827.24   834.38   860.87   865.14   865.33
eigval :      865.75   866.09   876.76   883.37   889.08   911.03
eigval :      911.13   911.74   911.85   913.24   914.32   915.97
eigval :      917.21   917.61   919.57   920.31   920.33   920.43
eigval :      920.48   931.35   938.28   938.62   957.29   957.35
eigval :      977.90   996.67  1010.94  1011.01  1033.77  1052.93
eigval :     1063.15  1075.62  1075.65  1085.29  1088.06  1111.37
eigval :     1111.50  1118.25  1118.25  1138.44  1138.48  1140.84
eigval :     1152.91  1155.17  1158.50  1158.53  1162.99  1164.50
eigval :     1172.09  1184.22  1185.36  1185.65  1185.78  1186.28
eigval :     1192.56  1217.56  1219.99  1234.20  1240.38  1248.04
eigval :     1248.15  1248.78  1257.61  1263.92  1267.05  1268.44
eigval :     1284.17  1292.97  1293.03  1294.95  1307.45  1314.69
eigval :     1321.53  1324.25  1324.25  1333.28  1333.49  1338.42
eigval :     1339.26  1339.36  1342.01  1364.77  1396.85  1399.54
eigval :     1399.61  1416.53  1417.80  1418.55  1418.73  1434.65
eigval :     1435.91  1440.49  1440.60  1440.69  1467.87  1469.33
eigval :     1477.28  1477.45  1486.30  1486.44  1487.29  1487.36
eigval :     1491.72  1494.41  1496.61  1496.77  1497.99  1502.07
eigval :     1502.20  1504.53  1529.00  1546.16  1552.77  1573.63
eigval :     1573.65  1578.06  1588.23  1589.40  1590.37  1590.44
eigval :     1592.78  1600.64  1600.81  1604.78  3021.18  3021.28
eigval :     3023.87  3023.93  3038.28  3038.28  3039.98  3040.00
eigval :     3046.81  3046.82  3050.55  3050.57  3070.45  3070.46
eigval :     3070.53  3070.54  3078.15  3078.16  3078.25  3078.27
eigval :     3080.91  3087.09  3088.41  3088.43  3088.53  3088.61
eigval :     3089.87  3090.75  3095.17  3095.26  3096.24  3096.39
eigval :     3096.52  3100.62  3107.77  3107.87  3110.86  3119.84

   temp. (K)  partition function   enthalpy   heat capacity  entropy
                                   cal/mol     cal/K/mol   cal/K/mol   J/K/mol
 298.15  VIB  0.122E+22            26049.240    165.315    162.872
         ROT  0.632E+08              888.752      2.981     38.674
         INT  0.773E+29            26937.992    168.296    201.546
         TR   0.177E+29             1481.254      4.968     45.476
         TOT                       28419.2463   173.2642   247.0219  1033.5395

       T/K    H(0)-H(T)+PV         H(T)/Eh          T*S/Eh         G(T)/Eh
   ------------------------------------------------------------------------
    298.15    0.452890E-01    0.768606E+00    0.117368E+00    0.651238E+00
   ------------------------------------------------------------------------

         :::::::::::::::::::::::::::::::::::::::::::::::::::::
         ::                  THERMODYNAMIC                  ::
         :::::::::::::::::::::::::::::::::::::::::::::::::::::
         :: total free energy        -137.651037659252 Eh   ::
         ::.................................................::
         :: total energy             -138.302275646364 Eh   ::
         :: zero point energy           0.723317094621 Eh   ::
         :: G(RRHO) w/o ZPVE           -0.072079107508 Eh   ::
         :: G(RRHO) contrib.            0.651237987112 Eh   ::
         :::::::::::::::::::::::::::::::::::::::::::::::::::::

           -------------------------------------------------
          | TOTAL ENERGY             -138.302275646364 Eh   |
          | TOTAL ENTHALPY           -137.533669600040 Eh   |
          | TOTAL FREE ENERGY        -137.651037659252 Eh   |
          | GRADIENT NORM               0.000041469693 Eh/α |
          | HOMO-LUMO GAP               0.925900997875 eV   |
           -------------------------------------------------

 * finished run on 2025/09/12 at 08:13:34.590
