   * xtb version 6.7.1 (edcfbbe) compiled by 'albert@albert-system' on 2024-07-22

   ID    Z sym.   atoms
    1    6 C      1-9, 11-18, 20-37, 39-44, 46-54
    2    7 N      10, 19, 38, 45
    3    1 H      55-92

          program call               : xtb data2507/toluene/AcDbp/AcDbp_toluene_S0_finalOpt.xtbopt.xyz --gfn 2 --uhf 2 --gbsa toluene --ohess vtight --parallel 40 --molden --ceasefiles --namespace data2507/toluene/AcDbp/AcDbp_toluene_T1_preOpt
      * Solvation model:               GBSA
        Solvent                        toluene
        Solvent mass                       9.2140E+01 g/mol
          :  Hamiltonian                  GFN2-xTB          :
 * total energy  :  -138.2529011 Eh     change       -0.4542824E-07 Eh
 * total energy  :  -138.2553063 Eh     change       -0.2405172E-02 Eh
 * total energy  :  -138.2559689 Eh     change       -0.6625721E-03 Eh
 * total energy  :  -138.2560505 Eh     change       -0.8162763E-04 Eh
 * total energy  :  -138.2560872 Eh     change       -0.3674696E-04 Eh
 * total energy  :  -138.2560932 Eh     change       -0.5954960E-05 Eh
 * total energy  :  -138.2561000 Eh     change       -0.6762356E-05 Eh
 * total energy  :  -138.2561081 Eh     change       -0.8160717E-05 Eh
 * total energy  :  -138.2561151 Eh     change       -0.6942268E-05 Eh
 * total energy  :  -138.2561208 Eh     change       -0.5693901E-05 Eh
 * total energy  :  -138.2561734 Eh     change       -0.9541439E-06 Eh
 * total energy  :  -138.2561745 Eh     change       -0.1055399E-05 Eh
 * total energy  :  -138.2561757 Eh     change       -0.1222297E-05 Eh
 * total energy  :  -138.2561770 Eh     change       -0.1278254E-05 Eh
 * total energy  :  -138.2561781 Eh     change       -0.1138513E-05 Eh
 * total energy  :  -138.2561790 Eh     change       -0.8499902E-06 Eh
 * total energy  :  -138.2561795 Eh     change       -0.5648879E-06 Eh
 * total energy  :  -138.2561799 Eh     change       -0.3838164E-06 Eh
 * total energy  :  -138.2561799 Eh     change       -0.1483471E-08 Eh
   *** GEOMETRY OPTIMIZATION CONVERGED AFTER 44 ITERATIONS ***

 final structure:
================
92
 xtb: 6.7.1 (edcfbbe)
C           -8.77634862342174       -2.04705568707678        0.37647861821348
C           -7.87814519175495       -0.83947682574917        0.04590200707574
C           -8.74294839350038        0.39260303253252       -0.28369626250816
C           -7.03507141727550       -1.17336751038640       -1.16867290093866
C           -7.65698176456818       -1.48256695142384       -2.37083537574456
C           -6.93813989459300       -1.77446798179064       -3.51567750286580
C           -5.55407155585225       -1.74789156398608       -3.47356401778754
C           -4.90976133428462       -1.44637559924797       -2.29336049828086
C           -5.63442422159172       -1.16946265910879       -1.12755722232589
N           -4.95823919905575       -0.88996613366707        0.04624527875455
C           -3.53473753629279       -0.91526420984836        0.04188841712961
C           -2.85696906431004       -2.14094136611334        0.10967968669058
C           -1.48555420772437       -2.16833059433301        0.09962603312455
C           -0.72041356999858       -0.99190541513853        0.02841294753487
C            0.71923167636986       -0.99200553209639        0.01902507563616
C            1.48483492041665       -2.17026574194549        0.02322647360621
C            2.85621647857157       -2.14295361118005        0.01546592284631
C            3.53398183199692       -0.91522005400071        0.01202940517961
N            4.95704102781129       -0.89029067818060        0.01404063878306
C            5.62705966534373       -1.13939237907725        1.19855099444859
C            4.89673952330332       -1.37691220295526        2.36958076623900
C            5.53483055537847       -1.65148123989314        3.55971372427242
C            6.91844417616855       -1.68839607915269        3.60737256815684
C            7.64312288686009       -1.43085902879014        2.45803622346810
C            7.02748021989571       -1.14961145388591        1.24581609419609
C            7.87749901371277       -0.84978273045546        0.02733772834738
C            8.74439420577685        0.38773165113421        0.32997301361833
C            8.77346777359873       -2.06794962584150       -0.26863974864462
C            7.02993182199074       -0.56658657759507       -1.19705206608368
C            7.64963717265058       -0.27083456490605       -2.40382633666682
C            6.92960698725540       -0.02794408074509       -3.55910455620879
C            5.54666177350426       -0.09318056603972       -3.52277738950813
C            4.90456663984741       -0.38351092824576       -2.33863325402088
C            5.62955321152558       -0.60883071897470       -1.16201710337500
C            2.81787714354892        0.25783470700337        0.00419610020750
C            1.41502705822516        0.24339011945359       -0.00225114666954
C            0.71022327727709        1.48815012163902       -0.04468188056821
N            1.37037736978644        2.63998949383644       -0.06909504856492
C            0.71916271362685        3.80851582569069       -0.12916565866879
C            1.39265641628861        5.02954990737233       -0.15864033940093
C            0.69268485056250        6.22112616484482       -0.22036349985722
C           -0.69500256938051        6.21975538126791       -0.25495784571227
C           -1.39480178658516        5.02683553023487       -0.22735758193268
C           -0.72115316313653        3.80707043073700       -0.16536731355823
N           -1.37228415262306        2.63733003743793       -0.13708262043523
C           -0.71199927900592        1.48694642376682       -0.07479311570596
C           -1.41653767966029        0.24225289909789       -0.02737545926901
C           -2.81941900841096        0.25619275460750       -0.02598108396745
C           -5.62359053082681       -0.57315284342531        1.21690336316743
C           -4.89087354363362       -0.31380036575777        2.38161139402458
C           -5.52558451438201        0.00817732320109        3.56154690444048
C           -6.90837324024766        0.07318474418363        3.60491825348220
C           -7.63575586564081       -0.19938268246933        2.46082698034118
C           -7.02366237702572       -0.52756701251908        1.25860057545852
H           -8.16138542215749       -2.91276212516207        0.61641061072354
H           -9.41386109799577       -1.83222488258015        1.22921947812545
H           -9.41061593233891       -2.29964657817453       -0.46831426292758
H           -9.36574777732522        0.66616524752387        0.56310017706737
H           -8.10407848388629        1.23934037352838       -0.52888559151272
H           -9.39030691611867        0.19421779359150       -1.13303034334529
H           -8.73480246754467       -1.49602123369350       -2.42219919734892
H           -7.45401262909298       -2.01278170635895       -4.43351111299145
H           -4.97431186955483       -1.95984687729854       -4.35965417980055
H           -3.83162878895582       -1.41726135625108       -2.26770707010158
H           -3.42606091168359       -3.05657257145018        0.16885713361749
H           -0.99387642926482       -3.12562273261997        0.15724325864366
H            0.99361968467899       -3.12952917614176        0.02327009551342
H            3.42552778555137       -3.06038309106718        0.01357532264207
H            3.81903327332951       -1.33858983197256        2.34057726837248
H            4.95043924159063       -1.83411098607875        4.44929098512592
H            7.42939275009655       -1.90656928548285        4.53293352796583
H            8.72065480793960       -1.44934021567685        2.51373438644825
H            9.37278137424344        0.63757160078173       -0.52000026745284
H            9.38632902594895        0.20927703159936        1.18780382242090
H            8.10681121237107        1.24245498620155        0.54956388211981
H            8.15695686387251       -2.93631323681291       -0.49461037771678
H            9.41874945476669       -1.87451988527891       -1.12065421578754
H            9.39980884074335       -2.30434019830406        0.58667503549541
H            8.72693629777986       -0.22844624988044       -2.45023316221008
H            7.44344607607462        0.20269110740334       -4.48003623860504
H            4.96559315706846        0.08105305637887       -4.41625004617061
H            3.82733361555402       -0.43775078135657       -2.31804811080979
H            3.32094466943015        1.21285765124860       -0.00515758334822
H            2.47197720324982        5.01679962038990       -0.13306502627803
H            1.23259029668639        7.15610837184205       -0.24198653958015
H           -1.23500792560640        7.15369213769860       -0.30303753397245
H           -2.47412468951986        5.01210202687692       -0.25172288065043
H           -3.32303092565670        1.20981261248122       -0.07265331109676
H           -3.81366785351519       -0.36692337152912        2.35439981900484
H           -4.93906695196541        0.20753401532979        4.44615691782360
H           -7.41649002216819        0.32756010026798        4.52278433911333
H           -8.71271813395892       -0.15454591871185        2.51262419550273

          :  Hamiltonian                  GFN2-xTB          :
         :: gradient norm              0.000032449575 Eh/a0 ::
         :: HOMO-LUMO gap              0.899949655520 eV    ::
         :: SCC energy              -140.754811361803 Eh    ::
         :: -> dispersion             -0.132621973752 Eh    ::
         :: -> Gsolv                  -0.057180934099 Eh    ::
         :: repulsion energy           2.498631450449 Eh    ::

    * Orbital Energies and Occupations

         #    Occupation            Energy/Eh            Energy/eV
      -------------------------------------------------------------
         1        2.0000           -0.6737344             -18.3332
       ...           ...                  ...                  ...
       118        2.0000           -0.4088748             -11.1260
       119        2.0000           -0.4087271             -11.1220
       120        2.0000           -0.4032407             -10.9727
       121        2.0000           -0.4031684             -10.9708
       122        2.0000           -0.3978420             -10.8258
       123        2.0000           -0.3975922             -10.8190
       124        2.0000           -0.3957701             -10.7695
       125        2.0000           -0.3917159             -10.6591
       126        2.0000           -0.3826559             -10.4126
       127        1.9341           -0.3532008              -9.6111
       128        1.8729           -0.3525127              -9.5924
       129        1.1930           -0.3493233              -9.5056
       130        1.0000           -0.2988443              -8.1320 (HOMO)
       131                         -0.2657719              -7.2320 (LUMO)
       132                         -0.2581752              -7.0253
       133                         -0.2304936              -6.2721
       134                         -0.2304678              -6.2713
       135                         -0.2241978              -6.1007
       136                         -0.2241557              -6.0996
       137                         -0.2237548              -6.0887
       138                         -0.2232828              -6.0758
       139                         -0.2203696              -5.9966
       140                         -0.2115783              -5.7573
       141                         -0.2041356              -5.5548
       ...                                ...                  ...
       254                          0.7093625              19.3027
      -------------------------------------------------------------
                  HL-Gap            0.0330724 Eh            0.8999 eV

     #   Z          covCN         q      C6AA      α(0)
     1   6 C        3.761    -0.105    22.558     6.771
     2   6 C        3.909     0.022    20.144     6.379
     3   6 C        3.761    -0.105    22.552     6.770
     4   6 C        2.979    -0.009    28.237     8.716
     5   6 C        2.927    -0.036    28.891     8.815
     6   6 C        2.917    -0.041    29.006     8.832
     7   6 C        2.919    -0.032    28.800     8.800
     8   6 C        2.923    -0.055    29.355     8.885
     9   6 C        2.929     0.060    26.652     8.466
    10   7 N        2.754    -0.051    22.233     7.003
    11   6 C        2.925     0.060    26.647     8.465
    12   6 C        2.917    -0.044    29.099     8.846
    13   6 C        2.920    -0.035    28.867     8.811
    14   6 C        2.976    -0.005    28.132     8.700
    15   6 C        2.976    -0.005    28.133     8.700
    16   6 C        2.920    -0.035    28.868     8.811
    17   6 C        2.917    -0.044    29.099     8.846
    18   6 C        2.924     0.060    26.648     8.465
    19   7 N        2.754    -0.051    22.230     7.003
    20   6 C        2.928     0.060    26.653     8.467
    21   6 C        2.923    -0.055    29.356     8.885
    22   6 C        2.919    -0.032    28.801     8.800
    23   6 C        2.917    -0.040    29.006     8.832
    24   6 C        2.927    -0.036    28.891     8.815
    25   6 C        2.979    -0.009    28.236     8.716
    26   6 C        3.909     0.022    20.144     6.379
    27   6 C        3.761    -0.105    22.552     6.770
    28   6 C        3.761    -0.105    22.559     6.771
    29   6 C        2.979    -0.009    28.237     8.717
    30   6 C        2.927    -0.036    28.893     8.815
    31   6 C        2.917    -0.040    29.006     8.832
    32   6 C        2.919    -0.032    28.798     8.800
    33   6 C        2.923    -0.054    29.347     8.884
    34   6 C        2.927     0.060    26.652     8.466
    35   6 C        2.925    -0.039    28.966     8.826
    36   6 C        2.986    -0.010    28.270     8.722
    37   6 C        2.942     0.081    26.199     8.395
    38   7 N        1.848    -0.262    27.653     7.794
    39   6 C        2.942     0.086    26.084     8.376
    40   6 C        2.918    -0.061    29.528     8.911
    41   6 C        2.916    -0.039    28.981     8.828
    42   6 C        2.916    -0.039    28.981     8.828
    43   6 C        2.918    -0.061    29.528     8.911
    44   6 C        2.942     0.086    26.084     8.376
    45   7 N        1.848    -0.262    27.654     7.794
    46   6 C        2.942     0.081    26.199     8.395
    47   6 C        2.986    -0.010    28.269     8.722
    48   6 C        2.925    -0.039    28.964     8.826
    49   6 C        2.928     0.060    26.651     8.466
    50   6 C        2.923    -0.054    29.348     8.884
    51   6 C        2.919    -0.032    28.798     8.800
    52   6 C        2.917    -0.041    29.007     8.832
    53   6 C        2.927    -0.036    28.892     8.815
    54   6 C        2.979    -0.009    28.238     8.717
    55   1 H        0.925     0.033     2.543     2.494
    56   1 H        0.925     0.046     2.373     2.409
    57   1 H        0.925     0.046     2.371     2.408
    58   1 H        0.925     0.046     2.375     2.410
    59   1 H        0.925     0.032     2.559     2.502
    60   1 H        0.925     0.046     2.373     2.409
    61   1 H        0.926     0.040     2.450     2.448
    62   1 H        0.926     0.033     2.541     2.493
    63   1 H        0.926     0.033     2.550     2.497
    64   1 H        0.926     0.030     2.583     2.513
    65   1 H        0.926     0.044     2.393     2.419
    66   1 H        0.926     0.048     2.342     2.393
    67   1 H        0.926     0.048     2.342     2.393
    68   1 H        0.926     0.044     2.393     2.419
    69   1 H        0.926     0.031     2.579     2.511
    70   1 H        0.926     0.033     2.549     2.497
    71   1 H        0.926     0.033     2.541     2.493
    72   1 H        0.926     0.040     2.450     2.448
    73   1 H        0.925     0.046     2.375     2.410
    74   1 H        0.925     0.046     2.372     2.409
    75   1 H        0.925     0.032     2.559     2.502
    76   1 H        0.925     0.033     2.543     2.494
    77   1 H        0.925     0.046     2.373     2.409
    78   1 H        0.925     0.046     2.371     2.408
    79   1 H        0.926     0.040     2.447     2.446
    80   1 H        0.926     0.033     2.542     2.493
    81   1 H        0.926     0.032     2.563     2.503
    82   1 H        0.926     0.029     2.600     2.522
    83   1 H        0.926     0.050     2.315     2.379
    84   1 H        0.926     0.037     2.485     2.465
    85   1 H        0.926     0.033     2.548     2.496
    86   1 H        0.926     0.033     2.548     2.496
    87   1 H        0.926     0.037     2.485     2.465
    88   1 H        0.926     0.050     2.316     2.380
    89   1 H        0.926     0.029     2.602     2.522
    90   1 H        0.926     0.032     2.562     2.503
    91   1 H        0.926     0.033     2.542     2.493
    92   1 H        0.926     0.040     2.448     2.447

molecular dipole:
                 x           y           z       tot (Debye)
 q only:        0.004      -2.047       0.080
   full:        0.004      -1.905       0.074       4.845

 projected vibrational frequencies (cm⁻¹)
eigval :       -0.00    -0.00    -0.00     0.00     0.00     0.00
eigval :        9.21    11.14    13.51    19.17    22.82    28.38
eigval :       38.16    42.52    45.93    61.95    83.80    91.19
eigval :       94.16    95.16    99.20   100.22   110.18   115.00
eigval :      135.17   138.23   141.83   156.34   173.70   185.73
eigval :      203.45   205.09   206.89   221.41   222.35   232.36
eigval :      238.29   242.71   248.40   282.52   287.35   301.28
eigval :      303.45   311.55   324.58   329.58   329.93   334.11
eigval :      342.88   347.62   364.95   367.08   369.87   373.43
eigval :      378.56   383.87   409.43   412.10   421.13   436.32
eigval :      437.80   448.33   452.35   452.68   460.63   486.56
eigval :      499.82   505.06   510.89   511.43   511.59   525.99
eigval :      538.97   543.67   544.09   546.23   546.50   555.02
eigval :      564.33   578.66   584.45   585.15   598.66   601.54
eigval :      613.15   628.02   651.58   651.86   664.61   674.44
eigval :      684.71   685.53   685.78   689.13   697.17   697.48
eigval :      703.66   708.07   720.35   748.22   755.63   774.40
eigval :      774.57   776.30   778.35   782.56   808.27   814.72
eigval :      821.46   825.41   825.83   832.30   850.86   867.08
eigval :      867.50   868.10   868.98   873.24   879.54   884.18
eigval :      894.68   899.65   900.76   907.53   913.26   913.75
eigval :      914.15   914.93   915.10   915.26   921.18   921.42
eigval :      921.72   923.46   937.15   937.79   955.79   957.49
eigval :      976.52   990.90  1012.78  1013.39  1023.07  1061.61
eigval :     1072.11  1075.30  1075.58  1083.80  1086.54  1109.11
eigval :     1109.85  1115.55  1116.09  1128.50  1138.49  1138.51
eigval :     1152.69  1153.62  1154.17  1154.52  1162.81  1165.72
eigval :     1171.78  1183.05  1184.45  1185.16  1185.34  1186.90
eigval :     1192.08  1216.64  1222.87  1232.45  1233.27  1244.48
eigval :     1245.81  1246.74  1250.04  1254.24  1262.23  1263.29
eigval :     1278.72  1288.51  1292.90  1293.11  1296.79  1308.36
eigval :     1311.76  1318.32  1319.14  1321.84  1323.57  1329.51
eigval :     1329.90  1332.71  1333.09  1347.92  1359.83  1387.30
eigval :     1396.97  1398.22  1406.70  1410.17  1415.31  1416.56
eigval :     1430.52  1430.80  1430.89  1432.06  1438.49  1455.00
eigval :     1461.02  1463.12  1463.39  1478.90  1482.88  1484.44
eigval :     1485.16  1485.54  1485.61  1486.30  1494.59  1495.32
eigval :     1499.75  1500.36  1514.02  1527.49  1533.84  1550.57
eigval :     1561.01  1563.32  1563.60  1574.73  1578.46  1582.32
eigval :     1583.38  1583.42  1593.89  1594.42  3023.24  3024.06
eigval :     3026.24  3026.55  3042.67  3043.07  3044.86  3045.23
eigval :     3050.42  3050.84  3054.20  3054.64  3073.48  3076.28
eigval :     3076.87  3077.32  3077.56  3077.88  3083.49  3084.55
eigval :     3084.69  3084.84  3084.89  3086.81  3088.08  3092.54
eigval :     3094.46  3094.72  3094.93  3095.14  3099.28  3099.53
eigval :     3102.55  3103.15  3103.26  3103.82  3105.40  3113.74

   temp. (K)  partition function   enthalpy   heat capacity  entropy
                                   cal/mol     cal/K/mol   cal/K/mol   J/K/mol
 298.15  VIB  0.474E+20            25968.934    166.613    159.521
         ROT  0.126E+09              888.752      2.981     40.049
         INT  0.598E+28            26857.687    169.594    199.570
         TR   0.177E+29             1481.254      4.968     45.476
         TOT                       28338.9407   174.5624   245.0458  1025.2717

       T/K    H(0)-H(T)+PV         H(T)/Eh          T*S/Eh         G(T)/Eh
   ------------------------------------------------------------------------
    298.15    0.451610E-01    0.766467E+00    0.116429E+00    0.650038E+00
   ------------------------------------------------------------------------

         :::::::::::::::::::::::::::::::::::::::::::::::::::::
         ::                  THERMODYNAMIC                  ::
         :::::::::::::::::::::::::::::::::::::::::::::::::::::
         :: total free energy        -137.606141755895 Eh   ::
         ::.................................................::
         :: total energy             -138.256179910138 Eh   ::
         :: zero point energy           0.721306349024 Eh   ::
         :: G(RRHO) w/o ZPVE           -0.071268194781 Eh   ::
         :: G(RRHO) contrib.            0.650038154243 Eh   ::
         :::::::::::::::::::::::::::::::::::::::::::::::::::::

           -------------------------------------------------
          | TOTAL ENERGY             -138.256179910138 Eh   |
          | TOTAL ENTHALPY           -137.489712584558 Eh   |
          | TOTAL FREE ENERGY        -137.606141755895 Eh   |
          | GRADIENT NORM               0.000032602334 Eh/α |
          | HOMO-LUMO GAP               0.899946429794 eV   |
           -------------------------------------------------

 * finished run on 2025/09/12 at 08:20:13.468
