   * xtb version 6.7.1 (edcfbbe) compiled by 'albert@albert-system' on 2024-07-22

   ID    Z sym.   atoms
    1    6 C      1-9, 11-18, 20-37, 39-44, 46-54
    2    7 N      10, 19, 38, 45
    3    1 H      55-92

          program call               : xtb data2507/toluene/AcDbp/AcDbp_toluene_S0_crest.xyz --gfn 2 --gbsa toluene --ohess vtight --parallel 40 --molden --ceasefiles --namespace data2507/toluene/AcDbp/AcDbp_toluene_S0_finalOpt
      * Solvation model:               GBSA
        Solvent                        toluene
        Solvent mass                       9.2140E+01 g/mol
          :  Hamiltonian                  GFN2-xTB          :
 * total energy  :  -138.3023417 Eh     change       -0.3500190E-08 Eh
 * total energy  :  -138.3023784 Eh     change       -0.3664180E-04 Eh
 * total energy  :  -138.3023888 Eh     change       -0.1043354E-04 Eh
 * total energy  :  -138.3023936 Eh     change       -0.4821067E-05 Eh
 * total energy  :  -138.3023990 Eh     change       -0.5422764E-05 Eh
 * total energy  :  -138.3024012 Eh     change       -0.2147716E-05 Eh
 * total energy  :  -138.3024046 Eh     change       -0.3415308E-05 Eh
 * total energy  :  -138.3024082 Eh     change       -0.3581981E-05 Eh
 * total energy  :  -138.3024118 Eh     change       -0.3656776E-05 Eh
 * total energy  :  -138.3024157 Eh     change       -0.3835338E-05 Eh
 * total energy  :  -138.3024420 Eh     change       -0.2195342E-06 Eh
 * total energy  :  -138.3024422 Eh     change       -0.1918260E-06 Eh
 * total energy  :  -138.3024424 Eh     change       -0.1918065E-06 Eh
 * total energy  :  -138.3024426 Eh     change       -0.2277966E-06 Eh
 * total energy  :  -138.3024428 Eh     change       -0.1895666E-06 Eh
 * total energy  :  -138.3024430 Eh     change       -0.2515547E-06 Eh
 * total energy  :  -138.3024434 Eh     change       -0.3097594E-06 Eh
 * total energy  :  -138.3024436 Eh     change       -0.2688548E-06 Eh
 * total energy  :  -138.3024436 Eh     change       -0.5591005E-08 Eh
   *** GEOMETRY OPTIMIZATION CONVERGED AFTER 44 ITERATIONS ***

 final structure:
================
92
 xtb: 6.7.1 (edcfbbe)
C           -8.74467189541906       -2.11373584013287        0.42002905089419
C           -7.88981551527211       -0.88941050183073        0.04176455043630
C           -8.79632877723302        0.30100315676711       -0.32450716161713
C           -7.04108874512731       -1.24018322466279       -1.16598912517160
C           -7.66128930336976       -1.60419842913298       -2.35373812981538
C           -6.94327943918101       -1.91056021589934       -3.49523233911372
C           -5.56216047273673       -1.83923791691848       -3.46313786549531
C           -4.92017930287197       -1.48300857685034       -2.29550297854173
C           -5.64309364949083       -1.19646365234710       -1.13323804676539
N           -4.96717607110290       -0.85278414664536        0.02845304274240
C           -3.54730074227416       -0.87093832207186        0.02785061325988
C           -2.86304734862081       -2.08738975233538        0.07879033386171
C           -1.48717514747446       -2.11301839142642        0.07822107866786
C           -0.73026082963770       -0.93472631071137        0.03024012322943
C            0.72483722265818       -0.93842262924083        0.02723928847729
C            1.47627099663523       -2.12090673563345        0.05325241012125
C            2.85225038208537       -2.10185341356947        0.05048872001132
C            3.54261753228973       -0.88791862618641        0.02775261284783
N            4.96191523250541       -0.87513039924985        0.02632476641995
C            5.63809782977300       -1.17582185319221        1.20016684082684
C            4.91577243934085       -1.42790046419999        2.37077200758196
C            5.55833093032753       -1.74403482753912        3.54958513691051
C            6.93970142436139       -1.80775964541083        3.58513144445150
C            7.65722419753963       -1.53211522974552        2.43557935158957
C            7.03630558580964       -1.20912520868912        1.23639817268739
C            7.88519660583649       -0.88483708871528        0.02147374874387
C            8.77387515221486        0.32820339026762        0.35594150178902
C            8.75836280464584       -2.10781941423484       -0.31722927730708
C            7.03389656459910       -0.54933588579097       -1.18894652230191
C            7.65405228392814       -0.22928414525286       -2.38936970660854
C            6.93574645613836        0.05925009909017       -3.53514615858315
C            5.55382179857947        0.01519807370154       -3.49344448449431
C            4.91195163629800       -0.29853533903782       -2.31366616082247
C            5.63536402822745       -0.56737197691448       -1.14756674439408
C            2.82741436079421        0.29269558276925        0.00161731973839
C            1.43139525318961        0.28096760972083       -0.00553173236194
C            0.71708028599027        1.53888764129715       -0.04948009746126
N            1.40456446139363        2.66496012371607       -0.09186892950366
C            0.72307373562676        3.81951492149277       -0.13437763059633
C            1.41817335430237        5.04750537237836       -0.18244601320213
C            0.72001613432917        6.22047844782827       -0.22067076690276
C           -0.68894448595326        6.22440685456572       -0.21264856909006
C           -1.39323511391559        5.05528982768283       -0.16867892306628
C           -0.70461022575729        3.82331848088464       -0.13007175357483
N           -1.39205958917823        2.67213772575335       -0.09120973618614
C           -0.71037095950132        1.54234349487618       -0.05379192238767
C           -1.43087758074798        0.28779678597180       -0.01319678439000
C           -2.82696144346837        0.30573218699978       -0.01848714856582
C           -5.64003343835128       -0.50800412024849        1.19195605985935
C           -4.91559095297231       -0.18380325565944        2.34318355572957
C           -5.55702298959153        0.16277035027080        3.51399062663866
C           -6.93927300482687        0.18597958362050        3.56112967127114
C           -7.65817508067904       -0.15196852014021        2.42926577721971
C           -7.03861062936883       -0.50525852955931        1.23788447675389
H           -8.09858602629856       -2.94986175375998        0.68255772914790
H           -9.38243160965404       -1.89319303574676        1.27147435432983
H           -9.37711244558075       -2.41593994108902       -0.41010257724174
H           -9.43440814907117        0.57392237182782        0.51137272319979
H           -8.18645656623954        1.16385544113942       -0.58750798783894
H           -9.43141066653776        0.05907519818475       -1.17210965952986
H           -8.73895014900324       -1.65110844513228       -2.39615163816703
H           -7.45838113810313       -2.19249937475872       -4.40134515289119
H           -4.98038260574586       -2.05809593176690       -4.34670356267343
H           -3.84293315363414       -1.41813391202045       -2.28330302260297
H           -3.42608505678659       -3.00819746804462        0.11662854783483
H           -0.99686490280464       -3.07129827077356        0.12143731675969
H            0.98156220781056       -3.07777534172111        0.06927219801534
H            3.41070920310606       -3.02607737928245        0.06817463104238
H            3.83835598774613       -1.36760918458549        2.35661506089362
H            4.97666586023879       -1.93737031958302        4.43914384807612
H            7.45528591129483       -2.05855110265788        4.50007811969226
H            8.73511070090887       -1.56978114910888        2.48083202581839
H            9.40479655437638        0.59129365411798       -0.48849030599137
H            9.41525530690061        0.11631167731740        1.20685399893437
H            8.15134132175368        1.18731437321278        0.60077695945374
H            8.12538567302838       -2.95896101682207       -0.56291338035783
H            9.40053726310181       -1.90167433163433       -1.16893462977110
H            9.38768509910982       -2.38005822222302        0.52551845114667
H            8.73212468619204       -0.20508542106833       -2.43873525575023
H            7.45075206258861        0.30661288782904       -4.45135778704245
H            4.97065251475670        0.22244934969412       -4.37892120087242
H            3.83373521774334       -0.33908314889237       -2.29512305867723
H            3.33309416174673        1.24559897645235       -0.02002976434165
H            2.49713001552199        5.02217192894274       -0.18700550206330
H            1.24668322281818        7.16250462915735       -0.25715947156870
H           -1.21069231282099        7.16940443462786       -0.24227262889621
H           -2.47230570920927        5.03605163651275       -0.16224208295556
H           -3.32832578543669        1.26046935887864       -0.05494333923971
H           -3.83693369506110       -0.20573820482256        2.31956786587919
H           -4.97331008137056        0.41182199051100        4.38827312282252
H           -7.45404465356182        0.45734433715257        4.47065553329388
H           -8.73627582911822       -0.14089816714231        2.48273605076946

          :  Hamiltonian                  GFN2-xTB          :
         :: gradient norm              0.000051856752 Eh/a0 ::
         :: HOMO-LUMO gap              0.956552950339 eV    ::
         :: SCC energy              -140.800314169016 Eh    ::
         :: -> dispersion             -0.132779563105 Eh    ::
         :: -> Gsolv                  -0.055122198940 Eh    ::
         :: repulsion energy           2.497870543072 Eh    ::

    * Orbital Energies and Occupations

         #    Occupation            Energy/Eh            Energy/eV
      -------------------------------------------------------------
         1        2.0000           -0.6829404             -18.5838
       ...           ...                  ...                  ...
       117        2.0000           -0.4067482             -11.0682
       118        2.0000           -0.4056926             -11.0395
       119        2.0000           -0.4035068             -10.9800
       120        2.0000           -0.4023704             -10.9491
       121        2.0000           -0.4015524             -10.9268
       122        2.0000           -0.3968779             -10.7996
       123        2.0000           -0.3967666             -10.7966
       124        2.0000           -0.3963504             -10.7852
       125        2.0000           -0.3915207             -10.6538
       126        2.0000           -0.3914045             -10.6507
       127        2.0000           -0.3599432              -9.7946
       128        2.0000           -0.3460590              -9.4167
       129        2.0000           -0.3454080              -9.3990 (HOMO)
       130                         -0.3102553              -8.4425 (LUMO)
       131                         -0.2756813              -7.5017
       132                         -0.2657954              -7.2327
       133                         -0.2329728              -6.3395
       134                         -0.2255729              -6.1382
       135                         -0.2233924              -6.0788
       136                         -0.2232713              -6.0755
       137                         -0.2184983              -5.9456
       138                         -0.2182387              -5.9386
       139                         -0.2173016              -5.9131
       140                         -0.2171507              -5.9090
       ...                                ...                  ...
       254                          0.7057745              19.2051
      -------------------------------------------------------------
                  HL-Gap            0.0351527 Eh            0.9566 eV

     #   Z          covCN         q      C6AA      α(0)
     1   6 C        3.761    -0.103    22.523     6.765
     2   6 C        3.909     0.021    20.166     6.383
     3   6 C        3.761    -0.104    22.526     6.766
     4   6 C        2.979    -0.014    28.352     8.734
     5   6 C        2.928    -0.038    28.935     8.822
     6   6 C        2.917    -0.046    29.153     8.854
     7   6 C        2.919    -0.035    28.870     8.811
     8   6 C        2.924    -0.060    29.490     8.906
     9   6 C        2.927     0.059    26.688     8.472
    10   7 N        2.754    -0.073    22.658     7.070
    11   6 C        2.924     0.072    26.396     8.425
    12   6 C        2.919    -0.036    28.906     8.817
    13   6 C        2.921    -0.033    28.828     8.805
    14   6 C        2.976     0.005    27.916     8.667
    15   6 C        2.976     0.004    27.920     8.667
    16   6 C        2.921    -0.033    28.830     8.805
    17   6 C        2.919    -0.037    28.910     8.817
    18   6 C        2.924     0.072    26.398     8.426
    19   7 N        2.753    -0.073    22.649     7.068
    20   6 C        2.927     0.058    26.690     8.472
    21   6 C        2.924    -0.060    29.491     8.906
    22   6 C        2.919    -0.035    28.870     8.811
    23   6 C        2.917    -0.046    29.151     8.854
    24   6 C        2.928    -0.038    28.935     8.821
    25   6 C        2.979    -0.014    28.350     8.734
    26   6 C        3.909     0.021    20.166     6.383
    27   6 C        3.761    -0.104    22.525     6.766
    28   6 C        3.761    -0.104    22.525     6.766
    29   6 C        2.979    -0.014    28.350     8.734
    30   6 C        2.928    -0.038    28.936     8.822
    31   6 C        2.917    -0.046    29.150     8.854
    32   6 C        2.919    -0.035    28.866     8.811
    33   6 C        2.924    -0.060    29.480     8.904
    34   6 C        2.927     0.059    26.686     8.472
    35   6 C        2.926    -0.038    28.935     8.821
    36   6 C        2.987    -0.005    28.136     8.701
    37   6 C        2.960     0.086    26.091     8.378
    38   7 N        1.848    -0.258    27.554     7.780
    39   6 C        2.966     0.083    26.138     8.386
    40   6 C        2.916    -0.043    29.056     8.839
    41   6 C        2.916    -0.026    28.641     8.776
    42   6 C        2.916    -0.026    28.641     8.776
    43   6 C        2.916    -0.043    29.056     8.839
    44   6 C        2.966     0.083    26.138     8.386
    45   7 N        1.848    -0.258    27.555     7.780
    46   6 C        2.960     0.086    26.091     8.378
    47   6 C        2.987    -0.005    28.136     8.701
    48   6 C        2.926    -0.037    28.932     8.821
    49   6 C        2.927     0.059    26.684     8.471
    50   6 C        2.924    -0.060    29.483     8.904
    51   6 C        2.919    -0.035    28.867     8.811
    52   6 C        2.917    -0.046    29.152     8.854
    53   6 C        2.928    -0.038    28.936     8.822
    54   6 C        2.979    -0.014    28.353     8.734
    55   1 H        0.925     0.030     2.584     2.514
    56   1 H        0.925     0.042     2.428     2.436
    57   1 H        0.925     0.042     2.425     2.435
    58   1 H        0.925     0.042     2.426     2.436
    59   1 H        0.925     0.030     2.588     2.516
    60   1 H        0.925     0.042     2.427     2.436
    61   1 H        0.926     0.033     2.547     2.496
    62   1 H        0.926     0.026     2.648     2.545
    63   1 H        0.926     0.026     2.641     2.541
    64   1 H        0.926     0.023     2.695     2.567
    65   1 H        0.926     0.052     2.295     2.369
    66   1 H        0.926     0.056     2.247     2.344
    67   1 H        0.926     0.056     2.248     2.345
    68   1 H        0.926     0.052     2.293     2.368
    69   1 H        0.926     0.023     2.689     2.564
    70   1 H        0.926     0.026     2.638     2.540
    71   1 H        0.926     0.026     2.647     2.544
    72   1 H        0.926     0.033     2.546     2.495
    73   1 H        0.925     0.042     2.426     2.436
    74   1 H        0.925     0.042     2.426     2.436
    75   1 H        0.925     0.030     2.588     2.516
    76   1 H        0.925     0.030     2.584     2.514
    77   1 H        0.925     0.042     2.427     2.436
    78   1 H        0.925     0.042     2.425     2.435
    79   1 H        0.926     0.033     2.543     2.494
    80   1 H        0.926     0.026     2.646     2.544
    81   1 H        0.926     0.026     2.650     2.546
    82   1 H        0.926     0.022     2.703     2.571
    83   1 H        0.926     0.063     2.160     2.298
    84   1 H        0.926     0.055     2.262     2.352
    85   1 H        0.926     0.053     2.287     2.365
    86   1 H        0.926     0.053     2.287     2.365
    87   1 H        0.926     0.055     2.262     2.352
    88   1 H        0.926     0.063     2.159     2.298
    89   1 H        0.926     0.022     2.705     2.572
    90   1 H        0.926     0.025     2.651     2.546
    91   1 H        0.926     0.026     2.648     2.545
    92   1 H        0.926     0.033     2.544     2.494

molecular dipole:
                 x           y           z       tot (Debye)
 q only:        0.024      -0.266       0.008
   full:        0.024      -0.191       0.006       0.489

 projected vibrational frequencies (cm⁻¹)
eigval :       -0.00    -0.00    -0.00     0.00     0.00     0.00
eigval :        3.41    11.37    14.58    17.39    21.97    25.82
eigval :       31.04    40.30    45.00    59.71    82.75    86.11
eigval :       89.26    92.60   100.35   101.34   106.78   115.11
eigval :      135.40   137.69   155.10   156.95   173.49   186.57
eigval :      195.71   204.53   212.49   219.85   222.72   233.06
eigval :      238.45   242.83   260.86   284.82   295.12   302.49
eigval :      304.96   311.58   322.67   331.17   331.82   333.81
eigval :      344.07   347.66   367.10   369.11   369.83   371.02
eigval :      378.89   384.66   409.60   411.84   421.92   435.95
eigval :      437.56   448.24   451.70   452.88   454.75   485.15
eigval :      490.42   496.51   515.46   515.74   516.11   536.02
eigval :      544.94   546.16   547.69   547.79   548.57   557.45
eigval :      566.25   586.11   586.52   594.31   599.23   613.82
eigval :      617.81   633.84   651.77   654.93   682.67   683.34
eigval :      684.26   691.11   692.32   693.59   694.19   706.03
eigval :      715.06   733.97   755.52   767.55   769.99   776.16
eigval :      777.28   778.42   778.59   788.48   815.12   819.55
eigval :      826.49   827.28   834.22   860.85   861.90   864.91
eigval :      865.85   866.66   875.91   885.23   890.31   912.56
eigval :      912.67   913.35   913.63   914.10   914.46   914.98
eigval :      916.80   917.03   919.67   921.33   921.99   922.24
eigval :      922.26   929.77   937.51   938.89   955.12   956.56
eigval :      977.85   996.73  1013.32  1013.47  1034.49  1053.23
eigval :     1063.57  1075.95  1075.99  1084.30  1086.87  1112.77
eigval :     1113.07  1119.04  1119.22  1139.14  1139.23  1140.80
eigval :     1153.20  1155.11  1158.23  1158.60  1163.37  1165.14
eigval :     1172.58  1184.47  1186.02  1186.92  1187.01  1188.03
eigval :     1193.26  1217.30  1221.08  1234.40  1240.63  1248.55
eigval :     1249.53  1249.84  1257.52  1263.63  1268.33  1269.24
eigval :     1284.80  1293.31  1293.78  1295.68  1306.05  1314.61
eigval :     1320.95  1324.02  1324.30  1332.85  1333.11  1336.18
eigval :     1336.77  1338.47  1343.32  1366.47  1396.92  1398.44
eigval :     1399.61  1416.41  1416.92  1417.76  1418.36  1433.89
eigval :     1435.48  1439.69  1439.72  1440.57  1468.09  1469.06
eigval :     1476.69  1477.05  1486.20  1487.21  1487.58  1489.79
eigval :     1491.63  1493.74  1496.02  1497.24  1497.30  1502.57
eigval :     1503.81  1504.37  1528.25  1545.89  1551.85  1573.54
eigval :     1573.69  1576.06  1587.72  1589.20  1590.53  1590.68
eigval :     1592.12  1600.58  1600.86  1604.95  3020.59  3021.59
eigval :     3023.30  3024.28  3038.34  3038.54  3040.47  3040.70
eigval :     3047.05  3047.31  3051.40  3051.63  3071.05  3071.36
eigval :     3071.46  3071.53  3079.08  3079.23  3079.30  3079.32
eigval :     3080.88  3087.05  3088.27  3089.08  3089.56  3089.71
eigval :     3089.92  3090.06  3095.96  3096.73  3097.14  3097.87
eigval :     3098.19  3100.40  3107.97  3108.19  3110.25  3119.22

   temp. (K)  partition function   enthalpy   heat capacity  entropy
                                   cal/mol     cal/K/mol   cal/K/mol   J/K/mol
 298.15  VIB  0.184E+21            25877.447    165.272    160.115
         ROT  0.127E+09              888.752      2.981     40.058
         INT  0.233E+29            26766.199    168.253    200.174
         TR   0.177E+29             1481.254      4.968     45.476
         TOT                       28247.4528   173.2210   245.6495  1027.7974

       T/K    H(0)-H(T)+PV         H(T)/Eh          T*S/Eh         G(T)/Eh
   ------------------------------------------------------------------------
    298.15    0.450152E-01    0.768821E+00    0.116716E+00    0.652105E+00
   ------------------------------------------------------------------------

         :::::::::::::::::::::::::::::::::::::::::::::::::::::
         ::                  THERMODYNAMIC                  ::
         :::::::::::::::::::::::::::::::::::::::::::::::::::::
         :: total free energy        -137.650338912254 Eh   ::
         ::.................................................::
         :: total energy             -138.302443625854 Eh   ::
         :: zero point energy           0.723805523024 Eh   ::
         :: G(RRHO) w/o ZPVE           -0.071700809423 Eh   ::
         :: G(RRHO) contrib.            0.652104713600 Eh   ::
         :::::::::::::::::::::::::::::::::::::::::::::::::::::

           -------------------------------------------------
          | TOTAL ENERGY             -138.302443625854 Eh   |
          | TOTAL ENTHALPY           -137.533622921486 Eh   |
          | TOTAL FREE ENERGY        -137.650338912254 Eh   |
          | GRADIENT NORM               0.000051852608 Eh/α |
          | HOMO-LUMO GAP               0.956552355128 eV   |
           -------------------------------------------------

 * finished run on 2025/09/12 at 08:20:01.247
