   * xtb version 6.7.1 (edcfbbe) compiled by 'albert@albert-system' on 2024-07-22

   ID    Z sym.   atoms
    1    8 O      1, 25
    2   15 P      2, 24
    3    6 C      3-18, 20-23, 26-41
    4    7 N      19
    5    1 H      42-68

          program call               : xtb data2507/toluene/poCz-SO/poCz-SO_toluene_S0_crest.xyz --gfn 2 --gbsa toluene --ohess vtight --parallel 40 --molden --ceasefiles --namespace data2507/toluene/poCz-SO/poCz-SO_toluene_S0_finalOpt
      * Solvation model:               GBSA
        Solvent                        toluene
        Solvent mass                       9.2140E+01 g/mol
          :  Hamiltonian                  GFN2-xTB          :
 * total energy  :  -107.1028525 Eh     change       -0.5090399E-08 Eh
 * total energy  :  -107.1030519 Eh     change       -0.1994607E-03 Eh
 * total energy  :  -107.1031857 Eh     change       -0.1337704E-03 Eh
 * total energy  :  -107.1032505 Eh     change       -0.6484186E-04 Eh
 * total energy  :  -107.1033404 Eh     change       -0.8982759E-04 Eh
 * total energy  :  -107.1034527 Eh     change       -0.1123692E-03 Eh
 * total energy  :  -107.1035390 Eh     change       -0.8621973E-04 Eh
 * total energy  :  -107.1036106 Eh     change       -0.7162988E-04 Eh
 * total energy  :  -107.1036316 Eh     change       -0.2103368E-04 Eh
 * total energy  :  -107.1036696 Eh     change       -0.3797768E-04 Eh
 * total energy  :  -107.1037963 Eh     change       -0.1009758E-05 Eh
 * total energy  :  -107.1037974 Eh     change       -0.1082515E-05 Eh
 * total energy  :  -107.1037977 Eh     change       -0.2460885E-06 Eh
 * total energy  :  -107.1037984 Eh     change       -0.7612071E-06 Eh
 * total energy  :  -107.1037988 Eh     change       -0.3129698E-06 Eh
 * total energy  :  -107.1037991 Eh     change       -0.3834383E-06 Eh
 * total energy  :  -107.1037997 Eh     change       -0.5190210E-06 Eh
 * total energy  :  -107.1038000 Eh     change       -0.3517493E-06 Eh
 * total energy  :  -107.1038001 Eh     change       -0.9610436E-07 Eh
   *** GEOMETRY OPTIMIZATION CONVERGED AFTER 74 ITERATIONS ***

 final structure:
================
68
 xtb: 6.7.1 (edcfbbe)
O           -5.41659530187228        0.13084969747075        1.54569402989428
P           -4.30523015684108        0.14837218994594        0.57423399795654
C           -3.47308741498624        1.76601837444787        0.46644010129394
C           -3.53089253653825        2.58182948126314        1.58838485031530
C           -2.89221148135066        3.80940950177779        1.58712954543483
C           -2.19702657886021        4.22344511636051        0.46203016846593
C           -2.14647431362144        3.41403983034744       -0.66227486239446
C           -2.78192305205243        2.18490494884782       -0.66366016752320
C           -4.83915170571085       -0.25224262625236       -1.12170978101392
C           -6.15189910922267        0.04415131092432       -1.46236573261107
C           -6.61480046621516       -0.22600691868842       -2.73796469976478
C           -5.76400824105933       -0.79240217779306       -3.67404119620744
C           -4.45451809479107       -1.09398751362599       -3.33346116876525
C           -3.98853263613027       -0.82538984627221       -2.05857795527918
C           -2.99276610843503       -1.05259018114996        0.96441868935949
C           -3.41789605414708       -2.29390519687368        1.44915917683423
C           -2.51933183115547       -3.29093287134995        1.76814082817658
C           -1.16817935237335       -3.01778658339198        1.59523715924150
N           -0.07540717088283       -3.80998445218398        1.83105262166654
C            1.06658697525414       -3.11450596671567        1.53263524368271
C            2.39652209578850       -3.50363244138484        1.62891566336867
C            3.35913587186837       -2.58406603230102        1.26585786351083
C            3.01670375467596       -1.30533649004545        0.81588853130236
P            4.39187281921642       -0.19927931739572        0.37134574810284
O            5.64499523070400       -0.51487597916313        1.08411624346842
C            3.78362364739911        1.48576291543321        0.71020686467031
C            2.98577017583161        2.19680153209076       -0.17723326726258
C            2.53800614573790        3.46065918061491        0.16502535880876
C            2.88361115832452        4.01519290205760        1.38738423493719
C            3.68681451112038        3.31011283098864        2.26961206695602
C            4.13545859783548        2.04586929530509        1.93088437332231
C            4.56572227933017       -0.30031520862686       -1.44132494955566
C            5.82186912796685       -0.02298272435493       -1.96448431639198
C            6.02853284824995       -0.06281252118848       -3.33178639887477
C            4.97787959272516       -0.38038660988962       -4.17817376520297
C            3.72505572568892       -0.66323428222731       -3.65714785205101
C            3.51481730435150       -0.62371970196980       -2.28973816760368
C            1.69163920922685       -0.91100838311992        0.71906485910863
C            0.70886120899913       -1.82055383184182        1.07776032695887
C           -0.72687497331161       -1.75978803312514        1.11513300422212
C           -1.64725366709339       -0.77341812785154        0.79347985005523
H           -4.08793675350560        2.24020937091888        2.45019940365642
H           -2.93752860414345        4.44187329995916        2.46166912210360
H           -1.69816512419195        5.18142714751626        0.45946473445336
H           -1.61235168736203        3.74204155371131       -1.54216924978717
H           -2.74976136661285        1.55286529514328       -1.53950008472678
H           -6.79838799071011        0.47597811431137       -0.71041793587658
H           -7.63695857033895        0.00354524448474       -3.00143116271412
H           -6.12408538072323       -1.00474098038159       -4.67000851267974
H           -3.79574105599006       -1.54156019454447       -4.06342019237982
H           -2.97170867727450       -1.06767736206634       -1.78254487235573
H           -4.48019266924404       -2.45022913428419        1.57778086087591
H           -2.85533666410265       -4.24650071899072        2.14123421057851
H           -0.10624275627302       -4.75181586288950        2.18628432560743
H            2.66919030974371       -4.48731052413457        1.98004974168666
H            4.40928316740372       -2.83123057230816        1.33477228605742
H            2.72884202585788        1.76571345143987       -1.13449184218748
H            1.92087327695247        4.01686387149953       -0.52506947762498
H            2.53177869814351        5.00195018163715        1.65015997891956
H            3.96303528605433        3.74431956696363        3.21940971240330
H            4.76997218291361        1.47827689119412        2.59803309273533
H            6.62794268219011        0.21160742762175       -1.28255052327860
H            7.00654998069023        0.15308040574605       -3.73649046416580
H            5.13743135496197       -0.41280445420141       -5.24598103289776
H            2.90941482021406       -0.91722627668435       -4.31848927902129
H            2.54200364139056       -0.85295336515938       -1.87859797505391
H            1.43177058675924        0.08322310846877        0.38794130180502
H           -1.32293956724415        0.18929483182863        0.42796732786786

          :  Hamiltonian                  GFN2-xTB          :
         :: gradient norm              0.000116783684 Eh/a0 ::
         :: HOMO-LUMO gap              3.315960048363 eV    ::
         :: SCC energy              -109.005801410412 Eh    ::
         :: -> dispersion             -0.095781521333 Eh    ::
         :: -> Gsolv                  -0.055966815267 Eh    ::
         :: repulsion energy           1.902001309228 Eh    ::

    * Orbital Energies and Occupations

         #    Occupation            Energy/Eh            Energy/eV
      -------------------------------------------------------------
         1        2.0000           -0.6966795             -18.9576
       ...           ...                  ...                  ...
        87        2.0000           -0.4220026             -11.4833
        88        2.0000           -0.4172998             -11.3553
        89        2.0000           -0.4163221             -11.3287
        90        2.0000           -0.4161595             -11.3243
        91        2.0000           -0.4159707             -11.3191
        92        2.0000           -0.4157353             -11.3127
        93        2.0000           -0.4149621             -11.2917
        94        2.0000           -0.4052959             -11.0287
        95        2.0000           -0.4044092             -11.0045
        96        2.0000           -0.4039947             -10.9933
        97        2.0000           -0.4037711             -10.9872
        98        2.0000           -0.3947277             -10.7411
        99        2.0000           -0.3837611             -10.4427 (HOMO)
       100                         -0.2619018              -7.1267 (LUMO)
       101                         -0.2534727              -6.8973
       102                         -0.2519431              -6.8557
       103                         -0.2507712              -6.8238
       104                         -0.2444288              -6.6512
       105                         -0.2395317              -6.5180
       106                         -0.2352336              -6.4010
       107                         -0.2348364              -6.3902
       108                         -0.2346236              -6.3844
       109                         -0.2342023              -6.3730
       110                         -0.2217240              -6.0334
       ...                                ...                  ...
       201                          1.1645177              31.6881
      -------------------------------------------------------------
                  HL-Gap            0.1218593 Eh            3.3160 eV

     #   Z          covCN         q      C6AA      α(0)
     1   8 O        0.808    -0.400    21.705     6.245
     2  15 P        4.077     0.047   158.166    22.592
     3   6 C        2.920     0.013    27.734     8.636
     4   6 C        3.024    -0.019    28.449     8.749
     5   6 C        2.919    -0.026    28.660     8.779
     6   6 C        2.920    -0.024    28.600     8.770
     7   6 C        2.919    -0.027    28.671     8.781
     8   6 C        2.973    -0.027    28.660     8.781
     9   6 C        2.920     0.012    27.748     8.638
    10   6 C        3.022    -0.019    28.454     8.750
    11   6 C        2.919    -0.026    28.661     8.779
    12   6 C        2.920    -0.024    28.603     8.770
    13   6 C        2.919    -0.027    28.670     8.780
    14   6 C        2.975    -0.026    28.641     8.779
    15   6 C        2.921     0.003    27.969     8.673
    16   6 C        3.033    -0.022    28.515     8.759
    17   6 C        2.908    -0.050    29.252     8.868
    18   6 C        3.071     0.059    26.609     8.458
    19   7 N        2.756    -0.102    23.242     7.160
    20   6 C        3.071     0.059    26.607     8.458
    21   6 C        2.908    -0.051    29.259     8.870
    22   6 C        3.028    -0.022    28.529     8.761
    23   6 C        2.921     0.003    27.967     8.672
    24  15 P        4.076     0.045   158.246    22.597
    25   8 O        0.808    -0.400    21.702     6.245
    26   6 C        2.920     0.012    27.746     8.638
    27   6 C        2.972    -0.027    28.661     8.781
    28   6 C        2.920    -0.027    28.675     8.781
    29   6 C        2.920    -0.024    28.606     8.771
    30   6 C        2.919    -0.026    28.664     8.780
    31   6 C        3.026    -0.019    28.456     8.750
    32   6 C        2.920     0.013    27.734     8.636
    33   6 C        3.027    -0.019    28.449     8.749
    34   6 C        2.918    -0.026    28.662     8.779
    35   6 C        2.920    -0.024    28.607     8.771
    36   6 C        2.919    -0.027    28.672     8.781
    37   6 C        2.971    -0.026    28.658     8.781
    38   6 C        2.973    -0.029    28.725     8.791
    39   6 C        3.071    -0.012    28.248     8.715
    40   6 C        3.071    -0.012    28.246     8.714
    41   6 C        2.969    -0.029    28.718     8.790
    42   1 H        0.925     0.045     2.377     2.411
    43   1 H        0.926     0.043     2.409     2.427
    44   1 H        0.926     0.047     2.364     2.404
    45   1 H        0.926     0.046     2.369     2.407
    46   1 H        0.926     0.046     2.372     2.408
    47   1 H        0.925     0.045     2.383     2.414
    48   1 H        0.926     0.043     2.408     2.427
    49   1 H        0.926     0.046     2.369     2.407
    50   1 H        0.926     0.046     2.372     2.408
    51   1 H        0.926     0.044     2.398     2.421
    52   1 H        0.925     0.047     2.354     2.399
    53   1 H        0.926     0.046     2.375     2.410
    54   1 H        0.860     0.172     1.262     1.760
    55   1 H        0.926     0.045     2.377     2.411
    56   1 H        0.926     0.050     2.318     2.381
    57   1 H        0.926     0.045     2.384     2.415
    58   1 H        0.926     0.046     2.367     2.406
    59   1 H        0.926     0.046     2.369     2.407
    60   1 H        0.926     0.043     2.413     2.429
    61   1 H        0.925     0.045     2.380     2.412
    62   1 H        0.925     0.045     2.385     2.415
    63   1 H        0.926     0.043     2.410     2.428
    64   1 H        0.926     0.046     2.371     2.408
    65   1 H        0.926     0.046     2.371     2.408
    66   1 H        0.926     0.045     2.382     2.414
    67   1 H        0.926     0.049     2.337     2.391
    68   1 H        0.926     0.047     2.363     2.404

molecular dipole:
                 x           y           z       tot (Debye)
 q only:       -0.215      -0.165      -2.034
   full:       -0.239      -0.342      -2.037       5.286

 projected vibrational frequencies (cm⁻¹)
eigval :       -0.00    -0.00    -0.00    -0.00     0.00     0.00
eigval :        4.96     5.88    14.10    22.98    24.16    28.79
eigval :       33.26    36.69    45.69    49.34    54.15    67.34
eigval :       79.06    88.57    94.58   138.62   154.40   156.79
eigval :      158.13   176.40   187.39   200.87   219.15   220.20
eigval :      227.01   228.52   231.30   260.02   282.55   282.66
eigval :      294.72   313.11   342.45   360.51   363.19   365.18
eigval :      368.34   372.44   382.90   387.51   418.93   421.49
eigval :      423.57   439.76   443.32   470.31   481.33   491.38
eigval :      496.96   504.02   520.98   544.74   557.45   581.78
eigval :      585.23   585.45   586.11   586.17   605.49   655.94
eigval :      656.99   658.31   658.99   660.28   671.23   681.47
eigval :      697.98   700.77   713.61   714.42   714.98   739.77
eigval :      741.61   743.83   744.49   804.31   809.17   823.22
eigval :      870.46   871.14   873.64   877.67   877.78   880.65
eigval :      884.02   889.70   901.32   901.43   901.92   904.52
eigval :      905.14   905.72   926.42   926.75   929.06   930.85
eigval :      933.42   933.85   935.02   935.42   971.09   971.55
eigval :      974.21   974.56  1014.43  1076.52  1077.29  1077.51
eigval :     1078.19  1090.78  1104.63  1111.11  1112.81  1113.76
eigval :     1115.22  1120.98  1121.43  1124.87  1125.10  1138.49
eigval :     1144.85  1161.19  1177.74  1178.52  1178.91  1180.25
eigval :     1188.24  1190.68  1191.09  1193.27  1204.21  1217.46
eigval :     1218.60  1226.73  1242.98  1267.82  1269.08  1271.47
eigval :     1272.92  1300.66  1306.82  1319.12  1319.23  1319.41
eigval :     1319.82  1351.25  1374.30  1405.68  1419.88  1421.31
eigval :     1421.52  1422.62  1422.69  1451.25  1451.47  1451.78
eigval :     1452.97  1466.94  1470.93  1562.14  1573.56  1581.14
eigval :     1581.39  1581.52  1581.66  1584.35  1584.63  1585.23
eigval :     1585.50  1589.73  1604.91  3065.43  3065.89  3066.22
eigval :     3066.33  3067.11  3069.13  3070.57  3070.93  3071.81
eigval :     3073.81  3075.46  3076.75  3077.26  3077.86  3081.75
eigval :     3082.45  3082.58  3083.31  3083.91  3086.19  3088.13
eigval :     3089.00  3090.84  3091.83  3092.19  3093.25  3470.49

   temp. (K)  partition function   enthalpy   heat capacity  entropy
                                   cal/mol     cal/K/mol   cal/K/mol   J/K/mol
 298.15  VIB  0.101E+19            20743.000    125.383    131.957
         ROT  0.546E+08              888.752      2.981     38.385
         INT  0.554E+26            21631.752    128.364    170.342
         TR   0.131E+29             1481.254      4.968     44.873
         TOT                       23113.0064   133.3322   215.2151   900.4598

       T/K    H(0)-H(T)+PV         H(T)/Eh          T*S/Eh         G(T)/Eh
   ------------------------------------------------------------------------
    298.15    0.368329E-01    0.550337E+00    0.102256E+00    0.448081E+00
   ------------------------------------------------------------------------

         :::::::::::::::::::::::::::::::::::::::::::::::::::::
         ::                  THERMODYNAMIC                  ::
         :::::::::::::::::::::::::::::::::::::::::::::::::::::
         :: total free energy        -106.655719101379 Eh   ::
         ::.................................................::
         :: total energy             -107.103800104007 Eh   ::
         :: zero point energy           0.513503705463 Eh   ::
         :: G(RRHO) w/o ZPVE           -0.065422702835 Eh   ::
         :: G(RRHO) contrib.            0.448081002628 Eh   ::
         :::::::::::::::::::::::::::::::::::::::::::::::::::::

           -------------------------------------------------
          | TOTAL ENERGY             -107.103800104007 Eh   |
          | TOTAL ENTHALPY           -106.553463478321 Eh   |
          | TOTAL FREE ENERGY        -106.655719101379 Eh   |
          | GRADIENT NORM               0.000116780018 Eh/α |
          | HOMO-LUMO GAP               3.315960859950 eV   |
           -------------------------------------------------

 * finished run on 2025/09/10 at 01:23:05.526
