   * xtb version 6.7.1 (edcfbbe) compiled by 'albert@albert-system' on 2024-07-22

   ID    Z sym.   atoms
    1    8 O      1, 25
    2   15 P      2, 24
    3    6 C      3-18, 20-23, 26-41
    4    7 N      19
    5    1 H      42-68

          program call               : xtb data2507/toluene/poCz-SO/poCz-SO_toluene_S0_finalOpt.xtbopt.xyz --gfn 2 --uhf 2 --gbsa toluene --ohess vtight --parallel 40 --molden --ceasefiles --namespace data2507/toluene/poCz-SO/poCz-SO_toluene_T1_preOpt
      * Solvation model:               GBSA
        Solvent                        toluene
        Solvent mass                       9.2140E+01 g/mol
          :  Hamiltonian                  GFN2-xTB          :
 * total energy  :  -106.9770351 Eh     change       -0.5155300E-08 Eh
 * total energy  :  -106.9803642 Eh     change       -0.3329122E-02 Eh
 * total energy  :  -106.9821688 Eh     change       -0.1804573E-02 Eh
 * total energy  :  -106.9824441 Eh     change       -0.2753158E-03 Eh
 * total energy  :  -106.9826834 Eh     change       -0.2392871E-03 Eh
 * total energy  :  -106.9827256 Eh     change       -0.4222458E-04 Eh
 * total energy  :  -106.9828291 Eh     change       -0.1034609E-03 Eh
 * total energy  :  -106.9828698 Eh     change       -0.4075105E-04 Eh
 * total energy  :  -106.9829055 Eh     change       -0.3566514E-04 Eh
 * total energy  :  -106.9829284 Eh     change       -0.2294465E-04 Eh
 * total energy  :  -106.9830916 Eh     change       -0.6219216E-06 Eh
 * total energy  :  -106.9830923 Eh     change       -0.6344381E-06 Eh
 * total energy  :  -106.9830929 Eh     change       -0.6583815E-06 Eh
 * total energy  :  -106.9830937 Eh     change       -0.7451032E-06 Eh
 * total energy  :  -106.9830947 Eh     change       -0.1087264E-05 Eh
 * total energy  :  -106.9830959 Eh     change       -0.1172014E-05 Eh
 * total energy  :  -106.9830970 Eh     change       -0.1076164E-05 Eh
 * total energy  :  -106.9830976 Eh     change       -0.6431690E-06 Eh
 * total energy  :  -106.9830976 Eh     change       -0.9629176E-08 Eh
   *** GEOMETRY OPTIMIZATION CONVERGED AFTER 94 ITERATIONS ***

 final structure:
================
68
 xtb: 6.7.1 (edcfbbe)
O           -5.24841952602639        0.28001087812732        1.71618163168183
P           -4.24326424773144        0.23401126584908        0.63586168004245
C           -3.41103108056565        1.82965435545641        0.36452013170972
C           -3.54729683561818        2.79859983302357        1.34911887737831
C           -2.92053048452869        4.02417077675992        1.20628424110484
C           -2.15729075898339        4.28095453603119        0.07847522054183
C           -2.02845586486040        3.31709834652188       -0.91027515997503
C           -2.65524130891239        2.09187753196712       -0.77252592451906
C           -4.95314115682391       -0.23506067144180       -0.97587430504436
C           -6.28596123668377        0.08459426109134       -1.19686666827360
C           -6.87929657423920       -0.22022634833186       -2.40892677979135
C           -6.13926743716723       -0.84511282599139       -3.40050751734687
C           -4.80972560669772       -1.16933112166791       -3.17847448784467
C           -4.21275047019628       -0.86573732768153       -1.96788268828628
C           -2.93267333043130       -0.99221413045586        0.93881609360548
C           -3.40900815825148       -2.27192389952423        1.33317297875388
C           -2.52230388570591       -3.31259243368370        1.61934334337988
C           -1.17533197047684       -3.05605768291496        1.49692345119432
N           -0.09842572965906       -3.85930969228942        1.69709784711229
C            1.07681161702837       -3.16358947614036        1.44531980464265
C            2.37086342251851       -3.58752285043174        1.52751462910483
C            3.39966649668409       -2.63201248288801        1.19388259403787
C            3.07934832446367       -1.34528953997941        0.82101623383430
P            4.47162663737522       -0.25445498161298        0.38988889852240
O            5.73496580497270       -0.62221925016733        1.05784415206595
C            3.91102203848887        1.43176329951331        0.80001568916717
C            3.09681535379467        2.18201798066942       -0.03935237315823
C            2.68648144801382        3.44419104537611        0.35193458539179
C            3.08826277401432        3.95963616312364        1.57442310739766
C            3.90972127749208        3.21652078332934        2.40722595676300
C            4.31930386827525        1.95267200927294        2.02044374918908
C            4.58859228830285       -0.30119306031589       -1.42829946138190
C            5.83612124864838       -0.04605217137490       -1.98294774872308
C            5.99860067807200       -0.04943474287195       -3.35664101644527
C            4.91292878169145       -0.30973779753577       -4.17817701494876
C            3.66878096063651       -0.57201468341339       -3.62576128586064
C            3.50213373310582       -0.56772263799790       -2.25218310442891
C            1.75546075114526       -0.89937860233510        0.74662223152684
C            0.72045465845716       -1.83424760602131        1.05746984640105
C           -0.66665720357302       -1.74548386136977        1.08557854701963
C           -1.59898524348241       -0.70701297393325        0.81470478950102
H           -4.15137127544174        2.57435330542511        2.21752861477381
H           -3.02693267601445        4.77684760528877        1.97379841701147
H           -1.66677567371788        5.23672277870187       -0.03349669678010
H           -1.43982185705061        3.52252400271251       -1.79255318200271
H           -2.56623655790865        1.34026337611708       -1.54337636614036
H           -6.84415763697381        0.56246168088916       -0.40306289895092
H           -7.91667435181430        0.02801166123616       -2.57943194384615
H           -6.60145010538172       -1.08522410685970       -4.34673306289794
H           -4.23758654734556       -1.66286698594999       -3.95060200178494
H           -3.18045418449348       -1.12806425081637       -1.78299604031000
H           -4.47600659663441       -2.41515332053372        1.41300137903681
H           -2.88803893908630       -4.28032780769539        1.92565699626069
H           -0.13998909713825       -4.81906333662809        2.00370808932811
H            2.64065625929155       -4.58921019096906        1.81960832581940
H            4.43670606015781       -2.92577943494546        1.24468212283784
H            2.79719722318758        1.78197772631743       -0.99764070029205
H            2.05334238801021        4.02881593898424       -0.29928548087939
H            2.76550453633478        4.94531426882800        1.87581754542050
H            4.22970241871913        3.62041176883764        3.35670396695526
H            4.96530005917526        1.35537352370608        2.64945338857290
H            6.66939233427846        0.14373884721994       -1.32006583962031
H            6.96959251927220        0.15016003004704       -3.78586490795245
H            5.03794459805665       -0.31333506710742       -5.25102138920182
H            2.82597984907972       -0.78213916761060       -4.26816520725715
H            2.53633719409533       -0.78081027169892       -1.81551753677052
H            1.51637036351812        0.12025404045106        0.49583746977758
H           -1.25126727267944        0.27237679414105        0.52810895411379

          :  Hamiltonian                  GFN2-xTB          :
         :: gradient norm              0.000073816002 Eh/a0 ::
         :: HOMO-LUMO gap              0.445315783570 eV    ::
         :: SCC energy              -108.863221072586 Eh    ::
         :: -> dispersion             -0.095700140083 Eh    ::
         :: -> Gsolv                  -0.056224637604 Eh    ::
         :: repulsion energy           1.880123420384 Eh    ::

    * Orbital Energies and Occupations

         #    Occupation            Energy/Eh            Energy/eV
      -------------------------------------------------------------
         1        2.0000           -0.6982550             -19.0005
       ...           ...                  ...                  ...
        88        2.0000           -0.4173765             -11.3574
        89        2.0000           -0.4168904             -11.3442
        90        2.0000           -0.4165019             -11.3336
        91        2.0000           -0.4157273             -11.3125
        92        2.0000           -0.4156853             -11.3114
        93        2.0000           -0.4149760             -11.2921
        94        2.0000           -0.4058623             -11.0441
        95        2.0000           -0.4046322             -11.0106
        96        2.0000           -0.4039333             -10.9916
        97        2.0000           -0.4032626             -10.9733
        98        1.9529           -0.3899783             -10.6119
        99        1.0471           -0.3842654             -10.4564
       100        0.9998           -0.2713940              -7.3850 (HOMO)
       101        0.0002           -0.2550293              -6.9397 (LUMO)
       102        0.0000           -0.2510622              -6.8317
       103        0.0000           -0.2495136              -6.7896
       104                         -0.2434656              -6.6250
       105                         -0.2385886              -6.4923
       106                         -0.2354393              -6.4066
       107                         -0.2351816              -6.3996
       108                         -0.2345901              -6.3835
       109                         -0.2339127              -6.3651
       110                         -0.2216285              -6.0308
       111                         -0.2081344              -5.6636
       ...                                ...                  ...
       201                          1.1691730              31.8148
      -------------------------------------------------------------
                  HL-Gap            0.0163647 Eh            0.4453 eV

     #   Z          covCN         q      C6AA      α(0)
     1   8 O        0.808    -0.396    21.632     6.235
     2  15 P        4.092     0.045   158.243    22.597
     3   6 C        2.920     0.013    27.717     8.633
     4   6 C        3.021    -0.019    28.451     8.749
     5   6 C        2.919    -0.026    28.661     8.779
     6   6 C        2.920    -0.024    28.600     8.770
     7   6 C        2.919    -0.027    28.666     8.780
     8   6 C        2.977    -0.026    28.651     8.780
     9   6 C        2.921     0.013    27.722     8.634
    10   6 C        3.023    -0.019    28.454     8.750
    11   6 C        2.919    -0.026    28.654     8.778
    12   6 C        2.920    -0.024    28.603     8.770
    13   6 C        2.919    -0.026    28.660     8.779
    14   6 C        2.974    -0.025    28.623     8.776
    15   6 C        2.913     0.023    27.504     8.600
    16   6 C        3.036    -0.038    28.909     8.819
    17   6 C        2.901    -0.059    29.456     8.899
    18   6 C        3.040     0.066    26.478     8.440
    19   7 N        2.750    -0.086    22.919     7.110
    20   6 C        3.050     0.059    26.623     8.462
    21   6 C        2.903    -0.053    29.314     8.877
    22   6 C        3.034    -0.029    28.695     8.786
    23   6 C        2.907     0.011    27.764     8.640
    24  15 P        4.091     0.041   158.416    22.609
    25   8 O        0.808    -0.398    21.665     6.239
    26   6 C        2.920     0.013    27.720     8.634
    27   6 C        2.973    -0.026    28.653     8.780
    28   6 C        2.919    -0.027    28.675     8.781
    29   6 C        2.920    -0.024    28.607     8.771
    30   6 C        2.919    -0.026    28.663     8.779
    31   6 C        3.024    -0.019    28.456     8.750
    32   6 C        2.920     0.013    27.727     8.635
    33   6 C        3.026    -0.019    28.456     8.750
    34   6 C        2.918    -0.027    28.664     8.780
    35   6 C        2.920    -0.025    28.619     8.773
    36   6 C        2.919    -0.027    28.673     8.781
    37   6 C        2.972    -0.027    28.662     8.782
    38   6 C        2.967    -0.040    28.993     8.832
    39   6 C        3.050    -0.020    28.449     8.748
    40   6 C        3.067    -0.000    27.964     8.671
    41   6 C        2.964    -0.047    29.173     8.859
    42   1 H        0.925     0.048     2.350     2.397
    43   1 H        0.926     0.044     2.402     2.424
    44   1 H        0.926     0.047     2.360     2.402
    45   1 H        0.926     0.047     2.359     2.402
    46   1 H        0.926     0.048     2.342     2.393
    47   1 H        0.925     0.046     2.373     2.409
    48   1 H        0.926     0.044     2.397     2.421
    49   1 H        0.926     0.047     2.359     2.402
    50   1 H        0.926     0.047     2.359     2.402
    51   1 H        0.926     0.043     2.405     2.425
    52   1 H        0.926     0.041     2.439     2.442
    53   1 H        0.926     0.042     2.417     2.431
    54   1 H        0.860     0.178     1.226     1.734
    55   1 H        0.926     0.047     2.362     2.403
    56   1 H        0.926     0.049     2.329     2.387
    57   1 H        0.926     0.046     2.374     2.409
    58   1 H        0.926     0.046     2.366     2.405
    59   1 H        0.926     0.046     2.369     2.407
    60   1 H        0.926     0.043     2.411     2.428
    61   1 H        0.925     0.045     2.378     2.412
    62   1 H        0.925     0.045     2.387     2.416
    63   1 H        0.926     0.043     2.412     2.429
    64   1 H        0.926     0.046     2.373     2.409
    65   1 H        0.926     0.046     2.370     2.408
    66   1 H        0.926     0.046     2.376     2.410
    67   1 H        0.926     0.046     2.364     2.405
    68   1 H        0.926     0.043     2.406     2.426

molecular dipole:
                 x           y           z       tot (Debye)
 q only:       -0.473      -0.202      -2.189
   full:       -0.517      -0.393      -2.184       5.792

 projected vibrational frequencies (cm⁻¹)
eigval :       -0.00    -0.00    -0.00     0.00     0.00     0.00
eigval :        7.56     9.87    22.07    22.64    30.61    31.43
eigval :       36.33    39.52    45.09    51.47    57.58    66.54
eigval :       79.11    87.07    90.84   138.17   144.66   156.23
eigval :      158.48   163.03   182.51   192.81   197.37   210.76
eigval :      217.45   225.75   226.39   244.88   281.97   283.73
eigval :      288.22   291.47   305.54   335.80   361.22   362.39
eigval :      366.51   367.48   370.22   375.70   396.84   412.89
eigval :      418.06   427.00   438.96   458.23   463.07   483.38
eigval :      488.86   498.07   511.23   519.11   529.61   537.16
eigval :      577.85   583.92   584.98   585.25   585.72   622.72
eigval :      638.13   652.75   655.45   655.83   656.61   657.73
eigval :      660.39   682.70   690.42   695.99   708.81   710.18
eigval :      712.52   720.62   740.11   742.09   744.05   746.26
eigval :      753.94   779.89   785.17   838.71   838.73   877.55
eigval :      878.15   878.97   879.29   883.97   902.66   903.41
eigval :      905.88   906.97   927.43   927.60   928.32   931.70
eigval :      932.19   932.56   934.38   936.82   969.38   969.90
eigval :      973.08   973.49   976.55  1004.74  1056.26  1072.64
eigval :     1075.00  1075.67  1076.43  1078.09  1080.52  1109.14
eigval :     1110.77  1113.29  1114.30  1117.80  1119.00  1120.18
eigval :     1122.41  1134.12  1146.01  1176.90  1177.04  1177.90
eigval :     1179.47  1186.42  1186.67  1188.94  1190.24  1191.44
eigval :     1196.30  1214.65  1217.21  1224.11  1239.48  1256.47
eigval :     1265.76  1266.82  1270.47  1271.83  1319.24  1319.41
eigval :     1319.84  1320.13  1327.04  1331.07  1344.74  1378.99
eigval :     1416.19  1420.75  1420.83  1421.98  1422.19  1448.90
eigval :     1449.27  1449.58  1451.79  1458.80  1475.34  1527.07
eigval :     1539.71  1577.48  1578.06  1578.25  1579.40  1579.97
eigval :     1580.06  1580.60  1583.10  3063.94  3064.63  3065.52
eigval :     3065.96  3066.97  3068.37  3070.30  3073.15  3075.59
eigval :     3076.16  3076.73  3077.88  3081.23  3081.29  3081.83
eigval :     3082.91  3083.30  3091.14  3091.20  3091.26  3091.55
eigval :     3092.01  3092.38  3097.69  3103.59  3110.31  3447.76

   temp. (K)  partition function   enthalpy   heat capacity  entropy
                                   cal/mol     cal/K/mol   cal/K/mol   J/K/mol
 298.15  VIB  0.332E+18            21238.175    128.961    133.723
         ROT  0.553E+08              888.752      2.981     38.412
         INT  0.184E+26            22126.927    131.942    172.135
         TR   0.131E+29             1481.254      4.968     44.873
         TOT                       23608.1811   136.9097   217.0080   907.9613

       T/K    H(0)-H(T)+PV         H(T)/Eh          T*S/Eh         G(T)/Eh
   ------------------------------------------------------------------------
    298.15    0.376220E-01    0.544778E+00    0.103107E+00    0.441670E+00
   ------------------------------------------------------------------------

         :::::::::::::::::::::::::::::::::::::::::::::::::::::
         ::                  THERMODYNAMIC                  ::
         :::::::::::::::::::::::::::::::::::::::::::::::::::::
         :: total free energy        -106.541427241266 Eh   ::
         ::.................................................::
         :: total energy             -106.983097649306 Eh   ::
         :: zero point energy           0.507155856335 Eh   ::
         :: G(RRHO) w/o ZPVE           -0.065485448296 Eh   ::
         :: G(RRHO) contrib.            0.441670408039 Eh   ::
         :::::::::::::::::::::::::::::::::::::::::::::::::::::

           -------------------------------------------------
          | TOTAL ENERGY             -106.983097649306 Eh   |
          | TOTAL ENTHALPY           -106.438319761627 Eh   |
          | TOTAL FREE ENERGY        -106.541427241266 Eh   |
          | GRADIENT NORM               0.000073268161 Eh/α |
          | HOMO-LUMO GAP               0.445305728088 eV   |
           -------------------------------------------------

 * finished run on 2025/09/10 at 01:23:15.259
