   * xtb version 6.7.1 (edcfbbe) compiled by 'albert@albert-system' on 2024-07-22

   ID    Z sym.   atoms
    1    8 O      1, 25
    2   15 P      2, 24
    3    6 C      3-18, 20-23, 26-41
    4    7 N      19
    5    1 H      42-68

          program call               : xtb data2507/toluene/poCz-SO/poCz-SO_toluene_T1_crest.xyz --gfn 2 --uhf 2 --gbsa toluene --ohess vtight --parallel 40 --molden --ceasefiles --namespace data2507/toluene/poCz-SO/poCz-SO_toluene_T1_finalOpt
      * Solvation model:               GBSA
        Solvent                        toluene
        Solvent mass                       9.2140E+01 g/mol
          :  Hamiltonian                  GFN2-xTB          :
 * total energy  :  -106.9823018 Eh     change       -0.2175483E-08 Eh
 * total energy  :  -106.9824772 Eh     change       -0.1753448E-03 Eh
 * total energy  :  -106.9825789 Eh     change       -0.1017066E-03 Eh
 * total energy  :  -106.9826389 Eh     change       -0.6004222E-04 Eh
 * total energy  :  -106.9827022 Eh     change       -0.6328072E-04 Eh
 * total energy  :  -106.9828199 Eh     change       -0.1176864E-03 Eh
 * total energy  :  -106.9829325 Eh     change       -0.1125903E-03 Eh
 * total energy  :  -106.9829875 Eh     change       -0.5503228E-04 Eh
 * total energy  :  -106.9830142 Eh     change       -0.2670766E-04 Eh
 * total energy  :  -106.9830296 Eh     change       -0.1543013E-04 Eh
 * total energy  :  -106.9832458 Eh     change       -0.4307849E-06 Eh
 * total energy  :  -106.9832463 Eh     change       -0.5204271E-06 Eh
 * total energy  :  -106.9832468 Eh     change       -0.5580188E-06 Eh
 * total energy  :  -106.9832474 Eh     change       -0.5467410E-06 Eh
 * total energy  :  -106.9832478 Eh     change       -0.4531071E-06 Eh
 * total energy  :  -106.9832482 Eh     change       -0.3489986E-06 Eh
 * total energy  :  -106.9832484 Eh     change       -0.2246893E-06 Eh
 * total energy  :  -106.9832485 Eh     change       -0.1435259E-06 Eh
 * total energy  :  -106.9832486 Eh     change       -0.3976753E-07 Eh
   *** GEOMETRY OPTIMIZATION CONVERGED AFTER 88 ITERATIONS ***

 final structure:
================
68
 xtb: 6.7.1 (edcfbbe)
O           -4.62816842292914        0.24063003967723        2.54386934040647
P           -4.03809787715775       -0.02232051769172        1.21577761833496
C           -5.26880501174236        0.02298492952994       -0.12708598861130
C           -6.57901170715170       -0.29424988662030        0.20516681619146
C           -7.55842755214130       -0.30496009919628       -0.77185371891687
C           -7.22706556013045        0.00103015076660       -2.08242244547432
C           -5.91965103272709        0.32142323954584       -2.41447657885076
C           -4.93768696445954        0.33240755553511       -1.44027423499131
C           -3.23862101137661       -1.65151435712765        1.09687828336853
C           -2.73958163776156       -2.14439697195584       -0.10391960567237
C           -2.12994671389107       -3.38519028670233       -0.13422247546946
C           -2.02368674974731       -4.13723082538805        1.02651174249102
C           -2.53104149627913       -3.65135899221548        2.22110034690277
C           -3.13849004684973       -2.40822942125884        2.25614477286870
C           -2.78771108433974        1.21595026672012        0.74932141770875
C           -3.26607703640234        2.55513402176565        0.74548570286008
C           -2.41733547591840        3.62034000650202        0.43762757249348
C           -1.10594768479701        3.32623408029424        0.13906148561174
N           -0.07121791564734        4.13805362888711       -0.19992851468759
C            1.07775393436995        3.39000195678735       -0.42010144457242
C            2.32690330879379        3.80435597750418       -0.77944204397958
C            3.33918334563936        2.78738076338460       -0.93353457354764
C            3.04571018086402        1.45706570303912       -0.73259143050408
P            4.42450321285227        0.28492468037440       -0.93052563335652
O            5.48465657252955        0.77417541342569       -1.83270822344873
C            3.65910269371223       -1.26752417477396       -1.50661908316657
C            3.04874127479950       -2.17502337309189       -0.64986714683407
C            2.45940733863303       -3.31591779105205       -1.16562585135947
C            2.48170803225580       -3.55508775117212       -2.53089155877409
C            3.10098368301999       -2.65643406653149       -3.38507678253452
C            3.68856592042663       -1.51321952932642       -2.87289552037854
C            5.02735698993520       -0.05763736151832        0.75455477893417
C            6.36837380125317       -0.39433471839707        0.88586938337795
C            6.89186468742653       -0.68497022158999        2.13287726185899
C            6.07474024803362       -0.63747443636182        3.25150038442113
C            4.73798648662753       -0.29317462939083        3.12307566162299
C            4.21083087340462       -0.00217611119351        1.87738942572322
C            1.76358500385640        1.02307074135742       -0.37730254322089
C            0.75010104126841        2.01532405881654       -0.20400903368571
C           -0.59378308363956        1.95352624465651        0.14694742775657
C           -1.48529686831029        0.89610850675304        0.47637426158436
H           -6.81320638296626       -0.51838833089725        1.23713968553276
H           -8.57798466058613       -0.54959904572704       -0.51199251049517
H           -7.99046800637708       -0.00547467708186       -2.84640274204761
H           -5.66583115975346        0.56589015800071       -3.43567945000657
H           -3.91951188396145        0.59556884229455       -1.69056664683798
H           -2.83100203411343       -1.55640304515087       -1.00528911951924
H           -1.73772250807054       -3.76754528784464       -1.06528895384648
H           -1.54755172640195       -5.10638887704670        0.99853162473611
H           -2.45323924335078       -4.23903601191129        3.12417762736212
H           -3.54258688060031       -2.00509161193726        3.17458734992708
H           -4.30441842290124        2.72537603822308        0.98853902385983
H           -2.78357328951051        4.63521800347165        0.43574241286179
H           -0.12610590052688        5.14099459707501       -0.28908859553380
H            2.57618641058507        4.84073456520502       -0.93835699565210
H            4.34057777844845        3.07096458131303       -1.21836383878497
H            3.04538857893018       -1.99281118746012        0.41542588654995
H            1.98478501821347       -4.02138316833584       -0.49920517158550
H            2.02115807498786       -4.44717621100142       -2.92951207485465
H            3.12604307807086       -2.84615795626546       -4.44825531198533
H            4.18427886576753       -0.80015567772198       -3.51744753477204
H            6.98740713999115       -0.41503853798857       -0.00079805588966
H            7.93493966954907       -0.94754356154066        2.23295055173972
H            6.48141537775122       -0.86480331280797        4.22593865831262
H            4.10442691376760       -0.24881438879149        3.99711603642520
H            3.17213861374148        0.27969323033868        1.77408079336454
H            1.53117075863504       -0.02265945827009       -0.26709905073213
H           -1.13391861591744       -0.12312411548069        0.49821418458867

          :  Hamiltonian                  GFN2-xTB          :
         :: gradient norm              0.000155097413 Eh/a0 ::
         :: HOMO-LUMO gap              0.414702242142 eV    ::
         :: SCC energy              -108.863327576326 Eh    ::
         :: -> dispersion             -0.095676684146 Eh    ::
         :: -> Gsolv                  -0.055791701433 Eh    ::
         :: repulsion energy           1.880078988262 Eh    ::

    * Orbital Energies and Occupations

         #    Occupation            Energy/Eh            Energy/eV
      -------------------------------------------------------------
         1        2.0000           -0.6983903             -19.0042
       ...           ...                  ...                  ...
        88        2.0000           -0.4172447             -11.3538
        89        2.0000           -0.4166365             -11.3373
        90        2.0000           -0.4165132             -11.3339
        91        2.0000           -0.4159150             -11.3176
        92        2.0000           -0.4154974             -11.3063
        93        2.0000           -0.4151443             -11.2967
        94        2.0000           -0.4056415             -11.0381
        95        2.0000           -0.4050421             -11.0218
        96        2.0000           -0.4039595             -10.9923
        97        2.0000           -0.4033974             -10.9770
        98        1.9573           -0.3902654             -10.6197
        99        1.0427           -0.3843555             -10.4588
       100        0.9997           -0.2716103              -7.3909 (HOMO)
       101        0.0003           -0.2563704              -6.9762 (LUMO)
       102        0.0000           -0.2512258              -6.8362
       103        0.0000           -0.2493308              -6.7846
       104                         -0.2419494              -6.5838
       105                         -0.2386416              -6.4938
       106                         -0.2353045              -6.4030
       107                         -0.2349228              -6.3926
       108                         -0.2347362              -6.3875
       109                         -0.2338389              -6.3631
       110                         -0.2216344              -6.0310
       111                         -0.2082670              -5.6672
       ...                                ...                  ...
       201                          1.1803407              32.1187
      -------------------------------------------------------------
                  HL-Gap            0.0152399 Eh            0.4147 eV

     #   Z          covCN         q      C6AA      α(0)
     1   8 O        0.808    -0.395    21.601     6.230
     2  15 P        4.093     0.043   158.334    22.604
     3   6 C        2.921     0.013    27.727     8.635
     4   6 C        3.024    -0.019    28.462     8.751
     5   6 C        2.919    -0.026    28.659     8.779
     6   6 C        2.920    -0.024    28.604     8.770
     7   6 C        2.919    -0.026    28.662     8.779
     8   6 C        2.974    -0.024    28.607     8.773
     9   6 C        2.920     0.013    27.716     8.633
    10   6 C        2.979    -0.026    28.639     8.778
    11   6 C        2.919    -0.027    28.664     8.780
    12   6 C        2.920    -0.024    28.599     8.770
    13   6 C        2.918    -0.027    28.666     8.780
    14   6 C        3.019    -0.019    28.456     8.750
    15   6 C        2.913     0.023    27.482     8.596
    16   6 C        3.036    -0.038    28.908     8.819
    17   6 C        2.901    -0.058    29.450     8.898
    18   6 C        3.040     0.066    26.483     8.441
    19   7 N        2.750    -0.086    22.911     7.109
    20   6 C        3.051     0.059    26.622     8.462
    21   6 C        2.903    -0.053    29.313     8.877
    22   6 C        3.036    -0.029    28.685     8.785
    23   6 C        2.907     0.011    27.763     8.640
    24  15 P        4.091     0.040   158.438    22.611
    25   8 O        0.808    -0.398    21.657     6.238
    26   6 C        2.920     0.014    27.712     8.633
    27   6 C        2.972    -0.026    28.648     8.779
    28   6 C        2.919    -0.027    28.670     8.780
    29   6 C        2.920    -0.024    28.604     8.770
    30   6 C        2.919    -0.026    28.662     8.779
    31   6 C        3.025    -0.019    28.453     8.750
    32   6 C        2.920     0.013    27.726     8.635
    33   6 C        3.026    -0.019    28.462     8.751
    34   6 C        2.918    -0.027    28.666     8.780
    35   6 C        2.920    -0.025    28.616     8.772
    36   6 C        2.919    -0.027    28.672     8.781
    37   6 C        2.972    -0.027    28.659     8.781
    38   6 C        2.966    -0.040    28.988     8.831
    39   6 C        3.050    -0.019    28.444     8.747
    40   6 C        3.068     0.000    27.956     8.670
    41   6 C        2.964    -0.046    29.143     8.855
    42   1 H        0.925     0.046     2.368     2.406
    43   1 H        0.926     0.044     2.398     2.422
    44   1 H        0.926     0.047     2.362     2.403
    45   1 H        0.926     0.046     2.367     2.406
    46   1 H        0.926     0.042     2.424     2.435
    47   1 H        0.926     0.047     2.356     2.400
    48   1 H        0.926     0.047     2.363     2.404
    49   1 H        0.926     0.047     2.363     2.404
    50   1 H        0.926     0.044     2.399     2.422
    51   1 H        0.925     0.049     2.335     2.389
    52   1 H        0.926     0.039     2.463     2.454
    53   1 H        0.926     0.043     2.411     2.428
    54   1 H        0.860     0.178     1.224     1.733
    55   1 H        0.926     0.047     2.356     2.400
    56   1 H        0.926     0.050     2.320     2.382
    57   1 H        0.926     0.044     2.396     2.421
    58   1 H        0.926     0.046     2.373     2.409
    59   1 H        0.926     0.047     2.362     2.403
    60   1 H        0.926     0.044     2.400     2.423
    61   1 H        0.925     0.046     2.369     2.407
    62   1 H        0.925     0.046     2.372     2.408
    63   1 H        0.926     0.043     2.406     2.426
    64   1 H        0.926     0.046     2.375     2.410
    65   1 H        0.926     0.045     2.387     2.416
    66   1 H        0.926     0.044     2.390     2.417
    67   1 H        0.926     0.046     2.367     2.406
    68   1 H        0.926     0.042     2.420     2.433

molecular dipole:
                 x           y           z       tot (Debye)
 q only:       -0.743      -0.340      -0.670
   full:       -0.813      -0.159      -0.705       2.765

 projected vibrational frequencies (cm⁻¹)
eigval :       -0.00    -0.00     0.00     0.00     0.00     0.00
eigval :        6.37    10.56    20.09    25.23    26.96    29.30
eigval :       32.65    40.67    49.67    52.16    56.71    72.23
eigval :       79.67    87.87    93.35   138.46   141.01   152.33
eigval :      159.91   163.19   181.00   197.46   199.06   203.45
eigval :      217.71   225.53   226.80   246.21   281.54   282.89
eigval :      286.76   291.52   303.67   333.58   361.56   364.38
eigval :      365.57   366.43   369.42   376.23   398.66   410.66
eigval :      416.39   427.97   437.23   456.46   472.94   477.31
eigval :      489.05   496.30   512.04   519.09   528.56   539.74
eigval :      577.81   584.27   585.29   585.42   586.06   621.31
eigval :      639.20   652.61   655.29   656.56   657.46   657.73
eigval :      659.75   680.23   690.96   696.11   708.93   712.31
eigval :      713.81   720.58   740.86   742.23   744.66   746.70
eigval :      753.95   779.04   787.18   831.76   838.24   878.22
eigval :      878.85   879.79   881.87   882.75   902.62   904.29
eigval :      907.43   907.53   927.05   928.02   930.51   930.98
eigval :      933.32   933.89   935.58   937.46   969.64   970.65
eigval :      973.45   973.55   978.40  1010.90  1056.33  1072.26
eigval :     1074.58  1076.48  1076.71  1077.31  1081.03  1108.69
eigval :     1111.34  1113.79  1113.89  1118.56  1118.85  1120.94
eigval :     1122.05  1133.84  1145.96  1174.59  1175.67  1178.42
eigval :     1178.90  1186.42  1188.08  1188.45  1190.47  1190.75
eigval :     1197.36  1212.76  1217.20  1224.39  1239.06  1256.27
eigval :     1266.04  1267.76  1271.18  1271.67  1318.93  1319.65
eigval :     1320.01  1320.78  1326.62  1333.15  1344.65  1379.16
eigval :     1416.22  1420.56  1420.93  1422.00  1422.18  1449.20
eigval :     1450.03  1450.38  1451.24  1458.89  1479.31  1528.94
eigval :     1539.65  1577.22  1578.13  1578.92  1579.63  1579.95
eigval :     1580.61  1580.90  1582.81  3063.81  3064.35  3065.28
eigval :     3065.71  3066.62  3068.53  3070.87  3073.93  3076.12
eigval :     3076.15  3076.34  3077.75  3078.66  3080.75  3081.84
eigval :     3082.60  3084.81  3090.79  3091.24  3091.28  3091.64
eigval :     3092.03  3092.25  3096.26  3103.08  3109.15  3448.26

   temp. (K)  partition function   enthalpy   heat capacity  entropy
                                   cal/mol     cal/K/mol   cal/K/mol   J/K/mol
 298.15  VIB  0.404E+18            21241.187    129.000    133.864
         ROT  0.556E+08              888.752      2.981     38.423
         INT  0.225E+26            22129.939    131.981    172.287
         TR   0.131E+29             1481.254      4.968     44.873
         TOT                       23611.1933   136.9490   217.1598   908.5965

       T/K    H(0)-H(T)+PV         H(T)/Eh          T*S/Eh         G(T)/Eh
   ------------------------------------------------------------------------
    298.15    0.376268E-01    0.544823E+00    0.103180E+00    0.441643E+00
   ------------------------------------------------------------------------

         :::::::::::::::::::::::::::::::::::::::::::::::::::::
         ::                  THERMODYNAMIC                  ::
         :::::::::::::::::::::::::::::::::::::::::::::::::::::
         :: total free energy        -106.541605147986 Eh   ::
         ::.................................................::
         :: total energy             -106.983248582783 Eh   ::
         :: zero point energy           0.507196216732 Eh   ::
         :: G(RRHO) w/o ZPVE           -0.065552781934 Eh   ::
         :: G(RRHO) contrib.            0.441643434798 Eh   ::
         :::::::::::::::::::::::::::::::::::::::::::::::::::::

           -------------------------------------------------
          | TOTAL ENERGY             -106.983248582783 Eh   |
          | TOTAL ENTHALPY           -106.438425534515 Eh   |
          | TOTAL FREE ENERGY        -106.541605147986 Eh   |
          | GRADIENT NORM               0.000154470313 Eh/α |
          | HOMO-LUMO GAP               0.414698603970 eV   |
           -------------------------------------------------

 * finished run on 2025/09/10 at 01:34:16.063
