   * xtb version 6.7.1 (edcfbbe) compiled by 'albert@albert-system' on 2024-07-22

   ID    Z sym.   atoms
    1    8 O      1, 25
    2   15 P      2, 24
    3    6 C      3-18, 20-23, 26-41
    4    7 N      19
    5    1 H      42-68

          program call               : xtb data2507/toluene/poCz-SO/poCz-SO.xyz --gfn 2 --gbsa toluene --ohess vtight --parallel 40 --molden --ceasefiles --namespace data2507/toluene/poCz-SO/poCz-SO_toluene_S0_preOpt
      * Solvation model:               GBSA
        Solvent                        toluene
        Solvent mass                       9.2140E+01 g/mol
          :  Hamiltonian                  GFN2-xTB          :
 * total energy  :  -107.0867836 Eh     change       -0.3483009E-08 Eh
 * total energy  :  -107.0986124 Eh     change       -0.1182884E-01 Eh
 * total energy  :  -107.1016189 Eh     change       -0.3006490E-02 Eh
 * total energy  :  -107.1019531 Eh     change       -0.3341826E-03 Eh
 * total energy  :  -107.1021163 Eh     change       -0.1632377E-03 Eh
 * total energy  :  -107.1021657 Eh     change       -0.4934228E-04 Eh
 * total energy  :  -107.1022255 Eh     change       -0.5982173E-04 Eh
 * total energy  :  -107.1022873 Eh     change       -0.6184616E-04 Eh
 * total energy  :  -107.1023708 Eh     change       -0.8348967E-04 Eh
 * total energy  :  -107.1024629 Eh     change       -0.9205448E-04 Eh
 * total energy  :  -107.1032893 Eh     change       -0.5263874E-06 Eh
 * total energy  :  -107.1032898 Eh     change       -0.5536706E-06 Eh
 * total energy  :  -107.1032904 Eh     change       -0.5543390E-06 Eh
 * total energy  :  -107.1032909 Eh     change       -0.5414157E-06 Eh
 * total energy  :  -107.1032914 Eh     change       -0.5269424E-06 Eh
 * total energy  :  -107.1032920 Eh     change       -0.5221889E-06 Eh
 * total energy  :  -107.1032925 Eh     change       -0.5432178E-06 Eh
 * total energy  :  -107.1032931 Eh     change       -0.6026468E-06 Eh
 * total energy  :  -107.1032931 Eh     change       -0.2359855E-08 Eh
   *** GEOMETRY OPTIMIZATION CONVERGED AFTER 94 ITERATIONS ***

 final structure:
================
68
 xtb: 6.7.1 (edcfbbe)
O           -2.93239593529657        0.79500697154982       -2.03851132143101
P           -3.55443759515331        0.51184552408467       -0.73036296373803
C           -5.19805438791781       -0.26322938056635       -0.87743100842481
C           -5.42165277460120       -1.05632189762128       -1.99499290811302
C           -6.64160472658952       -1.68596729961408       -2.16578196048682
C           -7.63998942035805       -1.52253444822608       -1.21839052328873
C           -7.41994883383635       -0.72696383268478       -0.10480771074987
C           -6.20045858363778       -0.09636694099873        0.06939058566109
C           -3.82116868903080        2.01736669492840        0.26423084059563
C           -3.76864010660424        2.03348665785008        1.65171258504957
C           -4.00040021133076        3.21598186839265        2.33286547542441
C           -4.28468569367286        4.37864128507588        1.63403192346683
C           -4.33278153666233        4.36433648899802        0.24882373635589
C           -4.09987746491233        3.18456450809719       -0.43496423259996
C           -2.56510858795602       -0.61429340013190        0.30017167679871
C           -3.13887297311390       -1.41588340480803        1.29248319008015
C           -2.36446949465893       -2.25360384201019        2.06881500735544
C           -0.99539275037181       -2.27530682296915        1.83550164812674
N           -0.01511671230656       -3.00422731834427        2.45424713759947
C            1.19831796550525       -2.70624861461652        1.89273803936205
C            2.46025495044951       -3.20259445656839        2.19331686545104
C            3.52586439164793       -2.71788764630221        1.46407409980636
C            3.34979307354710       -1.76363554597762        0.45662622060760
P            4.86738528092216       -1.20282380173973       -0.37803713476911
O            5.89039061193496       -2.26064405191456       -0.49186876675008
C            5.44332035811539        0.23894734569684        0.57820120270580
C            4.58273499458941        1.06540159932440        1.28918737220147
C            5.08966295072369        2.15549557923367        1.97467932375170
C            6.44993993344272        2.42094872820359        1.95275520629196
C            7.31009250306798        1.59282406185396        1.24901970275062
C            6.80641647091900        0.50249982526549        0.56229101677488
C            4.35128477320857       -0.53479839616910       -1.99244521505907
C            4.55006753701696       -1.34216358640884       -3.10418980203120
C            4.17350635038890       -0.89882242565719       -4.35969998410605
C            3.59629874418123        0.35275451914075       -4.50399081729682
C            3.40241674668211        1.16253087196148       -3.39556878020939
C            3.78018436748384        0.72337843174948       -2.13908279621978
C            2.09261970481250       -1.27058484813845        0.14755584589219
C            1.00697851101534       -1.74460662896866        0.86922868086656
C           -0.40383633526535       -1.46835885075797        0.83113582918919
C           -1.20052430705606       -0.63604072248799        0.06018451336245
H           -4.63021502730133       -1.15905300169036       -2.72502988752585
H           -6.81421501439544       -2.30194197069082       -3.03628006638177
H           -8.59372847587175       -2.01193702666446       -1.35075729988011
H           -8.20189354004652       -0.59575401230635        0.62904689796069
H           -6.02766038721983        0.53252973455343        0.93145556871391
H           -3.54059231212271        1.12579719745608        2.19202290461017
H           -3.95791884603792        3.23065756834751        3.41229618360407
H           -4.46554846107951        5.29880558366717        2.16996735411257
H           -4.55042556896148        5.27091793034506       -0.29676538193034
H           -4.12172615375338        3.14959106529004       -1.51586906202308
H           -4.20817739466484       -1.38240658548233        1.44126914105659
H           -2.81075605338307       -2.87501759471224        2.83045868955263
H           -0.16344590402683       -3.66735229035951        3.19759351622349
H            2.60310856350935       -3.94026171755949        2.96834403058735
H            4.52866647589305       -3.07624018359397        1.65085572635144
H            3.52400356358353        0.84788477915779        1.31139948851634
H            4.42167526863166        2.79867746487087        2.52902849130669
H            6.84134068595143        3.27253532638245        2.48969434524838
H            8.37090182778990        1.79618584814685        1.23622194529366
H            7.45748177262603       -0.16427057061314        0.01332325041194
H            5.01030500863142       -2.31098785896679       -2.96585582935611
H            4.33009689772743       -1.52777510375858       -5.22390887926070
H            3.30053804704295        0.70095757442611       -5.48275356946911
H            2.95681164051771        2.13989682495820       -3.51119501697650
H            3.64268177109658        1.35714880536100       -1.27456531054394
H            1.95871192420254       -0.54338663520399       -0.63922644236428
H           -0.78813540767244       -0.01730294908830       -0.72390958813667

          :  Hamiltonian                  GFN2-xTB          :
         :: gradient norm              0.000052839331 Eh/a0 ::
         :: HOMO-LUMO gap              3.315996252677 eV    ::
         :: SCC energy              -109.005156158997 Eh    ::
         :: -> dispersion             -0.094967307042 Eh    ::
         :: -> Gsolv                  -0.055735578165 Eh    ::
         :: repulsion energy           1.901863051697 Eh    ::

    * Orbital Energies and Occupations

         #    Occupation            Energy/Eh            Energy/eV
      -------------------------------------------------------------
         1        2.0000           -0.6964954             -18.9526
       ...           ...                  ...                  ...
        87        2.0000           -0.4219311             -11.4813
        88        2.0000           -0.4167092             -11.3392
        89        2.0000           -0.4162896             -11.3278
        90        2.0000           -0.4158015             -11.3145
        91        2.0000           -0.4152391             -11.2992
        92        2.0000           -0.4146094             -11.2821
        93        2.0000           -0.4142273             -11.2717
        94        2.0000           -0.4051583             -11.0249
        95        2.0000           -0.4041848             -10.9984
        96        2.0000           -0.4037081             -10.9855
        97        2.0000           -0.4028715             -10.9627
        98        2.0000           -0.3945128             -10.7352
        99        2.0000           -0.3834438             -10.4340 (HOMO)
       100                         -0.2615832              -7.1180 (LUMO)
       101                         -0.2530949              -6.8871
       102                         -0.2511624              -6.8345
       103                         -0.2502087              -6.8085
       104                         -0.2441738              -6.6443
       105                         -0.2389049              -6.5009
       106                         -0.2351748              -6.3994
       107                         -0.2343527              -6.3771
       108                         -0.2338205              -6.3626
       109                         -0.2332308              -6.3465
       110                         -0.2214522              -6.0260
       ...                                ...                  ...
       201                          1.1645228              31.6883
      -------------------------------------------------------------
                  HL-Gap            0.1218606 Eh            3.3160 eV

     #   Z          covCN         q      C6AA      α(0)
     1   8 O        0.808    -0.400    21.696     6.244
     2  15 P        4.081     0.044   158.263    22.598
     3   6 C        2.920     0.012    27.741     8.637
     4   6 C        3.025    -0.019    28.451     8.749
     5   6 C        2.919    -0.026    28.662     8.779
     6   6 C        2.920    -0.024    28.606     8.771
     7   6 C        2.919    -0.027    28.674     8.781
     8   6 C        2.973    -0.026    28.654     8.781
     9   6 C        2.920     0.013    27.732     8.636
    10   6 C        2.971    -0.027    28.662     8.782
    11   6 C        2.919    -0.027    28.673     8.781
    12   6 C        2.920    -0.024    28.608     8.771
    13   6 C        2.918    -0.026    28.661     8.779
    14   6 C        3.027    -0.019    28.445     8.748
    15   6 C        2.920     0.002    27.978     8.674
    16   6 C        2.979    -0.030    28.737     8.793
    17   6 C        2.909    -0.051    29.276     8.872
    18   6 C        3.072     0.058    26.617     8.459
    19   7 N        2.755    -0.102    23.241     7.160
    20   6 C        3.073     0.059    26.609     8.458
    21   6 C        2.908    -0.051    29.263     8.870
    22   6 C        3.037    -0.022    28.517     8.759
    23   6 C        2.921     0.003    27.952     8.670
    24  15 P        4.080     0.044   158.300    22.601
    25   8 O        0.808    -0.399    21.684     6.242
    26   6 C        2.920     0.012    27.744     8.638
    27   6 C        2.973    -0.026    28.643     8.779
    28   6 C        2.919    -0.027    28.671     8.781
    29   6 C        2.920    -0.024    28.606     8.771
    30   6 C        2.919    -0.027    28.664     8.780
    31   6 C        3.024    -0.019    28.456     8.750
    32   6 C        2.920     0.013    27.730     8.635
    33   6 C        3.024    -0.019    28.458     8.750
    34   6 C        2.919    -0.026    28.662     8.779
    35   6 C        2.920    -0.024    28.592     8.769
    36   6 C        2.919    -0.026    28.661     8.779
    37   6 C        2.974    -0.026    28.647     8.779
    38   6 C        2.967    -0.028    28.704     8.788
    39   6 C        3.071    -0.012    28.243     8.714
    40   6 C        3.069    -0.012    28.251     8.715
    41   6 C        3.025    -0.021    28.495     8.756
    42   1 H        0.925     0.045     2.383     2.414
    43   1 H        0.926     0.043     2.408     2.426
    44   1 H        0.926     0.046     2.370     2.407
    45   1 H        0.926     0.046     2.376     2.411
    46   1 H        0.926     0.044     2.400     2.423
    47   1 H        0.926     0.045     2.387     2.416
    48   1 H        0.926     0.046     2.377     2.411
    49   1 H        0.926     0.046     2.372     2.408
    50   1 H        0.926     0.043     2.409     2.427
    51   1 H        0.925     0.044     2.391     2.418
    52   1 H        0.926     0.049     2.332     2.388
    53   1 H        0.926     0.048     2.350     2.397
    54   1 H        0.860     0.173     1.255     1.755
    55   1 H        0.926     0.047     2.363     2.404
    56   1 H        0.926     0.050     2.321     2.382
    57   1 H        0.926     0.042     2.416     2.431
    58   1 H        0.926     0.045     2.380     2.412
    59   1 H        0.926     0.046     2.366     2.405
    60   1 H        0.926     0.044     2.401     2.423
    61   1 H        0.925     0.045     2.377     2.411
    62   1 H        0.925     0.047     2.354     2.399
    63   1 H        0.926     0.044     2.401     2.423
    64   1 H        0.926     0.046     2.374     2.409
    65   1 H        0.926     0.045     2.389     2.417
    66   1 H        0.926     0.045     2.389     2.417
    67   1 H        0.926     0.046     2.375     2.410
    68   1 H        0.926     0.049     2.329     2.386

molecular dipole:
                 x           y           z       tot (Debye)
 q only:       -2.243       0.572       2.398
   full:       -2.418       0.504       2.614       9.142

 projected vibrational frequencies (cm⁻¹)
eigval :       -0.00    -0.00     0.00     0.00     0.00     0.00
eigval :        5.54     7.20    19.23    23.64    27.19    29.29
eigval :       33.53    35.36    41.53    42.40    44.95    55.19
eigval :       76.98    86.12    97.41   137.20   156.50   157.65
eigval :      157.88   174.93   182.14   203.12   209.42   225.18
eigval :      226.60   228.39   241.87   262.75   281.69   283.57
eigval :      299.51   314.63   342.29   362.74   364.21   365.25
eigval :      365.94   377.58   380.28   389.29   413.67   423.08
eigval :      425.83   437.08   444.42   469.41   479.86   490.86
eigval :      500.92   505.04   515.34   541.95   557.69   582.26
eigval :      585.07   585.29   585.86   586.28   604.91   654.90
eigval :      658.08   658.19   658.62   659.59   670.58   681.80
eigval :      697.28   702.94   713.69   714.21   714.61   739.47
eigval :      740.82   743.24   743.71   808.60   813.92   824.35
eigval :      870.43   873.14   874.63   877.87   878.06   879.40
eigval :      881.17   890.17   901.58   902.56   903.37   903.65
eigval :      905.84   909.70   926.49   926.74   928.50   929.08
eigval :      932.57   932.75   933.63   934.83   971.14   971.44
eigval :      974.31   974.39  1014.45  1076.54  1076.87  1077.18
eigval :     1077.49  1089.26  1103.73  1110.89  1111.59  1113.07
eigval :     1114.23  1120.78  1121.27  1124.40  1125.35  1139.30
eigval :     1146.31  1160.58  1177.30  1177.51  1178.50  1178.87
eigval :     1188.77  1188.88  1190.27  1192.01  1201.20  1218.00
eigval :     1220.30  1225.81  1243.06  1267.69  1268.61  1270.83
eigval :     1271.64  1301.57  1307.05  1318.77  1319.28  1319.42
eigval :     1319.71  1351.74  1375.29  1407.12  1419.29  1421.34
eigval :     1421.50  1422.27  1422.44  1451.27  1451.41  1451.91
eigval :     1452.16  1463.30  1470.15  1561.43  1573.53  1581.19
eigval :     1581.23  1581.50  1581.55  1584.31  1584.53  1585.19
eigval :     1585.23  1590.07  1605.08  3063.89  3064.46  3065.97
eigval :     3066.35  3067.39  3067.76  3070.18  3070.49  3071.58
eigval :     3075.65  3076.04  3076.34  3076.55  3077.79  3078.74
eigval :     3080.80  3081.49  3081.60  3082.03  3086.15  3087.93
eigval :     3089.77  3090.94  3091.24  3091.55  3091.74  3469.24

   temp. (K)  partition function   enthalpy   heat capacity  entropy
                                   cal/mol     cal/K/mol   cal/K/mol   J/K/mol
 298.15  VIB  0.859E+18            20766.021    124.822    131.464
         ROT  0.632E+08              888.752      2.981     38.675
         INT  0.543E+26            21654.774    127.802    170.139
         TR   0.131E+29             1481.254      4.968     44.873
         TOT                       23136.0278   132.7706   215.0122   899.6110

       T/K    H(0)-H(T)+PV         H(T)/Eh          T*S/Eh         G(T)/Eh
   ------------------------------------------------------------------------
    298.15    0.368696E-01    0.550266E+00    0.102159E+00    0.448107E+00
   ------------------------------------------------------------------------

         :::::::::::::::::::::::::::::::::::::::::::::::::::::
         ::                  THERMODYNAMIC                  ::
         :::::::::::::::::::::::::::::::::::::::::::::::::::::
         :: total free energy        -106.655186117240 Eh   ::
         ::.................................................::
         :: total energy             -107.103293111215 Eh   ::
         :: zero point energy           0.513396613616 Eh   ::
         :: G(RRHO) w/o ZPVE           -0.065289619642 Eh   ::
         :: G(RRHO) contrib.            0.448106993974 Eh   ::
         :::::::::::::::::::::::::::::::::::::::::::::::::::::

           -------------------------------------------------
          | TOTAL ENERGY             -107.103293111215 Eh   |
          | TOTAL ENTHALPY           -106.553026890490 Eh   |
          | TOTAL FREE ENERGY        -106.655186117240 Eh   |
          | GRADIENT NORM               0.000052840286 Eh/α |
          | HOMO-LUMO GAP               3.315996333176 eV   |
           -------------------------------------------------

 * finished run on 2025/09/10 at 01:13:13.763
