   * xtb version 6.7.1 (edcfbbe) compiled by 'albert@albert-system' on 2024-07-22

   ID    Z sym.   atoms
    1    6 C      1-9, 11-15, 17-20, 24-39
    2    7 N      10
    3    8 O      16, 22, 23
    4   16 S      21
    5    1 H      40-66

          program call               : xtb data2507/gas/PS-BZ-DMAC/PS-BZ-DMAC.xyz --gfn 2 --ohess vtight --parallel 40 --molden --ceasefiles --namespace data2507/gas/PS-BZ-DMAC/PS-BZ-DMAC_gas_S0_preOpt
          :  Hamiltonian                  GFN2-xTB          :
 * total energy  :  -104.8982019 Eh     change       -0.5514181E-08 Eh
 * total energy  :  -104.9113521 Eh     change       -0.1315020E-01 Eh
 * total energy  :  -104.9150223 Eh     change       -0.3670235E-02 Eh
 * total energy  :  -104.9156861 Eh     change       -0.6637551E-03 Eh
 * total energy  :  -104.9161361 Eh     change       -0.4500175E-03 Eh
 * total energy  :  -104.9162630 Eh     change       -0.1268782E-03 Eh
 * total energy  :  -104.9163321 Eh     change       -0.6915343E-04 Eh
 * total energy  :  -104.9163787 Eh     change       -0.4662934E-04 Eh
 * total energy  :  -104.9164244 Eh     change       -0.4571102E-04 Eh
 * total energy  :  -104.9164248 Eh     change       -0.3957629E-06 Eh
 * total energy  :  -104.9171412 Eh     change       -0.6142875E-06 Eh
 * total energy  :  -104.9171418 Eh     change       -0.5819868E-06 Eh
 * total energy  :  -104.9171424 Eh     change       -0.5439566E-06 Eh
 * total energy  :  -104.9171429 Eh     change       -0.5856998E-06 Eh
 * total energy  :  -104.9171436 Eh     change       -0.6373896E-06 Eh
 * total energy  :  -104.9171442 Eh     change       -0.6519247E-06 Eh
 * total energy  :  -104.9171448 Eh     change       -0.5779739E-06 Eh
 * total energy  :  -104.9171453 Eh     change       -0.4577423E-06 Eh
 * total energy  :  -104.9171453 Eh     change       -0.1094250E-07 Eh
   *** GEOMETRY OPTIMIZATION CONVERGED AFTER 94 ITERATIONS ***

 final structure:
================
66
 xtb: 6.7.1 (edcfbbe)
C           -6.03300532792879        0.84038679141505        2.21081286856999
C           -5.69334603208819        0.52254696844626        0.74306719472077
C           -6.94112583772776        0.69181781323251       -0.14281000398277
C           -5.22482266951699       -0.91704180029276        0.65909235036031
C           -6.07631512515532       -1.93402748717668        1.07032533618093
C           -5.69477807346433       -3.26219986836062        1.05732857246864
C           -4.41708382911902       -3.59267903838435        0.64397564981827
C           -3.55234611627202       -2.60269442307680        0.22758651810317
C           -3.94872633199873       -1.26225499815160        0.20375322472250
N           -3.05915942943572       -0.28703580196828       -0.23287177800486
C           -1.79164634117092       -0.68067945383252       -0.71983194682164
C           -1.68691518089722       -1.37268897233484       -1.92451480558788
C           -0.44822953834001       -1.75565164871662       -2.39343481516598
C            0.71006031469020       -1.43562023454057       -1.68433684373602
C            2.01448363548755       -1.88332256237651       -2.22590008655039
O            2.11564655494524       -2.88446999090924       -2.90466099563711
C            3.20546314072582       -1.04534390663263       -1.90519840046891
C            3.12049528515046        0.34205605521977       -1.80188021976041
C            4.25957945900873        1.08391293176033       -1.54241535333878
C            5.47121992482411        0.43850137874564       -1.38991171681235
S            6.94760197771782        1.39573054157128       -1.00569207804909
O            8.02776388904452        0.93779840449488       -1.83683373699431
O            6.59906686343998        2.79111694569488       -1.03493905511090
C            7.27836718791990        0.90706246284010        0.69184403071839
C            6.43818494338278        1.36562514431899        1.68797364837651
C            6.66311904089465        0.96818037186081        2.99521995046799
C            7.71942578038326        0.11794040774847        3.28599251361555
C            8.55571128383537       -0.33465805342012        2.27768508763514
C            8.33317707943753        0.06051211304163        0.96850587238115
C            5.57703915224328       -0.93517679735491       -1.50480800481931
C            4.44224506781092       -1.67675807108555       -1.77340697533843
C            0.60038752120846       -0.75492132404514       -0.47181166676961
C           -0.64021916625529       -0.38553265548782        0.00705927503145
C           -3.38751096726766        1.06329243236404       -0.21206102724691
C           -2.48360525264185        2.00664925146524       -0.70975810429914
C           -2.77758295954243        3.35370935012898       -0.69124771050393
C           -3.98922108528037        3.78712119567193       -0.18494330249653
C           -4.89968423311587        2.85425924114715        0.27413193856549
C           -4.62987356211206        1.49215755571222        0.26573863998968
H           -6.38098458982993        1.86413683426046        2.31606125974210
H           -5.14778666908016        0.71290019211473        2.83126381657016
H           -6.80969583307086        0.17794627979281        2.58232194112216
H           -6.69120893484528        0.47367120949263       -1.17947672923091
H           -7.73257109233591        0.01584269596034        0.16852077042028
H           -7.32126560664629        1.70809473857816       -0.08883985137824
H           -7.06884437283510       -1.68686710334203        1.41515532267298
H           -6.38367699233052       -4.02791429134671        1.37933887962935
H           -4.08756734607908       -4.62079210786517        0.64807786535857
H           -2.55253747298911       -2.87181183439155       -0.07599150697771
H           -2.58293029843027       -1.60720615314907       -2.47952307756409
H           -0.35176720220822       -2.29525924526291       -3.32347192141390
H            2.17308049262345        0.83886082600966       -1.94857762614031
H            4.23392086267588        2.16001461622213       -1.46785935269845
H            5.63429875696215        2.03735590993814        1.43019401122065
H            6.01916568693787        1.32164250793856        3.78625618498356
H            7.89413731580565       -0.18950329923465        4.30628547225790
H            9.37988788971323       -0.99151517537553        2.51097984959054
H            8.96788174716869       -0.26088954473529        0.15748924624721
H            6.54461125276596       -1.40106911584480       -1.40353406376725
H            4.49050739891562       -2.74956555131682       -1.88475919507920
H            1.48470723525495       -0.54339400371730        0.11104141393879
H           -0.73139349455764        0.13430981989976        0.94931167337377
H           -1.54299245259106        1.67964736205169       -1.12528309057524
H           -2.05992187632576        4.06162499741459       -1.07804742427634
H           -4.23010036738077        4.83872819842819       -0.16007671428096
H           -5.85079508012043        3.20339296877467        0.64632080204344

          :  Hamiltonian                  GFN2-xTB          :
         :: gradient norm              0.000056679885 Eh/a0 ::
         :: HOMO-LUMO gap              1.299794179375 eV    ::
         :: SCC energy              -106.667751411321 Eh    ::
         :: -> dispersion             -0.089100865979 Eh    ::
         :: repulsion energy           1.750606129905 Eh    ::

    * Orbital Energies and Occupations

         #    Occupation            Energy/Eh            Energy/eV
      -------------------------------------------------------------
         1        2.0000           -0.7735071             -21.0482
       ...           ...                  ...                  ...
        84        2.0000           -0.4345740             -11.8254
        85        2.0000           -0.4330989             -11.7852
        86        2.0000           -0.4328596             -11.7787
        87        2.0000           -0.4321289             -11.7588
        88        2.0000           -0.4258395             -11.5877
        89        2.0000           -0.4134377             -11.2502
        90        2.0000           -0.4125492             -11.2260
        91        2.0000           -0.4109977             -11.1838
        92        2.0000           -0.4082868             -11.1100
        93        2.0000           -0.4028172             -10.9612
        94        2.0000           -0.4021126             -10.9420
        95        2.0000           -0.3971542             -10.8071
        96        2.0000           -0.3528852              -9.6025 (HOMO)
        97                         -0.3051186              -8.3027 (LUMO)
        98                         -0.2685243              -7.3069
        99                         -0.2590296              -7.0486
       100                         -0.2557365              -6.9589
       101                         -0.2527418              -6.8775
       102                         -0.2496702              -6.7939
       103                         -0.2290516              -6.2328
       104                         -0.2241026              -6.0981
       105                         -0.2226931              -6.0598
       106                         -0.2125778              -5.7845
       107                         -0.1938448              -5.2748
       ...                                ...                  ...
       188                          1.2065429              32.8317
      -------------------------------------------------------------
                  HL-Gap            0.0477666 Eh            1.2998 eV

     #   Z          covCN         q      C6AA      α(0)
     1   6 C        3.761    -0.104    22.524     6.766
     2   6 C        3.909     0.021    20.156     6.381
     3   6 C        3.761    -0.104    22.524     6.765
     4   6 C        2.980    -0.013    28.326     8.730
     5   6 C        2.928    -0.036    28.891     8.815
     6   6 C        2.917    -0.043    29.074     8.842
     7   6 C        2.920    -0.032    28.808     8.802
     8   6 C        2.924    -0.059    29.457     8.901
     9   6 C        2.927     0.057    26.719     8.477
    10   7 N        2.753    -0.068    22.563     7.055
    11   6 C        2.927     0.078    26.266     8.405
    12   6 C        2.919    -0.037    28.910     8.817
    13   6 C        2.924    -0.017    28.439     8.745
    14   6 C        2.972    -0.015    28.389     8.740
    15   6 C        2.828     0.227    23.242     7.900
    16   8 O        0.858    -0.358    20.858     6.123
    17   6 C        2.972    -0.005    28.141     8.702
    18   6 C        2.922    -0.023    28.572     8.766
    19   6 C        2.952    -0.025    28.621     8.775
    20   6 C        2.971    -0.070    29.741     8.945
    21  16 S        3.814     0.944   108.274    17.513
    22   8 O        0.860    -0.535    24.567     6.645
    23   8 O        0.860    -0.537    24.611     6.651
    24   6 C        2.972    -0.073    29.820     8.957
    25   6 C        2.960    -0.027    28.685     8.785
    26   6 C        2.922    -0.023    28.586     8.768
    27   6 C        2.920    -0.023    28.590     8.768
    28   6 C        2.922    -0.023    28.574     8.766
    29   6 C        2.954    -0.025    28.622     8.775
    30   6 C        2.955    -0.026    28.646     8.779
    31   6 C        2.926    -0.014    28.366     8.734
    32   6 C        2.920    -0.028    28.694     8.784
    33   6 C        2.920    -0.038    28.936     8.821
    34   6 C        2.927     0.057    26.716     8.476
    35   6 C        2.924    -0.059    29.466     8.902
    36   6 C        2.920    -0.033    28.818     8.803
    37   6 C        2.917    -0.043    29.078     8.843
    38   6 C        2.928    -0.036    28.888     8.814
    39   6 C        2.980    -0.013    28.323     8.730
    40   1 H        0.925     0.040     2.447     2.446
    41   1 H        0.925     0.031     2.568     2.506
    42   1 H        0.925     0.040     2.446     2.446
    43   1 H        0.925     0.032     2.559     2.502
    44   1 H        0.925     0.040     2.445     2.445
    45   1 H        0.925     0.040     2.447     2.446
    46   1 H        0.926     0.032     2.562     2.503
    47   1 H        0.926     0.028     2.610     2.526
    48   1 H        0.926     0.030     2.591     2.517
    49   1 H        0.926     0.025     2.657     2.549
    50   1 H        0.926     0.052     2.295     2.369
    51   1 H        0.926     0.064     2.156     2.296
    52   1 H        0.926     0.054     2.269     2.355
    53   1 H        0.926     0.070     2.084     2.258
    54   1 H        0.926     0.052     2.300     2.372
    55   1 H        0.926     0.050     2.315     2.379
    56   1 H        0.926     0.051     2.312     2.378
    57   1 H        0.926     0.053     2.286     2.364
    58   1 H        0.926     0.066     2.135     2.285
    59   1 H        0.926     0.058     2.225     2.333
    60   1 H        0.926     0.071     2.072     2.251
    61   1 H        0.926     0.040     2.444     2.445
    62   1 H        0.926     0.048     2.339     2.392
    63   1 H        0.926     0.022     2.705     2.572
    64   1 H        0.926     0.029     2.603     2.523
    65   1 H        0.926     0.029     2.608     2.525
    66   1 H        0.926     0.032     2.558     2.501

molecular dipole:
                 x           y           z       tot (Debye)
 q only:       -1.488      -0.595       2.119
   full:       -1.412      -0.474       2.180       6.711

 projected vibrational frequencies (cm⁻¹)
eigval :       -0.00    -0.00     0.00     0.00     0.00     0.00
eigval :        5.08     9.25    13.81    19.21    20.05    30.07
eigval :       35.74    46.00    58.61    67.27    91.20   101.51
eigval :      103.41   107.23   127.44   131.60   138.85   153.31
eigval :      173.10   188.28   190.39   214.20   220.16   227.07
eigval :      237.88   262.74   284.25   290.21   305.17   318.15
eigval :      322.61   332.29   344.42   360.90   363.01   364.20
eigval :      377.08   382.35   389.24   405.60   411.64   429.82
eigval :      438.53   452.71   470.53   484.33   494.98   514.63
eigval :      515.89   532.10   547.44   552.94   573.94   582.29
eigval :      585.00   593.21   596.26   608.70   638.26   649.66
eigval :      658.75   674.29   683.09   689.52   692.67   694.26
eigval :      726.87   733.35   749.77   766.99   777.09   778.60
eigval :      817.53   823.04   830.43   866.93   869.02   874.45
eigval :      880.44   881.51   899.62   907.19   913.62   914.65
eigval :      915.39   917.28   921.29   921.95   924.46   928.23
eigval :      929.50   933.47   935.92   938.02   944.37   957.48
eigval :      968.43  1003.04  1014.53  1024.85  1069.63  1077.04
eigval :     1085.80  1089.07  1102.69  1113.73  1115.27  1118.37
eigval :     1120.52  1130.39  1132.34  1141.32  1160.40  1168.16
eigval :     1174.28  1177.34  1177.80  1179.27  1185.76  1188.16
eigval :     1188.81  1208.02  1241.88  1244.02  1249.54  1250.55
eigval :     1258.01  1260.37  1261.19  1269.59  1295.18  1313.25
eigval :     1319.12  1320.38  1321.76  1326.26  1334.53  1338.66
eigval :     1389.88  1402.48  1403.48  1421.35  1430.47  1435.87
eigval :     1441.88  1444.84  1449.25  1472.82  1479.03  1489.63
eigval :     1490.75  1496.08  1500.35  1504.98  1554.82  1572.22
eigval :     1576.08  1577.14  1580.32  1580.81  1591.34  1593.13
eigval :     1597.92  1602.51  1695.60  3026.81  3029.02  3040.88
eigval :     3043.56  3049.67  3053.60  3080.17  3080.77  3081.22
eigval :     3083.49  3085.14  3085.40  3087.55  3089.85  3090.48
eigval :     3094.05  3094.21  3095.66  3096.20  3096.83  3100.85
eigval :     3101.42  3102.89  3103.01  3103.71  3104.82  3105.63

   temp. (K)  partition function   enthalpy   heat capacity  entropy
                                   cal/mol     cal/K/mol   cal/K/mol   J/K/mol
 298.15  VIB  0.474E+17            19737.909    120.482    124.783
         ROT  0.620E+08              888.752      2.981     38.636
         INT  0.294E+25            20626.662    123.462    163.420
         TR   0.118E+29             1481.254      4.968     44.667
         TOT                       22107.9155   128.4306   208.0865   870.6340

       T/K    H(0)-H(T)+PV         H(T)/Eh          T*S/Eh         G(T)/Eh
   ------------------------------------------------------------------------
    298.15    0.352312E-01    0.542028E+00    0.988686E-01    0.443159E+00
   ------------------------------------------------------------------------

         :::::::::::::::::::::::::::::::::::::::::::::::::::::
         ::                  THERMODYNAMIC                  ::
         :::::::::::::::::::::::::::::::::::::::::::::::::::::
         :: total free energy        -104.473985972944 Eh   ::
         ::.................................................::
         :: total energy             -104.917145281416 Eh   ::
         :: zero point energy           0.506796719244 Eh   ::
         :: G(RRHO) w/o ZPVE           -0.063637410772 Eh   ::
         :: G(RRHO) contrib.            0.443159308472 Eh   ::
         :::::::::::::::::::::::::::::::::::::::::::::::::::::

           -------------------------------------------------
          | TOTAL ENERGY             -104.917145281416 Eh   |
          | TOTAL ENTHALPY           -104.375117356274 Eh   |
          | TOTAL FREE ENERGY        -104.473985972944 Eh   |
          | GRADIENT NORM               0.000056665311 Eh/α |
          | HOMO-LUMO GAP               1.299794622614 eV   |
           -------------------------------------------------

 * finished run on 2025/07/20 at 04:31:04.222
