   * xtb version 6.7.1 (edcfbbe) compiled by 'albert@albert-system' on 2024-07-22

   ID    Z sym.   atoms
    1    6 C      1-9, 11-15, 17-20, 24-39
    2    7 N      10
    3    8 O      16, 22, 23
    4   16 S      21
    5    1 H      40-66

          program call               : xtb data2507/gas/PS-BZ-DMAC/PS-BZ-DMAC_gas_S0_crest.xyz --gfn 2 --ohess vtight --parallel 40 --molden --ceasefiles --namespace data2507/gas/PS-BZ-DMAC/PS-BZ-DMAC_gas_S0_finalOpt
          :  Hamiltonian                  GFN2-xTB          :
 * total energy  :  -104.9182297 Eh     change       -0.2000249E-08 Eh
 * total energy  :  -104.9182306 Eh     change       -0.8360048E-06 Eh
 * total energy  :  -104.9182316 Eh     change       -0.1018422E-05 Eh
 * total energy  :  -104.9182335 Eh     change       -0.1904378E-05 Eh
 * total energy  :  -104.9182363 Eh     change       -0.2827570E-05 Eh
 * total energy  :  -104.9182387 Eh     change       -0.2412596E-05 Eh
 * total energy  :  -104.9182403 Eh     change       -0.1604908E-05 Eh
 * total energy  :  -104.9182417 Eh     change       -0.1326425E-05 Eh
 * total energy  :  -104.9182434 Eh     change       -0.1764458E-05 Eh
 * total energy  :  -104.9182463 Eh     change       -0.2832658E-05 Eh
 * total energy  :  -104.9182854 Eh     change       -0.7344628E-06 Eh
 * total energy  :  -104.9182864 Eh     change       -0.9723815E-06 Eh
 * total energy  :  -104.9182878 Eh     change       -0.1370214E-05 Eh
 * total energy  :  -104.9182894 Eh     change       -0.1595629E-05 Eh
 * total energy  :  -104.9182907 Eh     change       -0.1367809E-05 Eh
 * total energy  :  -104.9182918 Eh     change       -0.1100941E-05 Eh
 * total energy  :  -104.9182928 Eh     change       -0.1000014E-05 Eh
 * total energy  :  -104.9182940 Eh     change       -0.1156470E-05 Eh
 * total energy  :  -104.9182940 Eh     change       -0.1292651E-07 Eh
   *** GEOMETRY OPTIMIZATION CONVERGED AFTER 44 ITERATIONS ***

 final structure:
================
66
 xtb: 6.7.1 (edcfbbe)
C           -7.64708202936307        0.92448474886043        1.62566324386806
C           -6.27377299566088        0.51162107389871        1.09715780891250
C           -5.40720805123201        0.08599222466821        2.29973492614939
C           -5.57423184805265        1.63767658402610        0.35550957328635
C           -5.97358201198553        2.96465560339723        0.38512011044362
C           -5.28678222010973        3.92979757965409       -0.33235690466035
C           -4.20531696595340        3.57572826985880       -1.11888163205725
C           -3.79733042752385        2.25604413748270       -1.17165284282140
C           -4.45762383321310        1.29689702236229       -0.41426279361795
N           -4.09135193820970       -0.06446480639025       -0.48135033387409
C           -2.82840996015851       -0.52686909957194       -0.19596829547076
C           -1.78185095384526        0.35872668824016        0.10927351319710
C           -0.51550959191285       -0.10172694672467        0.38141612323102
C           -0.23565847369826       -1.47066771355428        0.38971220679335
C            1.09420886567054       -2.01256873002454        0.69084016031833
O            1.27171186097728       -3.15806218870155        1.06365819714807
C            2.25457253023827       -1.08409456530676        0.51708610618657
C            3.24742178316375       -1.05820363406470        1.49378084961146
C            4.34503190739875       -0.23034831695386        1.34672417445915
C            4.45249912011208        0.54975022731159        0.21089026640058
S            5.90902203152131        1.58513887784038        0.00996212725851
O            5.77725251557631        2.32170109264136       -1.21978165180559
O            6.12768761686830        2.32248039746876        1.22655974843870
C            7.21834005669368        0.36749640045313       -0.16795670414278
C            8.12198792868108        0.17659318682337        0.85794180673485
C            9.10213483139577       -0.79313034863382        0.72221437714264
C            9.15984343644802       -1.55778324644850       -0.43220747402086
C            8.24606325234829       -1.35647626728780       -1.45575369943927
C            7.26552945389890       -0.38780821514546       -1.32358242622000
C            3.49229127134915        0.51567375210895       -0.78118055733379
C            2.38374956018182       -0.29804235372060       -0.62546702846847
C           -1.29673266807388       -2.35626385211681        0.17713138127242
C           -2.55993849943949       -1.90314390008297       -0.11157718653381
C           -5.21032441037483       -0.90818715163823       -0.64904498792028
C           -5.21675227861164       -1.90593016860212       -1.61552034925568
C           -6.34372710438078       -2.68665698711519       -1.79119786392340
C           -7.46890484256185       -2.45266266270740       -1.02109768964104
C           -7.47633523900406       -1.42794917990717       -0.08958637692933
C           -6.35324164036456       -0.64060915638648        0.11066543570207
H           -7.54510881388224        1.74236154086248        2.33452993564495
H           -8.10936296339267        0.09512092750734        2.15507356901009
H           -8.30091452235872        1.23679447785938        0.81441221366568
H           -4.41297896684586       -0.22716764457147        1.99356004787861
H           -5.30430580443586        0.91870217219554        2.99240865411386
H           -5.88110566228361       -0.74410893343888        2.81941830851226
H           -6.82695867100217        3.26373411821921        0.97151238802843
H           -5.60905050305775        4.95905363903523       -0.28725669190202
H           -3.68657647717268        4.32172618233620       -1.70154177101140
H           -2.97998265638028        1.96160162494087       -1.81264162286758
H           -1.97369146393151        1.41847682162382        0.16103882186083
H            0.25984885313741        0.60969118035012        0.62461285862425
H            3.14026973503583       -1.68827760415509        2.36383851976256
H            5.11483912895965       -0.17529866939704        2.10056455868017
H            8.04832912187071        0.79803842927349        1.73685333721280
H            9.81879959349485       -0.95143131015061        1.51385490044061
H            9.92368980436950       -2.31385429215828       -0.53723618830885
H            8.29908131455533       -1.95302950070292       -2.35385556507431
H            6.54667742953118       -0.19931042839844       -2.10563674036746
H            3.62604577818974        1.13748590789869       -1.65283512959461
H            1.62666101260566       -0.33943699019184       -1.39458526578538
H           -1.09884984388309       -3.41580729746513        0.24059005298083
H           -3.35707165539839       -2.61662305514175       -0.24520277601289
H           -4.34619695198754       -2.05379687448529       -2.23677404432869
H           -6.34566839599202       -3.46644468158541       -2.53759434872368
H           -8.35163799584817       -3.05951647169238       -1.15460551091895
H           -8.37351974909428       -1.25248042207570        0.48124258355405

          :  Hamiltonian                  GFN2-xTB          :
         :: gradient norm              0.000060982175 Eh/a0 ::
         :: HOMO-LUMO gap              2.138743388503 eV    ::
         :: SCC energy              -106.668685044847 Eh    ::
         :: -> dispersion             -0.089606434747 Eh    ::
         :: repulsion energy           1.750391031348 Eh    ::

    * Orbital Energies and Occupations

         #    Occupation            Energy/Eh            Energy/eV
      -------------------------------------------------------------
         1        2.0000           -0.7664307             -20.8556
       ...           ...                  ...                  ...
        84        2.0000           -0.4279942             -11.6463
        85        2.0000           -0.4271737             -11.6240
        86        2.0000           -0.4265076             -11.6059
        87        2.0000           -0.4256455             -11.5824
        88        2.0000           -0.4236414             -11.5279
        89        2.0000           -0.4171832             -11.3521
        90        2.0000           -0.4156511             -11.3104
        91        2.0000           -0.4111215             -11.1872
        92        2.0000           -0.4090226             -11.1301
        93        2.0000           -0.4079750             -11.1016
        94        2.0000           -0.4029107             -10.9638
        95        2.0000           -0.3870347             -10.5318
        96        2.0000           -0.3653070              -9.9405 (HOMO)
        97                         -0.2867098              -7.8018 (LUMO)
        98                         -0.2596209              -7.0646
        99                         -0.2491747              -6.7804
       100                         -0.2467065              -6.7132
       101                         -0.2456223              -6.6837
       102                         -0.2381289              -6.4798
       103                         -0.2335891              -6.3563
       104                         -0.2301972              -6.2640
       105                         -0.2297811              -6.2527
       106                         -0.2289868              -6.2310
       107                         -0.1853230              -5.0429
       ...                                ...                  ...
       188                          1.2099507              32.9244
      -------------------------------------------------------------
                  HL-Gap            0.0785972 Eh            2.1387 eV

     #   Z          covCN         q      C6AA      α(0)
     1   6 C        3.759    -0.107    22.602     6.778
     2   6 C        3.911     0.023    20.131     6.377
     3   6 C        3.762    -0.099    22.442     6.753
     4   6 C        2.988    -0.006    28.165     8.706
     5   6 C        2.923    -0.038    28.936     8.821
     6   6 C        2.919    -0.036    28.887     8.814
     7   6 C        2.920    -0.033    28.812     8.802
     8   6 C        2.920    -0.045    29.124     8.850
     9   6 C        2.952     0.055    26.762     8.485
    10   7 N        2.754    -0.063    22.461     7.039
    11   6 C        2.911     0.074    26.344     8.416
    12   6 C        2.921    -0.058    29.441     8.898
    13   6 C        2.919    -0.028    28.709     8.787
    14   6 C        2.970    -0.030    28.751     8.795
    15   6 C        2.828     0.223    23.310     7.911
    16   8 O        0.858    -0.379    21.274     6.184
    17   6 C        2.973    -0.002    28.075     8.691
    18   6 C        2.926    -0.016    28.411     8.741
    19   6 C        2.958    -0.027    28.676     8.783
    20   6 C        2.972    -0.072    29.800     8.954
    21  16 S        3.817     0.941   108.373    17.521
    22   8 O        0.860    -0.539    24.665     6.659
    23   8 O        0.860    -0.539    24.655     6.657
    24   6 C        2.972    -0.072    29.796     8.954
    25   6 C        2.954    -0.025    28.620     8.775
    26   6 C        2.922    -0.023    28.581     8.767
    27   6 C        2.920    -0.023    28.591     8.769
    28   6 C        2.922    -0.023    28.575     8.766
    29   6 C        2.960    -0.027    28.664     8.782
    30   6 C        2.952    -0.026    28.644     8.778
    31   6 C        2.923    -0.024    28.594     8.769
    32   6 C        2.924    -0.018    28.468     8.750
    33   6 C        2.920    -0.058    29.435     8.897
    34   6 C        2.952     0.055    26.757     8.484
    35   6 C        2.920    -0.045    29.119     8.849
    36   6 C        2.920    -0.033    28.811     8.802
    37   6 C        2.919    -0.036    28.889     8.814
    38   6 C        2.923    -0.038    28.935     8.821
    39   6 C        2.988    -0.006    28.164     8.705
    40   1 H        0.925     0.042     2.424     2.434
    41   1 H        0.925     0.042     2.424     2.434
    42   1 H        0.925     0.039     2.460     2.453
    43   1 H        0.925     0.037     2.494     2.470
    44   1 H        0.925     0.040     2.452     2.449
    45   1 H        0.925     0.040     2.447     2.446
    46   1 H        0.926     0.042     2.427     2.436
    47   1 H        0.926     0.036     2.506     2.475
    48   1 H        0.926     0.037     2.487     2.466
    49   1 H        0.926     0.040     2.450     2.448
    50   1 H        0.926     0.039     2.456     2.451
    51   1 H        0.926     0.035     2.520     2.482
    52   1 H        0.926     0.064     2.151     2.293
    53   1 H        0.926     0.053     2.286     2.365
    54   1 H        0.926     0.065     2.146     2.291
    55   1 H        0.926     0.051     2.304     2.374
    56   1 H        0.926     0.050     2.325     2.384
    57   1 H        0.926     0.050     2.317     2.381
    58   1 H        0.926     0.051     2.307     2.375
    59   1 H        0.926     0.066     2.125     2.280
    60   1 H        0.926     0.052     2.293     2.368
    61   1 H        0.926     0.057     2.230     2.335
    62   1 H        0.926     0.041     2.437     2.441
    63   1 H        0.926     0.040     2.446     2.446
    64   1 H        0.926     0.037     2.494     2.470
    65   1 H        0.926     0.035     2.511     2.478
    66   1 H        0.926     0.042     2.428     2.437

molecular dipole:
                 x           y           z       tot (Debye)
 q only:       -1.976      -0.961      -0.300
   full:       -1.913      -0.813      -0.353       5.358

 projected vibrational frequencies (cm⁻¹)
eigval :       -0.00    -0.00    -0.00    -0.00     0.00     0.00
eigval :        5.81    10.26    14.93    19.45    26.58    30.20
eigval :       43.08    54.61    64.40    71.90    87.00   102.30
eigval :      123.28   133.22   135.52   138.74   167.59   174.57
eigval :      181.84   184.84   193.16   213.71   228.17   256.99
eigval :      262.96   283.18   285.09   294.47   309.64   321.16
eigval :      330.70   341.18   355.84   360.10   361.89   363.40
eigval :      375.51   387.17   402.83   404.57   410.74   427.90
eigval :      451.52   456.51   470.54   478.23   499.48   506.67
eigval :      519.12   539.73   552.87   561.00   573.80   575.65
eigval :      585.14   590.84   595.69   613.97   630.78   644.35
eigval :      658.59   673.53   686.44   693.39   694.20   723.40
eigval :      724.65   725.82   749.02   764.83   778.36   785.97
eigval :      810.55   815.70   822.72   858.77   879.34   880.35
eigval :      885.91   888.91   899.55   906.94   907.44   912.51
eigval :      915.12   916.71   921.57   924.42   928.08   930.52
eigval :      933.20   938.19   942.57   943.33   947.96   968.29
eigval :      968.89  1001.19  1010.35  1024.51  1069.80  1073.84
eigval :     1080.23  1088.05  1099.99  1102.93  1106.55  1114.23
eigval :     1118.37  1131.57  1138.18  1152.53  1153.89  1172.19
eigval :     1174.91  1177.93  1179.38  1181.43  1183.32  1190.76
eigval :     1200.09  1214.33  1231.06  1238.46  1249.68  1257.45
eigval :     1260.44  1265.52  1272.19  1273.98  1274.71  1294.64
eigval :     1319.06  1320.68  1321.16  1327.43  1339.69  1354.14
eigval :     1388.98  1400.24  1417.61  1422.64  1430.83  1439.60
eigval :     1444.38  1445.34  1451.82  1454.66  1473.01  1493.18
eigval :     1494.89  1496.87  1507.75  1523.73  1541.28  1573.49
eigval :     1576.88  1577.73  1581.86  1584.04  1587.14  1589.52
eigval :     1598.30  1600.63  1681.35  3028.35  3030.62  3032.86
eigval :     3035.50  3047.16  3055.85  3082.77  3082.77  3083.02
eigval :     3083.48  3085.77  3088.82  3089.30  3089.32  3092.94
eigval :     3093.93  3096.10  3098.20  3098.87  3102.01  3102.49
eigval :     3103.36  3104.57  3109.38  3110.58  3113.14  3113.59

   temp. (K)  partition function   enthalpy   heat capacity  entropy
                                   cal/mol     cal/K/mol   cal/K/mol   J/K/mol
 298.15  VIB  0.723E+16            19433.679    120.541    121.592
         ROT  0.600E+08              888.752      2.981     38.571
         INT  0.433E+24            20322.431    123.522    160.163
         TR   0.118E+29             1481.254      4.968     44.667
         TOT                       21803.6850   128.4905   204.8298   857.0079

       T/K    H(0)-H(T)+PV         H(T)/Eh          T*S/Eh         G(T)/Eh
   ------------------------------------------------------------------------
    298.15    0.347464E-01    0.542471E+00    0.973213E-01    0.445150E+00
   ------------------------------------------------------------------------

         :::::::::::::::::::::::::::::::::::::::::::::::::::::
         ::                  THERMODYNAMIC                  ::
         :::::::::::::::::::::::::::::::::::::::::::::::::::::
         :: total free energy        -104.473144073822 Eh   ::
         ::.................................................::
         :: total energy             -104.918294013499 Eh   ::
         :: zero point energy           0.507724808911 Eh   ::
         :: G(RRHO) w/o ZPVE           -0.062574869234 Eh   ::
         :: G(RRHO) contrib.            0.445149939677 Eh   ::
         :::::::::::::::::::::::::::::::::::::::::::::::::::::

           -------------------------------------------------
          | TOTAL ENERGY             -104.918294013499 Eh   |
          | TOTAL ENTHALPY           -104.375822820893 Eh   |
          | TOTAL FREE ENERGY        -104.473144073822 Eh   |
          | GRADIENT NORM               0.000061011618 Eh/α |
          | HOMO-LUMO GAP               2.138739402687 eV   |
           -------------------------------------------------

 * finished run on 2025/07/20 at 04:36:12.513
