   * xtb version 6.7.1 (edcfbbe) compiled by 'albert@albert-system' on 2024-07-22

   ID    Z sym.   atoms
    1    6 C      1-9, 11-15, 17-20, 24-39
    2    7 N      10
    3    8 O      16, 22, 23
    4   16 S      21
    5    1 H      40-66

          program call               : xtb data2507/gas/PS-BZ-DMAC/PS-BZ-DMAC_gas_T1_crest.xyz --gfn 2 --spinpol --tblite --uhf 2 --ohess vtight --parallel 40 --molden --ceasefiles --namespace data2507/gas/PS-BZ-DMAC/PS-BZ-DMAC_gas_T1_finalOpt
 * total energy  :  -104.8425542 Eh     change       -0.2017373E-09 Eh
 * total energy  :  -104.8426013 Eh     change       -0.4715944E-04 Eh
 * total energy  :  -104.8426183 Eh     change       -0.1698359E-04 Eh
 * total energy  :  -104.8426203 Eh     change       -0.1951152E-05 Eh
 * total energy  :  -104.8426225 Eh     change       -0.2260484E-05 Eh
 * total energy  :  -104.8426256 Eh     change       -0.3067232E-05 Eh
 * total energy  :  -104.8426298 Eh     change       -0.4242892E-05 Eh
 * total energy  :  -104.8426328 Eh     change       -0.2979640E-05 Eh
 * total energy  :  -104.8426349 Eh     change       -0.2096211E-05 Eh
 * total energy  :  -104.8426369 Eh     change       -0.1985155E-05 Eh
 * total energy  :  -104.8426440 Eh     change       -0.2031139E-05 Eh
 * total energy  :  -104.8426451 Eh     change       -0.1099432E-05 Eh
 * total energy  :  -104.8426457 Eh     change       -0.6349690E-06 Eh
 * total energy  :  -104.8426461 Eh     change       -0.4185904E-06 Eh
 * total energy  :  -104.8426465 Eh     change       -0.3761349E-06 Eh
 * total energy  :  -104.8426469 Eh     change       -0.3373107E-06 Eh
 * total energy  :  -104.8426473 Eh     change       -0.4058693E-06 Eh
 * total energy  :  -104.8426477 Eh     change       -0.3890715E-06 Eh
 * total energy  :  -104.8426477 Eh     change       -0.4825765E-08 Eh
   *** GEOMETRY OPTIMIZATION CONVERGED AFTER 22 ITERATIONS ***

 final structure:
================
66
 xtb: 6.7.1 (edcfbbe)
C           -7.33532720635913       -1.24659572794670        1.84847671128946
C           -6.84678183241331       -0.84250974360914        0.44397853694419
C           -7.99743886649769       -0.96106773992208       -0.57379284407231
C           -5.73503184902663       -1.78158595359771        0.02875062577539
C           -5.98476002039607       -3.14296923030311       -0.07484653463101
C           -5.00500933430066       -4.03882550495320       -0.46176011283525
C           -3.73411596546328       -3.57428380428380       -0.76600423035426
C           -3.45599997493150       -2.23026013958406       -0.67149187964320
C           -4.44274480630190       -1.31920728368652       -0.26607850085599
N           -4.12998330431825        0.01936730105723       -0.17458783352919
C           -2.79689810804688        0.43514080317420       -0.45712021647620
C           -2.46864302162522        0.96923146326916       -1.70514060472607
C           -1.18039543818168        1.35810259482196       -1.96733565883016
C           -0.16342456506776        1.20506952168639       -0.99882694326808
C            1.16631514509419        1.66436015991644       -1.33588242472534
O            1.32840097972314        2.47736738322898       -2.29136209095865
C            2.32047967173195        1.20558607918634       -0.57282403728221
C            3.45630269763657        2.03423130211463       -0.50974031054361
C            4.57236731281639        1.63512177521951        0.18763660017910
C            4.58480146962556        0.39761619524611        0.81403704480028
S            6.06566734672890       -0.14529400877972        1.64985580377131
O            6.67631561116056        0.97403696940440        2.32017850537106
O            5.75980504299958       -1.32069206847128        2.42578625016149
C            7.11911742539435       -0.62411895907756        0.27221992064174
C            8.07797199423920        0.25489451627269       -0.19083564910430
C            8.84713430953490       -0.09972091883464       -1.28681513074980
C            8.64355833055195       -1.32313657866237       -1.90555450234381
C            7.67779910390157       -2.19784888362049       -1.43136985161961
C            6.90700053390945       -1.84582671945429       -0.33640604657133
C            3.49796091947192       -0.45697059859693        0.71840778158027
C            2.37201427502213       -0.06210424551629        0.03036860431593
C           -0.52355051001357        0.71491425682782        0.26989531107800
C           -1.81652192948421        0.32796431104134        0.53037473414031
C           -5.06199311706756        0.96474413983603        0.19364796948338
C           -4.67936391414067        2.31164943879175        0.28099172901637
C           -5.58881620196850        3.28014891317765        0.63834745603091
C           -6.89948239170326        2.92543977395888        0.92107880131841
C           -7.27817739615809        1.59738961594141        0.84866987406691
C           -6.38416704201908        0.59777947738578        0.49119948567920
H           -7.68957525753592       -2.27326901255696        1.85350351923158
H           -8.14784443643003       -0.60393620011126        2.17456213704731
H           -6.52012930478699       -1.16031294364454        2.56422759246974
H           -7.64810671156936       -0.67556811207251       -1.56411049831954
H           -8.36824253689945       -1.98071624429978       -0.62125394528355
H           -8.82365849327209       -0.31139266264982       -0.30050471210766
H           -6.96968397388765       -3.52157067338660        0.15085634075979
H           -5.23261908435617       -5.09121257952496       -0.53012322831147
H           -2.96218198373588       -4.26059803310102       -1.07791314733024
H           -2.47029857871680       -1.86619416642586       -0.91358141876592
H           -3.23850284322085        1.06773079086404       -2.45654163256688
H           -0.90815757001314        1.77581329390495       -2.92424746180062
H            3.42352217348323        2.99316815325478       -1.00300794122205
H            5.43711404004761        2.27453819099403        0.27222745509409
H            8.21654367863509        1.19226758476307        0.32475151274533
H            9.60416771233862        0.57526312512972       -1.65692488894336
H            9.24375773371542       -1.59900057761418       -2.76003124705057
H            7.52762230822941       -3.15185276844587       -1.91420528111434
H            6.15581777846189       -2.50756820920080        0.06527353637392
H            3.55483563381011       -1.42322022506127        1.19521827204556
H            1.54576804514287       -0.74796902450791       -0.07854450369090
H            0.20744034608009        0.67724665678055        1.06217009614214
H           -2.08987583245207       -0.04706095859999        1.50628493533095
H           -3.65843392703784        2.58532547210839        0.06791581431192
H           -5.27681113615753        4.31117127499492        0.69919316465038
H           -7.62042908451984        3.67750093221319        1.20155470081428
H           -8.29991669210980        1.33903687923648        1.08038894196739

 projected vibrational frequencies (cm⁻¹)
eigval :       -0.00    -0.00     0.00     0.00     0.00     0.00
eigval :        5.41     6.76    15.18    19.35    21.74    28.46
eigval :       32.52    47.10    62.23    74.76    92.58    99.80
eigval :      101.63   112.96   128.89   133.66   140.58   152.44
eigval :      174.78   192.64   203.39   213.95   216.15   227.61
eigval :      235.88   268.36   285.46   295.24   305.69   314.32
eigval :      325.66   327.99   339.50   362.67   367.50   374.14
eigval :      378.45   383.91   390.53   397.30   409.44   409.78
eigval :      434.07   448.56   453.66   472.08   503.15   503.78
eigval :      516.07   526.90   534.16   542.48   556.37   565.10
eigval :      581.35   584.83   588.82   597.64   604.11   633.30
eigval :      656.72   660.70   664.27   674.37   687.82   688.25
eigval :      702.05   720.65   747.76   762.87   774.20   775.98
eigval :      795.10   809.40   826.06   841.17   860.90   870.55
eigval :      871.48   879.39   886.00   896.93   903.73   906.40
eigval :      910.18   912.77   916.40   917.02   923.63   924.16
eigval :      926.54   927.91   931.38   936.65   937.72   958.38
eigval :      967.25   988.03  1003.59  1013.13  1069.91  1074.73
eigval :     1083.63  1084.79  1102.55  1105.53  1107.75  1111.91
eigval :     1118.88  1125.83  1126.90  1137.85  1149.52  1155.67
eigval :     1163.45  1168.25  1178.10  1179.00  1182.91  1183.95
eigval :     1188.64  1206.45  1230.82  1231.64  1241.00  1241.33
eigval :     1246.16  1255.90  1257.51  1260.81  1293.77  1306.13
eigval :     1312.24  1320.86  1323.29  1329.77  1335.69  1338.03
eigval :     1388.63  1401.83  1405.59  1416.39  1419.34  1424.40
eigval :     1425.96  1430.21  1430.84  1444.66  1445.26  1455.43
eigval :     1477.00  1484.67  1486.21  1486.87  1497.05  1500.54
eigval :     1522.05  1542.36  1552.08  1566.31  1573.00  1576.44
eigval :     1578.05  1589.31  1596.89  3031.20  3032.77  3046.77
eigval :     3049.15  3054.67  3058.41  3076.28  3079.15  3079.53
eigval :     3085.08  3086.38  3088.73  3088.91  3093.84  3094.32
eigval :     3095.02  3095.21  3098.79  3099.79  3101.29  3103.59
eigval :     3103.91  3104.44  3104.86  3105.95  3112.31  3113.87

   temp. (K)  partition function   enthalpy   heat capacity  entropy
                                   cal/mol     cal/K/mol   cal/K/mol   J/K/mol
 298.15  VIB  0.499E+17            19849.771    121.737    125.173
         ROT  0.621E+08              888.752      2.981     38.642
         INT  0.310E+25            20738.523    124.717    163.815
         TR   0.118E+29             1481.254      4.968     44.667
         TOT                       22219.7774   129.6856   208.4814   872.2863

       T/K    H(0)-H(T)+PV         H(T)/Eh          T*S/Eh         G(T)/Eh
   ------------------------------------------------------------------------
    298.15    0.354095E-01    0.539370E+00    0.990563E-01    0.440314E+00
   ------------------------------------------------------------------------

         :::::::::::::::::::::::::::::::::::::::::::::::::::::
         ::                  THERMODYNAMIC                  ::
         :::::::::::::::::::::::::::::::::::::::::::::::::::::
         :: total free energy        -104.402334090601 Eh   ::
         ::.................................................::
         :: total energy             -104.842647654733 Eh   ::
         :: zero point energy           0.503960353808 Eh   ::
         :: G(RRHO) w/o ZPVE           -0.063646789675 Eh   ::
         :: G(RRHO) contrib.            0.440313564133 Eh   ::
         :::::::::::::::::::::::::::::::::::::::::::::::::::::

           -------------------------------------------------
          | TOTAL ENERGY             -104.842647654733 Eh   |
          | TOTAL ENTHALPY           -104.303277831787 Eh   |
          | TOTAL FREE ENERGY        -104.402334090601 Eh   |
          | GRADIENT NORM               0.000136611611 Eh/α |
           -------------------------------------------------

 * finished run on 2025/07/20 at 04:39:48.777
