   * xtb version 6.7.1 (edcfbbe) compiled by 'albert@albert-system' on 2024-07-22

   ID    Z sym.   atoms
    1    6 C      1-9, 11-15, 17-20, 24-39
    2    7 N      10
    3    8 O      16, 22, 23
    4   16 S      21
    5    1 H      40-66

          program call               : xtb data2507/gas/PS-BZ-DMAC/PS-BZ-DMAC_gas_S0_finalOpt.xtbopt.xyz --gfn 2 --spinpol --tblite --uhf 2 --ohess vtight --parallel 40 --molden --ceasefiles --namespace data2507/gas/PS-BZ-DMAC/PS-BZ-DMAC_gas_T1_preOpt
 * total energy  :  -104.8287625 Eh     change        0.7457999E-09 Eh
 * total energy  :  -104.8319050 Eh     change       -0.3142455E-02 Eh
 * total energy  :  -104.8328245 Eh     change       -0.9194810E-03 Eh
 * total energy  :  -104.8330455 Eh     change       -0.2210579E-03 Eh
 * total energy  :  -104.8332763 Eh     change       -0.2308402E-03 Eh
 * total energy  :  -104.8334793 Eh     change       -0.2029123E-03 Eh
 * total energy  :  -104.8336673 Eh     change       -0.1880869E-03 Eh
 * total energy  :  -104.8338008 Eh     change       -0.1334355E-03 Eh
 * total energy  :  -104.8338799 Eh     change       -0.7911886E-04 Eh
 * total energy  :  -104.8339511 Eh     change       -0.7121070E-04 Eh
 * total energy  :  -104.8348912 Eh     change       -0.6875977E-06 Eh
 * total energy  :  -104.8348919 Eh     change       -0.6781168E-06 Eh
 * total energy  :  -104.8348926 Eh     change       -0.6511744E-06 Eh
 * total energy  :  -104.8348931 Eh     change       -0.5386741E-06 Eh
 * total energy  :  -104.8348936 Eh     change       -0.4889119E-06 Eh
 * total energy  :  -104.8348940 Eh     change       -0.4037922E-06 Eh
 * total energy  :  -104.8348946 Eh     change       -0.6462893E-06 Eh
 * total energy  :  -104.8348954 Eh     change       -0.7383776E-06 Eh
 * total energy  :  -104.8348954 Eh     change       -0.4169151E-07 Eh
   *** GEOMETRY OPTIMIZATION CONVERGED AFTER 122 ITERATIONS ***

 final structure:
================
66
 xtb: 6.7.1 (edcfbbe)
C           -7.84125065796228        0.83571484190014        1.25693029037622
C           -6.39912180815298        0.45677889321378        0.92122663000262
C           -5.69368385843593        0.04933989279159        2.23150247862803
C           -5.63204669042880        1.59947096030461        0.28175427117675
C           -6.05405647806290        2.91864162998481        0.26495292056449
C           -5.29392903951271        3.90176566285011       -0.34782008371192
C           -4.10660255702710        3.57315819046354       -0.98015485251456
C           -3.66658662011265        2.26439050078441       -0.97865850106255
C           -4.40888716855765        1.28435874765630       -0.32551332248916
N           -4.01246055932651       -0.06260616133021       -0.34612496752928
C           -2.75305218570906       -0.49380324940087        0.02922648276034
C           -1.78020743438516        0.41936991077632        0.48611896060340
C           -0.52873197380675       -0.00006211145792        0.85378596324329
C           -0.16394717125771       -1.35861547252218        0.76633834318851
C            1.15328146613762       -1.85597331543285        1.13259970139632
O            1.23133354625965       -3.03103961944567        1.59702998937797
C            2.31924932773013       -1.00645744315303        1.01895992781466
C            3.45928479578461       -1.31400406184942        1.79028746672712
C            4.59540039514863       -0.54798227425552        1.69232471309128
C            4.62668999075177        0.52737977342660        0.81495092197782
S            6.13048031854091        1.47020781398957        0.64359583054293
O            5.86327944671387        2.63564534198066       -0.16159159260619
O            6.73202788928208        1.66134494640069        1.93880903435666
C            7.17259970811848        0.34683686082537       -0.30057466105602
C            8.13097700746337       -0.40471026540756        0.34984045320834
C            8.89204290790310       -1.30528024321200       -0.37709653780965
C            8.68088714801446       -1.44455035413043       -1.73977458689409
C            7.71536051538729       -0.68429564439644       -2.38211460963855
C            6.95260000361956        0.21614653656909       -1.65798143581676
C            3.53579441834982        0.81840522856988        0.00940138389460
C            2.38923014945773        0.06418450403493        0.10841533652539
C           -1.18919274697063       -2.28364778348893        0.47375514782377
C           -2.43879714061058       -1.86590301674028        0.10260582459016
C           -5.07023456037191       -0.93016959962059       -0.66330548124934
C           -4.92218779366566       -1.92673093778743       -1.62403270748230
C           -5.99378214005247       -2.73629448466693       -1.94540086212633
C           -7.21603238190759       -2.54058312988938       -1.32513437180183
C           -7.37559270358916       -1.51745034094910       -0.40440989397795
C           -6.31511369028051       -0.69391003975449       -0.06446504428718
H           -7.85616702563380        1.65473750485391        1.97131097205622
H           -8.35082987757968       -0.00489329375684        1.72068379505873
H           -8.38584577635209        1.13291399311163        0.36355179618146
H           -4.65864914557493       -0.23569097004362        2.06356013696681
H           -5.70933160264662        0.88147652180526        2.93191272143544
H           -6.21152339618545       -0.79512441749912        2.68088491703806
H           -6.98450573601287        3.19750149530637        0.73147346329043
H           -5.63981711209680        4.92392926837239       -0.34438932102101
H           -3.52937333605633        4.33221472334637       -1.48509493632352
H           -2.76524297502925        1.98889887915624       -1.50474619477824
H           -2.03034040686649        1.46299574850885        0.59160677971696
H            0.17575628077106        0.71923881211352        1.24122867779198
H            3.40985538304190       -2.15285247002257        2.46705076728110
H            5.46350488923237       -0.75509825989262        2.29856847805349
H            8.27500320136775       -0.25919995586782        1.40903510684391
H            9.64872412702247       -1.89596036694578        0.11717194740835
H            9.27467905787329       -2.14692852038226       -2.30600040095627
H            7.55896407292180       -0.79368418115431       -3.44486552364905
H            6.20129137123604        0.83067034407284       -2.12863477855071
H            3.60836840231130        1.64568443733057       -0.67950144532092
H            1.55555416442789        0.27095920827880       -0.54570054292921
H           -0.95860505423238       -3.33596171235741        0.52588515512510
H           -3.19379457852304       -2.60534249598964       -0.10979658060702
H           -3.97842863918990       -2.03990653497128       -2.13535265778716
H           -5.87703324851324       -3.50980264447165       -2.68872148841620
H           -8.05476211291534       -3.17364502664486       -1.57070994906423
H           -8.34353934316696       -1.37093604312945        0.04586246983266

 projected vibrational frequencies (cm⁻¹)
eigval :       -0.00    -0.00    -0.00    -0.00     0.00     0.00
eigval :        6.76     9.85    16.73    22.47    25.25    32.29
eigval :       45.12    59.02    64.01    76.76    89.58   104.27
eigval :      132.46   135.25   140.17   143.10   163.97   171.00
eigval :      184.84   187.72   194.96   218.37   229.32   260.24
eigval :      266.84   282.68   284.59   293.92   305.52   315.64
eigval :      325.04   327.41   340.28   358.85   362.77   366.71
eigval :      371.46   385.13   394.64   398.91   410.74   421.35
eigval :      426.31   455.95   457.06   464.30   495.79   499.63
eigval :      506.72   513.78   543.53   546.57   558.34   570.83
eigval :      571.61   584.76   585.25   592.38   608.41   620.25
eigval :      652.88   657.25   661.02   670.33   687.82   690.40
eigval :      717.82   723.28   747.22   758.50   775.67   782.65
eigval :      797.01   806.92   810.44   830.90   853.32   879.21
eigval :      882.04   883.68   886.54   902.56   903.63   905.06
eigval :      906.59   909.52   917.29   919.14   922.79   926.66
eigval :      929.93   931.33   938.70   943.42   944.57   966.76
eigval :      968.55   982.59   999.71  1009.49  1069.85  1073.36
eigval :     1077.61  1082.24  1098.00  1102.46  1104.29  1105.41
eigval :     1119.20  1125.20  1135.70  1148.27  1150.61  1157.32
eigval :     1163.64  1171.40  1178.14  1178.93  1181.75  1188.31
eigval :     1192.88  1211.39  1229.55  1230.25  1236.07  1247.19
eigval :     1258.37  1259.86  1260.95  1268.51  1271.45  1282.63
eigval :     1317.72  1320.74  1322.64  1326.99  1331.90  1341.57
eigval :     1391.76  1400.03  1409.14  1416.60  1420.47  1425.04
eigval :     1429.06  1431.30  1434.82  1441.25  1445.61  1445.75
eigval :     1460.07  1467.40  1490.99  1493.66  1505.56  1514.54
eigval :     1522.13  1530.90  1562.14  1563.23  1570.54  1575.97
eigval :     1576.85  1586.78  1596.60  3032.16  3033.56  3036.09
eigval :     3037.36  3050.43  3053.80  3079.45  3080.97  3086.35
eigval :     3088.08  3088.49  3093.62  3093.69  3093.99  3094.14
eigval :     3094.96  3099.53  3102.82  3103.35  3103.57  3104.18
eigval :     3104.46  3105.24  3107.70  3113.69  3116.42  3116.82

   temp. (K)  partition function   enthalpy   heat capacity  entropy
                                   cal/mol     cal/K/mol   cal/K/mol   J/K/mol
 298.15  VIB  0.444E+16            19597.731    122.214    121.878
         ROT  0.612E+08              888.752      2.981     38.611
         INT  0.272E+24            20486.484    125.195    160.489
         TR   0.118E+29             1481.254      4.968     44.667
         TOT                       21967.7374   130.1634   205.1560   858.3726

       T/K    H(0)-H(T)+PV         H(T)/Eh          T*S/Eh         G(T)/Eh
   ------------------------------------------------------------------------
    298.15    0.350078E-01    0.539522E+00    0.974762E-01    0.442046E+00
   ------------------------------------------------------------------------

         :::::::::::::::::::::::::::::::::::::::::::::::::::::
         ::                  THERMODYNAMIC                  ::
         :::::::::::::::::::::::::::::::::::::::::::::::::::::
         :: total free energy        -104.392849750828 Eh   ::
         ::.................................................::
         :: total energy             -104.834895434486 Eh   ::
         :: zero point energy           0.504514094606 Eh   ::
         :: G(RRHO) w/o ZPVE           -0.062468410948 Eh   ::
         :: G(RRHO) contrib.            0.442045683658 Eh   ::
         :::::::::::::::::::::::::::::::::::::::::::::::::::::

           -------------------------------------------------
          | TOTAL ENERGY             -104.834895434486 Eh   |
          | TOTAL ENTHALPY           -104.295373521932 Eh   |
          | TOTAL FREE ENERGY        -104.392849750828 Eh   |
          | GRADIENT NORM               0.000106228991 Eh/α |
           -------------------------------------------------

 * finished run on 2025/07/20 at 04:36:26.550
