   * xtb version 6.7.1 (edcfbbe) compiled by 'albert@albert-system' on 2024-07-22

   ID    Z sym.   atoms
    1    6 C      1-36, 38-42
    2    7 N      37
    3    1 H      43-83

          program call               : xtb data2507/gas/C2FLA-1/C2FLA-1.xyz --gfn 2 --ohess vtight --parallel 40 --molden --ceasefiles --namespace data2507/gas/C2FLA-1/C2FLA-1_gas_S0_preOpt
          :  Hamiltonian                  GFN2-xTB          :
 * total energy  :  -111.5906573 Eh     change       -0.3035609E-08 Eh
 * total energy  :  -111.5982343 Eh     change       -0.7576946E-02 Eh
 * total energy  :  -111.5999605 Eh     change       -0.1726197E-02 Eh
 * total energy  :  -111.6002040 Eh     change       -0.2435615E-03 Eh
 * total energy  :  -111.6003030 Eh     change       -0.9898619E-04 Eh
 * total energy  :  -111.6005888 Eh     change       -0.2857607E-03 Eh
 * total energy  :  -111.6006406 Eh     change       -0.5182134E-04 Eh
 * total energy  :  -111.6007141 Eh     change       -0.7355179E-04 Eh
 * total energy  :  -111.6007680 Eh     change       -0.5391235E-04 Eh
 * total energy  :  -111.6008294 Eh     change       -0.6133417E-04 Eh
 * total energy  :  -111.6010527 Eh     change       -0.3881710E-06 Eh
 * total energy  :  -111.6010531 Eh     change       -0.4089311E-06 Eh
 * total energy  :  -111.6010535 Eh     change       -0.4013984E-06 Eh
 * total energy  :  -111.6010539 Eh     change       -0.3971497E-06 Eh
 * total energy  :  -111.6010542 Eh     change       -0.3768596E-06 Eh
 * total energy  :  -111.6010546 Eh     change       -0.3541129E-06 Eh
 * total energy  :  -111.6010549 Eh     change       -0.3340736E-06 Eh
 * total energy  :  -111.6010552 Eh     change       -0.3115582E-06 Eh
 * total energy  :  -111.6010553 Eh     change       -0.5462169E-08 Eh
   *** GEOMETRY OPTIMIZATION CONVERGED AFTER 68 ITERATIONS ***

 final structure:
================
83
 xtb: 6.7.1 (edcfbbe)
C           -6.52603655577366       -2.07233796807523       -3.23596199347080
C           -6.63504725408714       -1.61606342368417       -1.78503959268990
C           -5.53894077994561       -0.60726470549573       -1.45421846523576
C           -5.46642409164473       -0.12313581129002        0.00915854453284
C           -5.32536201792859       -1.25832150413835        1.04314905053214
C           -4.15103664404922       -2.21496105517607        0.85476810016813
C           -4.21509270391924       -3.35155081281060        1.86942336888288
C           -6.66676014934295        0.71768497138518        0.40144200331539
C           -7.98243499245302        0.34046427506956        0.57642907583516
C           -8.91428494155708        1.29581566875702        0.96064337912700
C           -8.53671145616042        2.61013451972073        1.18535060671235
C           -7.21395096278103        2.99389199617905        1.04563490991248
C           -6.28386433861808        2.04269235496715        0.65896255636151
C           -4.85078980683099        2.15574474588426        0.46596651860054
C           -4.01324118129396        3.25470245171648        0.58161710445595
C           -2.66674207941542        3.09959058066707        0.31748468361761
C           -2.16124186984126        1.85719819882441       -0.07286950871819
C           -0.78477785751086        1.71546374735588       -0.35294889200195
C            0.39355440733177        1.59379334195309       -0.59117720620972
C            1.77101339455264        1.45197604765932       -0.86489836693047
C            2.34019750652484        2.13159896464404       -1.94665120522715
C            3.68593652241531        2.00660732922017       -2.22935117419668
C            4.46799262662200        1.19977980673606       -1.41540431654025
C            3.90312625385492        0.51966208690262       -0.32502224813091
C            2.56053726140135        0.63208838103370       -0.05009645894195
C            4.94507473344209       -0.32007767828843        0.38124068520815
C            4.57349537306525       -1.79857200073434        0.10342445823953
C            5.55152649333083       -2.84820728275856        0.62325797929394
C            5.01560842050740       -4.25347261953875        0.37214833865789
C            5.02104614841105       -0.04898820097986        1.89302198603127
C            4.96896361175096        1.42646544220179        2.29758600698129
C            6.20411185213075        2.22702979765465        1.90313656019854
C            6.19861268300711        0.06132137654394       -0.37088736711986
C            7.50334453439127       -0.30035881930232       -0.13041348346895
C            8.50033853578073        0.16807010582048       -0.99536663122313
C            9.84408840131672       -0.19527800464320       -0.76002001856609
N           10.93376650037639       -0.49592909317264       -0.56410337221839
C            8.18608063223501        0.98850680138408       -2.08125558743487
C            6.87761305749687        1.36982284405798       -2.30709378767050
C            5.88826215203359        0.91169746905287       -1.44926910352726
C           -3.01052767058918        0.75066792698888       -0.19434966550230
C           -4.34773942263840        0.89810264398624        0.09472443264768
H           -6.61392599988132       -1.22328835444694       -3.91049199896859
H           -5.56688624713135       -2.55348651060285       -3.41697749299991
H           -7.31515425090409       -2.78202739918866       -3.47378505851251
H           -6.55546028835854       -2.48672265990381       -1.13244330418205
H           -7.61333206128702       -1.16002060365148       -1.63145596455908
H           -5.67702762771391        0.27631082386053       -2.08448767876146
H           -4.57157999274849       -1.04056761889327       -1.71705825467559
H           -5.24341801407259       -0.79425601505387        2.03048895506925
H           -6.25149895324393       -1.83667941422320        1.03706678336536
H           -4.16620970766915       -2.63709896905368       -0.15109430910188
H           -3.21155403925995       -1.67768147530800        0.98700027039634
H           -5.13094645168991       -3.92611073293225        1.74603447896160
H           -4.19312329003804       -2.95936064750337        2.88397889031809
H           -3.36982154832186       -4.02438587375256        1.74344081445250
H           -8.29869963308186       -0.68144100644655        0.43069197047976
H           -9.94730023016183        1.00771667272856        1.09121544329672
H           -9.27882385845736        3.33640364428278        1.48343692982410
H           -6.91266671707961        4.01252906886428        1.24035432042388
H           -4.40634963972579        4.21887004637872        0.86797865083222
H           -1.99081144171548        3.93812519832495        0.40245741762061
H            1.70863028892363        2.75627960001209       -2.56128884244030
H            4.11922107530197        2.53082535721894       -3.06818393058110
H            2.10721019198591        0.11499882419664        0.78317102665655
H            4.47062698547505       -1.92314826804278       -0.97857211449723
H            3.59190757028094       -1.98215931861216        0.54757411074107
H            5.71106364235681       -2.71526538708815        1.69430513877384
H            6.51183824351200       -2.74125666385333        0.11729023901967
H            4.85606543557746       -4.41712976759395       -0.69145585426932
H            5.72042092503683       -4.99926194955323        0.73169616874141
H            4.06823091051337       -4.40078033649337        0.88653682727386
H            4.18050135217655       -0.55991365853609        2.36920175212090
H            5.94102567263359       -0.48587949148573        2.28510565914942
H            4.08221595757803        1.89511091489243        1.86603259755266
H            4.86351864770638        1.46428524735744        3.38510300329858
H            6.16075572865320        3.21928087209317        2.34708748529832
H            7.10963518083908        1.73563456210338        2.25336836132190
H            6.27139352829765        2.34338123072423        0.82524209163063
H            7.78171567052423       -0.91718805159632        0.71090113801081
H            8.97811292242376        1.32940084290481       -2.73183275817875
H            6.63320229140562        2.01935685452693       -3.13407636714535
H           -2.59598655427565       -0.18945748296595       -0.52572750001717

          :  Hamiltonian                  GFN2-xTB          :
         :: gradient norm              0.000051132110 Eh/a0 ::
         :: HOMO-LUMO gap              2.469247036584 eV    ::
         :: SCC energy              -113.674127701719 Eh    ::
         :: -> dispersion             -0.100438669057 Eh    ::
         :: repulsion energy           2.073072450987 Eh    ::

    * Orbital Energies and Occupations

         #    Occupation            Energy/Eh            Energy/eV
      -------------------------------------------------------------
         1        2.0000           -0.6689433             -18.2029
       ...           ...                  ...                  ...
        93        2.0000           -0.4208387             -11.4516
        94        2.0000           -0.4201948             -11.4341
        95        2.0000           -0.4173278             -11.3561
        96        2.0000           -0.4140470             -11.2668
        97        2.0000           -0.4135833             -11.2542
        98        2.0000           -0.4090057             -11.1296
        99        2.0000           -0.4078309             -11.0976
       100        2.0000           -0.4056798             -11.0391
       101        2.0000           -0.4047784             -11.0146
       102        2.0000           -0.4038121             -10.9883
       103        2.0000           -0.3962804             -10.7833
       104        2.0000           -0.3818132             -10.3897
       105        2.0000           -0.3711833             -10.1004 (HOMO)
       106                         -0.2804402              -7.6312 (LUMO)
       107                         -0.2586840              -7.0392
       108                         -0.2375839              -6.4650
       109                         -0.2338584              -6.3636
       110                         -0.2284251              -6.2158
       111                         -0.2242706              -6.1027
       112                         -0.2200422              -5.9877
       113                         -0.2038661              -5.5475
       114                         -0.1999730              -5.4415
       115                         -0.1745638              -4.7501
       116                         -0.1416313              -3.8540
       ...                                ...                  ...
       209                          1.4265283              38.8178
      -------------------------------------------------------------
                  HL-Gap            0.0907432 Eh            2.4692 eV

     #   Z          covCN         q      C6AA      α(0)
     1   6 C        3.753    -0.102    22.504     6.765
     2   6 C        3.800    -0.053    21.521     6.605
     3   6 C        3.809    -0.054    21.528     6.605
     4   6 C        3.932     0.009    20.367     6.414
     5   6 C        3.809    -0.054    21.540     6.607
     6   6 C        3.800    -0.052    21.514     6.604
     7   6 C        3.753    -0.102    22.503     6.765
     8   6 C        3.053    -0.002    28.022     8.681
     9   6 C        2.916    -0.035    28.881     8.813
    10   6 C        2.922    -0.033    28.831     8.805
    11   6 C        2.921    -0.033    28.824     8.804
    12   6 C        2.914    -0.034    28.853     8.808
    13   6 C        3.037    -0.001    28.008     8.680
    14   6 C        3.037    -0.001    28.005     8.680
    15   6 C        2.913    -0.034    28.848     8.807
    16   6 C        2.929    -0.033    28.832     8.806
    17   6 C        2.973     0.033    27.266     8.565
    18   6 C        1.983    -0.039    32.091     9.148
    19   6 C        1.983    -0.044    32.236     9.169
    20   6 C        2.973     0.037    27.161     8.549
    21   6 C        2.929    -0.033    28.827     8.805
    22   6 C        2.913    -0.032    28.803     8.800
    23   6 C        3.036    -0.002    28.050     8.687
    24   6 C        3.059     0.003    27.903     8.663
    25   6 C        2.923    -0.035    28.881     8.813
    26   6 C        3.934     0.011    20.331     6.408
    27   6 C        3.812    -0.053    21.520     6.603
    28   6 C        3.800    -0.053    21.528     6.606
    29   6 C        3.753    -0.103    22.524     6.768
    30   6 C        3.804    -0.056    21.575     6.613
    31   6 C        3.799    -0.052    21.503     6.602
    32   6 C        3.751    -0.099    22.459     6.759
    33   6 C        3.050     0.008    27.803     8.648
    34   6 C        2.923    -0.026    28.647     8.777
    35   6 C        2.975     0.013    27.730     8.638
    36   6 C        1.914     0.110    28.372     8.602
    37   7 N        0.911    -0.243    26.349     7.424
    38   6 C        2.928    -0.025    28.617     8.773
    39   6 C        2.913    -0.033    28.831     8.805
    40   6 C        3.038     0.007    27.835     8.654
    41   6 C        2.924    -0.036    28.902     8.816
    42   6 C        3.051    -0.001    28.011     8.680
    43   1 H        0.925     0.033     2.543     2.494
    44   1 H        0.925     0.032     2.557     2.501
    45   1 H        0.925     0.034     2.534     2.489
    46   1 H        0.924     0.034     2.532     2.488
    47   1 H        0.924     0.034     2.528     2.486
    48   1 H        0.924     0.030     2.584     2.514
    49   1 H        0.924     0.037     2.487     2.466
    50   1 H        0.924     0.030     2.584     2.514
    51   1 H        0.924     0.038     2.476     2.461
    52   1 H        0.924     0.034     2.531     2.488
    53   1 H        0.924     0.033     2.543     2.494
    54   1 H        0.925     0.032     2.554     2.499
    55   1 H        0.925     0.033     2.543     2.494
    56   1 H        0.925     0.033     2.540     2.492
    57   1 H        0.926     0.029     2.607     2.525
    58   1 H        0.926     0.028     2.610     2.526
    59   1 H        0.926     0.028     2.609     2.526
    60   1 H        0.926     0.029     2.595     2.519
    61   1 H        0.926     0.030     2.588     2.516
    62   1 H        0.926     0.031     2.576     2.510
    63   1 H        0.926     0.034     2.532     2.488
    64   1 H        0.926     0.031     2.572     2.508
    65   1 H        0.926     0.032     2.563     2.503
    66   1 H        0.924     0.031     2.566     2.505
    67   1 H        0.924     0.038     2.477     2.461
    68   1 H        0.924     0.033     2.539     2.492
    69   1 H        0.924     0.034     2.530     2.487
    70   1 H        0.925     0.034     2.524     2.484
    71   1 H        0.925     0.037     2.488     2.467
    72   1 H        0.925     0.034     2.528     2.487
    73   1 H        0.924     0.035     2.510     2.478
    74   1 H        0.924     0.038     2.473     2.459
    75   1 H        0.924     0.032     2.553     2.499
    76   1 H        0.924     0.031     2.567     2.506
    77   1 H        0.925     0.033     2.543     2.494
    78   1 H        0.925     0.033     2.545     2.495
    79   1 H        0.925     0.031     2.567     2.506
    80   1 H        0.926     0.038     2.474     2.460
    81   1 H        0.926     0.038     2.476     2.460
    82   1 H        0.926     0.036     2.507     2.476
    83   1 H        0.926     0.031     2.572     2.508

molecular dipole:
                 x           y           z       tot (Debye)
 q only:       -1.755      -0.242       0.067
   full:       -2.179      -0.066      -0.052       5.543

 projected vibrational frequencies (cm⁻¹)
eigval :       -0.00    -0.00    -0.00     0.00     0.00     0.00
eigval :       -3.99    12.06    12.55    29.90    40.84    42.35
eigval :       46.73    51.57    53.00    57.38    62.66    66.55
eigval :       72.08    77.55    82.99    83.88   101.45   107.40
eigval :      116.81   128.02   134.06   142.20   153.21   167.39
eigval :      189.42   192.13   198.29   215.97   223.69   231.36
eigval :      235.02   237.32   239.89   249.17   266.09   272.78
eigval :      282.99   287.61   295.09   298.80   302.34   310.54
eigval :      318.57   346.75   355.29   365.36   375.49   396.09
eigval :      422.55   425.35   437.06   445.26   447.54   451.23
eigval :      476.13   476.78   500.53   515.95   520.03   529.25
eigval :      546.80   557.76   579.51   591.15   595.66   599.82
eigval :      609.92   614.88   629.33   645.72   682.88   694.68
eigval :      698.75   724.21   725.53   731.73   742.49   747.76
eigval :      768.22   779.45   784.17   788.09   807.60   820.84
eigval :      822.39   828.73   834.26   863.65   879.09   881.71
eigval :      882.14   886.77   889.52   894.75   899.10   907.06
eigval :      910.27   910.75   912.69   914.42   928.35   933.09
eigval :      935.37   944.18   952.48   966.04   990.55   998.06
eigval :      998.58  1005.44  1012.51  1067.97  1071.32  1081.60
eigval :     1085.93  1089.42  1090.06  1090.93  1106.73  1107.54
eigval :     1114.09  1125.41  1128.13  1128.53  1141.86  1145.89
eigval :     1151.08  1154.59  1155.79  1160.62  1173.65  1180.20
eigval :     1181.99  1196.67  1212.16  1215.12  1221.39  1224.98
eigval :     1233.95  1244.01  1246.70  1249.55  1257.21  1262.39
eigval :     1265.57  1277.25  1281.10  1286.57  1288.67  1294.68
eigval :     1301.26  1303.73  1306.73  1309.83  1323.29  1326.31
eigval :     1334.46  1344.54  1356.51  1360.80  1366.42  1367.15
eigval :     1367.63  1370.54  1417.25  1417.30  1417.51  1419.50
eigval :     1420.45  1424.02  1430.32  1437.37  1445.10  1453.10
eigval :     1466.74  1479.50  1482.22  1488.24  1489.57  1492.01
eigval :     1492.56  1495.64  1498.10  1502.69  1504.11  1504.50
eigval :     1505.45  1505.87  1506.40  1507.82  1507.91  1510.67
eigval :     1561.93  1569.41  1576.16  1587.02  1590.40  1595.62
eigval :     1600.91  1605.84  2315.43  2369.38  2952.64  2954.11
eigval :     2955.00  2960.94  2965.43  2970.06  2977.94  2979.86
eigval :     2983.74  2987.70  2987.97  2989.71  2991.01  2997.67
eigval :     3000.52  3002.10  3027.82  3028.33  3029.33  3030.31
eigval :     3031.89  3032.25  3033.71  3034.17  3037.14  3037.64
eigval :     3041.04  3057.48  3072.02  3077.03  3078.86  3079.18
eigval :     3082.31  3083.78  3085.70  3089.42  3089.90  3090.32
eigval :     3091.38  3092.25  3094.72

   temp. (K)  partition function   enthalpy   heat capacity  entropy
                                   cal/mol     cal/K/mol   cal/K/mol   J/K/mol
 298.15  VIB  0.357E+20            23875.080    142.440    153.515
         ROT  0.800E+08              888.752      2.981     39.145
         INT  0.286E+28            24763.832    145.421    192.660
         TR   0.124E+29             1481.254      4.968     44.767
         TOT                       26245.0858   150.3894   237.4273   993.3957

       T/K    H(0)-H(T)+PV         H(T)/Eh          T*S/Eh         G(T)/Eh
   ------------------------------------------------------------------------
    298.15    0.418242E-01    0.731968E+00    0.112809E+00    0.619159E+00
   ------------------------------------------------------------------------

         :::::::::::::::::::::::::::::::::::::::::::::::::::::
         ::                  THERMODYNAMIC                  ::
         :::::::::::::::::::::::::::::::::::::::::::::::::::::
         :: total free energy        -110.981896596181 Eh   ::
         ::.................................................::
         :: total energy             -111.601055250731 Eh   ::
         :: zero point energy           0.690143811446 Eh   ::
         :: G(RRHO) w/o ZPVE           -0.070985156895 Eh   ::
         :: G(RRHO) contrib.            0.619158654550 Eh   ::
         :::::::::::::::::::::::::::::::::::::::::::::::::::::

           -------------------------------------------------
          | TOTAL ENERGY             -111.601055250731 Eh   |
          | TOTAL ENTHALPY           -110.869087232874 Eh   |
          | TOTAL FREE ENERGY        -110.981896596181 Eh   |
          | GRADIENT NORM               0.000051135369 Eh/α |
          | HOMO-LUMO GAP               2.469247211412 eV   |
           -------------------------------------------------

 * finished run on 2025/09/05 at 12:12:38.763
