   * xtb version 6.7.1 (edcfbbe) compiled by 'albert@albert-system' on 2024-07-22

   ID    Z sym.   atoms
    1    6 C      1-36, 38-42
    2    7 N      37
    3    1 H      43-83

          program call               : xtb data2507/gas/C2FLA-1/C2FLA-1_gas_T1_crest.xyz --gfn 2 --spinpol --tblite --uhf 2 --ohess vtight --parallel 40 --molden --ceasefiles --namespace data2507/gas/C2FLA-1/C2FLA-1_gas_T1_finalOpt
 * total energy  :  -111.5360377 Eh     change       -0.2923116E-08 Eh
 * total energy  :  -111.5360456 Eh     change       -0.7897119E-05 Eh
 * total energy  :  -111.5360393 Eh     change        0.6255077E-05 Eh
 * total energy  :  -111.5360492 Eh     change       -0.9835847E-05 Eh
 * total energy  :  -111.5360497 Eh     change       -0.5743196E-06 Eh
 * total energy  :  -111.5360509 Eh     change       -0.1165355E-05 Eh
 * total energy  :  -111.5360516 Eh     change       -0.6922762E-06 Eh
 * total energy  :  -111.5360516 Eh     change       -0.3790913E-07 Eh
 * total energy  :  -111.5360522 Eh     change       -0.5338474E-06 Eh
 * total energy  :  -111.5360525 Eh     change       -0.3752392E-06 Eh
 * total energy  :  -111.5360540 Eh     change       -0.3224967E-06 Eh
 * total energy  :  -111.5360539 Eh     change        0.8905673E-07 Eh
 * total energy  :  -111.5360541 Eh     change       -0.1470016E-06 Eh
 * total energy  :  -111.5360543 Eh     change       -0.2438425E-06 Eh
 * total energy  :  -111.5360546 Eh     change       -0.2930510E-06 Eh
 * total energy  :  -111.5360549 Eh     change       -0.2421086E-06 Eh
 * total energy  :  -111.5360550 Eh     change       -0.1829901E-06 Eh
 * total energy  :  -111.5360553 Eh     change       -0.2927566E-06 Eh
 * total energy  :  -111.5360553 Eh     change       -0.2296740E-07 Eh
   *** GEOMETRY OPTIMIZATION CONVERGED AFTER 22 ITERATIONS ***

 final structure:
================
83
 xtb: 6.7.1 (edcfbbe)
C           -5.32953596550714        3.84528757606835       -1.91819045477923
C           -5.50471354847416        2.59644309844159       -1.06340185890200
C           -5.33233219484953        1.32616079998400       -1.89332314103805
C           -5.50589697909044        0.03827328232297       -1.06716429911769
C           -5.31924645702148       -1.18749570430648       -1.97981857131552
C           -5.48164011473824       -2.51348910833988       -1.23997768811426
C           -5.28738524666934       -3.69863062656490       -2.17735686574265
C           -6.84503039167391        0.00885547607421       -0.36973265552667
C           -8.10568332625319        0.01847606494521       -0.91907081681374
C           -9.20918904821411       -0.01327218695073       -0.07209851251765
C           -9.04661401345566       -0.05379872875904        1.30767582671177
C           -7.78636957932246       -0.06362449011666        1.87321062477506
C           -6.67566337810969       -0.03221639482747        1.03162512729364
C           -5.27508404236957       -0.03400350776821        1.32671118101736
C           -4.59104794579768       -0.06550849655416        2.55088855589771
C           -3.22504927549378       -0.06011751289195        2.55311590669787
C           -2.48581475990041       -0.02535792076613        1.33353536467302
C           -1.11704620952987       -0.02394057893756        1.35276673707254
C            0.11738137124411       -0.02306911090490        1.36622858138325
C            1.48110384683259       -0.02272915144442        1.37788195569710
C            2.19651711517180       -0.03651406315793        2.62011422818299
C            3.55556834530204       -0.03421110526768        2.65267840267379
C            4.27770407061061       -0.02010764566089        1.43819901010917
C            3.57390425397878       -0.00915424747120        0.19073476317021
C            2.22051535824860       -0.00893494981755        0.14962538924047
C            4.55858121914824        0.00067019453904       -0.95641530297880
C            4.39813124704595        1.26247455229160       -1.82414193014366
C            4.54121398174166        2.55742956195212       -1.02741401050738
C            4.36775786941336        3.77957357600516       -1.92017433526409
C            4.40525025512117       -1.25325066058274       -1.83727043345853
C            4.55331201672608       -2.55568982689502       -1.05370588751226
C            4.39241132173746       -3.76944800351172       -1.96015547403781
C            5.88001995014693       -0.00074900871646       -0.22500758371750
C            7.14358217072436        0.00784029781134       -0.74291578807308
C            8.24034987688486        0.00327948865467        0.14342050267905
C            9.54635837520331        0.01215829004561       -0.36852032398164
N           10.61547555652174        0.01943388345120       -0.79378896451383
C            8.03451275525524       -0.01024661292066        1.53656095941166
C            6.76642925084777       -0.01901563164284        2.05810973541709
C            5.66747855889814       -0.01420809929685        1.18242919266720
C           -3.19092687876528        0.00761618492085        0.09360221630090
C           -4.55060679137900        0.00437055801106        0.10366987362545
H           -4.33665744553728        3.86838248353519       -2.36248683666477
H           -6.06411191203699        3.86567700353710       -2.72048722036383
H           -5.45584105219210        4.74127452270799       -1.31535291541279
H           -6.49855601807893        2.60157924402952       -0.61006177613857
H           -4.77136539176687        2.60425605704590       -0.25381679149340
H           -4.33707868915796        1.32340134095683       -2.34373830894212
H           -6.06491127595266        1.32493976335211       -2.70360034461161
H           -6.04998572666295       -1.13690704147863       -2.79016961452846
H           -4.32314952075448       -1.14473390649452       -2.42633823743050
H           -4.75266383001860       -2.56861343864731       -0.42828120178184
H           -6.47780454689832       -2.56059250810612       -0.79422860469633
H           -5.40726578035911       -4.63533133000597       -1.63850219025014
H           -4.29162794271874       -3.68035187977877       -2.61541051532966
H           -6.01675947244784       -3.67160206515817       -2.98419174007571
H           -8.24600696520870        0.04995187779385       -1.98982204698926
H          -10.20433092332478       -0.00631099511217       -0.49155776294558
H           -9.91966135306579       -0.07788711444277        1.94352787600604
H           -7.66261974591144       -0.09518100778941        2.94534309613149
H           -5.14271854376050       -0.09355269151281        3.47890900860359
H           -2.67249757401044       -0.08371955529356        3.48090414759064
H            1.61875760694502       -0.04736584503438        3.53282389039960
H            4.08678487761080       -0.04316074582421        3.59284087374746
H            1.67275615607482       -0.00006656899398       -0.78128832460023
H            3.41425012287563        1.23935895916253       -2.29841862671990
H            5.15030795587352        1.24319908422880       -2.61602441358154
H            5.52672576713943        2.58800344288240       -0.55715380399020
H            3.79334220921890        2.57906319901110       -0.23124930258748
H            4.47307940828619        4.69360014333920       -1.34082963857737
H            5.11684815569063        3.78576067966104       -2.70908393269101
H            3.38296071783103        3.77833723372209       -2.38284277784547
H            3.42201125141793       -1.22994528602676       -2.31286986543238
H            5.15871494935687       -1.22224714391494       -2.62756814800821
H            5.53680735426560       -2.58479349957132       -0.57913163760360
H            3.80190136449272       -2.59090285325393       -0.26136717077821
H            3.41048465457398       -3.76916254257834       -2.42887267191013
H            5.14638105735236       -3.76316980195356       -2.74440367271762
H            4.49954545919461       -4.68877873261610       -1.38959523696279
H            7.32456212767386        0.01802813978738       -1.80804036465794
H            8.89728448639693       -0.01353919887892        2.18707208382475
H            6.61098527866569       -0.02931358376968        3.12635203895236
H           -2.62367653186246        0.03552058863870       -0.82515409678149

 projected vibrational frequencies (cm⁻¹)
eigval :       -0.00    -0.00    -0.00    -0.00     0.00     0.00
eigval :        8.97    11.35    12.45    25.18    40.17    47.87
eigval :       51.03    53.70    54.57    59.03    65.50    68.26
eigval :       72.45    74.67    78.10    80.65    84.84    90.74
eigval :       96.92   110.93   121.11   137.99   144.74   149.64
eigval :      184.07   202.11   205.20   205.61   218.47   221.59
eigval :      224.52   231.74   232.07   237.85   248.77   251.56
eigval :      252.96   283.25   285.06   302.49   304.36   305.16
eigval :      312.72   333.21   335.45   346.90   356.59   383.24
eigval :      402.89   421.26   422.66   440.44   442.69   448.37
eigval :      449.23   461.80   494.35   507.20   512.74   526.59
eigval :      539.28   557.24   566.84   568.21   572.39   576.37
eigval :      582.28   617.30   620.11   624.90   669.17   700.66
eigval :      702.11   709.00   709.89   717.10   723.13   725.99
eigval :      764.56   770.06   781.34   781.71   789.85   800.86
eigval :      806.60   809.28   813.68   846.26   849.52   857.02
eigval :      868.73   870.69   881.54   894.26   894.50   898.90
eigval :      902.29   903.93   906.14   906.59   922.01   930.40
eigval :      930.46   937.02   951.64   958.31   959.77   981.33
eigval :      988.62  1011.46  1018.80  1071.83  1079.26  1079.96
eigval :     1083.74  1085.85  1086.11  1089.72  1093.19  1097.01
eigval :     1097.03  1105.30  1113.23  1135.98  1136.86  1137.36
eigval :     1138.56  1142.08  1147.18  1150.81  1158.56  1180.56
eigval :     1182.56  1199.10  1203.46  1213.12  1218.66  1220.43
eigval :     1231.56  1231.74  1234.16  1241.89  1248.75  1256.80
eigval :     1264.99  1267.74  1278.23  1278.32  1285.01  1285.03
eigval :     1285.92  1292.68  1298.13  1301.87  1306.98  1313.95
eigval :     1323.13  1328.09  1340.21  1356.06  1356.18  1356.21
eigval :     1370.79  1371.05  1372.47  1397.10  1405.32  1415.86
eigval :     1415.97  1416.04  1416.18  1421.85  1450.52  1453.64
eigval :     1458.72  1479.64  1479.72  1485.46  1487.34  1488.77
eigval :     1491.69  1497.47  1497.81  1498.19  1498.54  1504.45
eigval :     1504.48  1504.65  1504.71  1505.85  1505.89  1506.01
eigval :     1506.10  1506.38  1525.16  1552.39  1567.82  1578.86
eigval :     1591.06  1615.42  2124.76  2323.98  2958.84  2959.13
eigval :     2960.84  2961.30  2971.88  2973.15  2973.95  2974.42
eigval :     2974.47  2975.02  2979.11  2979.63  2984.24  2985.40
eigval :     2986.54  2987.52  3029.21  3029.31  3029.37  3029.53
eigval :     3032.83  3033.11  3033.15  3033.51  3040.82  3040.88
eigval :     3040.96  3041.17  3073.55  3076.48  3076.62  3078.15
eigval :     3080.08  3080.76  3081.77  3082.15  3086.25  3089.04
eigval :     3090.37  3092.08  3093.58

   temp. (K)  partition function   enthalpy   heat capacity  entropy
                                   cal/mol     cal/K/mol   cal/K/mol   J/K/mol
 298.15  VIB  0.572E+20            24374.917    144.585    156.996
         ROT  0.763E+08              888.752      2.981     39.051
         INT  0.437E+28            25263.670    147.565    196.047
         TR   0.124E+29             1481.254      4.968     44.767
         TOT                       26744.9235   152.5336   240.8142  1007.5667

       T/K    H(0)-H(T)+PV         H(T)/Eh          T*S/Eh         G(T)/Eh
   ------------------------------------------------------------------------
    298.15    0.426207E-01    0.727883E+00    0.114419E+00    0.613465E+00
   ------------------------------------------------------------------------

         :::::::::::::::::::::::::::::::::::::::::::::::::::::
         ::                  THERMODYNAMIC                  ::
         :::::::::::::::::::::::::::::::::::::::::::::::::::::
         :: total free energy        -110.922590645942 Eh   ::
         ::.................................................::
         :: total energy             -111.536055354560 Eh   ::
         :: zero point energy           0.685262565636 Eh   ::
         :: G(RRHO) w/o ZPVE           -0.071797857019 Eh   ::
         :: G(RRHO) contrib.            0.613464708618 Eh   ::
         :::::::::::::::::::::::::::::::::::::::::::::::::::::

           -------------------------------------------------
          | TOTAL ENERGY             -111.536055354560 Eh   |
          | TOTAL ENTHALPY           -110.808172040331 Eh   |
          | TOTAL FREE ENERGY        -110.922590645942 Eh   |
          | GRADIENT NORM               0.000132442684 Eh/α |
           -------------------------------------------------

 * finished run on 2025/09/05 at 12:47:09.608
