   * xtb version 6.7.1 (edcfbbe) compiled by 'albert@albert-system' on 2024-07-22

   ID    Z sym.   atoms
    1    6 C      1-36, 38-42
    2    7 N      37
    3    1 H      43-83

          program call               : xtb data2507/gas/C2FLA-1/C2FLA-1_gas_S0_crest.xyz --gfn 2 --ohess vtight --parallel 40 --molden --ceasefiles --namespace data2507/gas/C2FLA-1/C2FLA-1_gas_S0_finalOpt
          :  Hamiltonian                  GFN2-xTB          :
 * total energy  :  -111.6133258 Eh     change       -0.4113232E-08 Eh
 * total energy  :  -111.6133244 Eh     change        0.1434215E-05 Eh
 * total energy  :  -111.6133280 Eh     change       -0.3628552E-05 Eh
 * total energy  :  -111.6133304 Eh     change       -0.2386996E-05 Eh
 * total energy  :  -111.6133329 Eh     change       -0.2489449E-05 Eh
 * total energy  :  -111.6133379 Eh     change       -0.5071607E-05 Eh
 * total energy  :  -111.6133432 Eh     change       -0.5225244E-05 Eh
 * total energy  :  -111.6133479 Eh     change       -0.4694308E-05 Eh
 * total energy  :  -111.6133533 Eh     change       -0.5460669E-05 Eh
 * total energy  :  -111.6133622 Eh     change       -0.8835142E-05 Eh
 * total energy  :  -111.6134146 Eh     change       -0.1077224E-05 Eh
 * total energy  :  -111.6134157 Eh     change       -0.1045822E-05 Eh
 * total energy  :  -111.6134168 Eh     change       -0.1153322E-05 Eh
 * total energy  :  -111.6134179 Eh     change       -0.1052132E-05 Eh
 * total energy  :  -111.6134187 Eh     change       -0.8022744E-06 Eh
 * total energy  :  -111.6134192 Eh     change       -0.5469383E-06 Eh
 * total energy  :  -111.6134196 Eh     change       -0.3547116E-06 Eh
 * total energy  :  -111.6134199 Eh     change       -0.3295554E-06 Eh
 * total energy  :  -111.6134200 Eh     change       -0.5698409E-07 Eh
   *** GEOMETRY OPTIMIZATION CONVERGED AFTER 39 ITERATIONS ***

 final structure:
================
83
 xtb: 6.7.1 (edcfbbe)
C           -5.41547748680554        3.05334342354085       -3.01082037495802
C           -5.56504104461184        2.12743476664567       -1.81019006808971
C           -5.36103598793155        0.66673370033802       -2.20609753290449
C           -5.51294688893557       -0.30669332237803       -1.02288986486577
C           -5.29280791656985       -1.74904327590336       -1.51370325389001
C           -5.42072640548322       -2.78635460997871       -0.40034135264092
C           -5.19745607686852       -4.19754331710419       -0.92938173221545
C           -6.85649065854631       -0.14988821519108       -0.35059571204764
C           -8.11516744987647       -0.33982297296477       -0.87874268514817
C           -9.22127244509012       -0.13400152335009       -0.06448850323490
C           -9.06738223480081        0.25619175181144        1.25686429989780
C           -7.80591687824531        0.44977403891421        1.79608654915387
C           -6.70055583340195        0.24497661305251        0.98690313746157
C           -5.28120348896877        0.36493428552414        1.26846010061503
C           -4.61198220650145        0.71954022249202        2.42996949329088
C           -3.23085979471579        0.74734064757593        2.42240420086940
C           -2.51516154333660        0.42330826070233        1.26517670042840
C           -1.10677193187820        0.44835474032020        1.27993054241285
C            0.10187605199997        0.46539406094028        1.29380007018631
C            1.51017741420387        0.47920079101841        1.30632436006753
C            2.19479406839777        0.90042807536322        2.45200207495785
C            3.57499736872682        0.91884525067877        2.48418099005807
C            4.27584901324003        0.51068754706824        1.35848237605106
C            3.59412271838034        0.08623205987241        0.20528365743403
C            2.22087532261432        0.06806049139013        0.17065587179687
C            4.56949566353796       -0.30680590428568       -0.87890176234584
C            4.40200371679991        0.57190285940396       -2.13217226437453
C            4.53840687371096        2.06508255811575       -1.84163212305236
C            4.36061399124682        2.89321428135486       -3.10796255031532
C            4.41262790829705       -1.78908405033480       -1.26549272918458
C            4.56314726235286       -2.73900081342717       -0.07905200229294
C            4.39877835786848       -4.19125711909636       -0.50912286833854
C            5.89448439162941       -0.05257522990571       -0.20101772861089
C            7.16217560316303       -0.22985409108993       -0.70064378750055
C            8.25297850482476        0.07583328178307        0.12280504235973
C            9.56427047890930       -0.09882331724394       -0.37029307954790
N           10.62748980405518       -0.24278570551394       -0.77654378357858
C            8.06098366121015        0.55041190656074        1.42304180147049
C            6.78396287551038        0.72691323511371        1.92044210466764
C            5.70095154155975        0.42508220761901        1.10741326135625
C           -3.19388446366279        0.06878467387975        0.09146128089749
C           -4.56737448047962        0.04279028932733        0.10212121803052
H           -4.42214339425894        2.95952816591032       -3.44484708876890
H           -6.14822144782621        2.80775432510881       -3.77671930969734
H           -5.56345981781054        4.08912871252493       -2.71499133615759
H           -6.56023758668988        2.25026180752256       -1.37717843655766
H           -4.83496484858368        2.40236427166981       -1.04562590530596
H           -4.36317400628674        0.54687112474130       -2.63465152330081
H           -6.08843096950400        0.39903580587070       -2.97597519483347
H           -6.02372720090989       -1.96950140567718       -2.29510067234316
H           -4.29766792397288       -1.82112126134430       -1.95898902989477
H           -4.68965546550626       -2.57172094071975        0.38236481319835
H           -6.41474967089379       -2.71746255017069        0.04708437895025
H           -5.29328086509585       -4.92558684875257       -0.12748535897478
H           -4.20272740264479       -4.29142876620284       -1.36026937751420
H           -5.92792752003381       -4.43749090505310       -1.69922197429779
H           -8.24701987706151       -0.64383354179976       -1.90716945266920
H          -10.21375645700058       -0.27970887373411       -0.46552868067196
H           -9.94203077226156        0.41078494802736        1.87192659033449
H           -7.68915739631800        0.75377896664623        2.82580293323532
H           -5.15819786603010        0.96908352554781        3.32754680917549
H           -2.68522528825128        1.01863611566386        3.31462888545299
H            1.62454967017714        1.21252452363006        3.31475784895700
H            4.09676686723901        1.24529991045109        3.37151607383867
H            1.68031639072887       -0.25504206440739       -0.70710968919133
H            3.41761660031348        0.37977418483151       -2.56496156003655
H            5.15254879317826        0.27939832080674       -2.87010373384359
H            5.52292161836684        2.26499195300936       -1.41241818621348
H            3.78899709841823        2.36243469268089       -1.10454689381773
H            4.46250929535590        3.95305257608960       -2.88793330931078
H            5.10970871302095        2.62370321848146       -3.84948125792343
H            3.37583654495541        2.72577614417288       -3.53908181410489
H            3.42714007835198       -1.93090783927624       -1.71486104482456
H            5.16156541355707       -2.03682510565320       -2.02122615325833
H            5.54803608607853       -2.60408584861274        0.37397413841258
H            3.81406047817790       -2.49697010421138        0.67832296927089
H            3.41418991839894       -4.35229070713004       -0.94305514200324
H            5.14822440848888       -4.45744540154477       -1.25148996382634
H            4.51023207961741       -4.85644814397809        0.34360145964229
H            7.33366340213081       -0.59540142263693       -1.70268035575775
H            8.92340484219561        0.77685849779985        2.03290073439156
H            6.63590972419386        1.09326741049687        2.92507402063019
H           -2.62910266979783       -0.17776990663830       -0.79610763696035

          :  Hamiltonian                  GFN2-xTB          :
         :: gradient norm              0.000162000721 Eh/a0 ::
         :: HOMO-LUMO gap              2.293111515154 eV    ::
         :: SCC energy              -113.688665490850 Eh    ::
         :: -> dispersion             -0.100617919357 Eh    ::
         :: repulsion energy           2.075245518315 Eh    ::

    * Orbital Energies and Occupations

         #    Occupation            Energy/Eh            Energy/eV
      -------------------------------------------------------------
         1        2.0000           -0.6690275             -18.2052
       ...           ...                  ...                  ...
        93        2.0000           -0.4235428             -11.5252
        94        2.0000           -0.4231019             -11.5132
        95        2.0000           -0.4175256             -11.3614
        96        2.0000           -0.4167190             -11.3395
        97        2.0000           -0.4141127             -11.2686
        98        2.0000           -0.4134427             -11.2503
        99        2.0000           -0.4109643             -11.1829
       100        2.0000           -0.4060675             -11.0497
       101        2.0000           -0.4044311             -11.0051
       102        2.0000           -0.4011245             -10.9152
       103        2.0000           -0.3968205             -10.7980
       104        2.0000           -0.3896759             -10.6036
       105        2.0000           -0.3678244             -10.0090 (HOMO)
       106                         -0.2835541              -7.7159 (LUMO)
       107                         -0.2601100              -7.0780
       108                         -0.2375337              -6.4636
       109                         -0.2311185              -6.2891
       110                         -0.2277355              -6.1970
       111                         -0.2250686              -6.1244
       112                         -0.2200136              -5.9869
       113                         -0.2002500              -5.4491
       114                         -0.1970226              -5.3613
       115                         -0.1649769              -4.4893
       116                         -0.1595961              -4.3428
       ...                                ...                  ...
       209                          1.4293582              38.8948
      -------------------------------------------------------------
                  HL-Gap            0.0842703 Eh            2.2931 eV

     #   Z          covCN         q      C6AA      α(0)
     1   6 C        3.752    -0.102    22.510     6.766
     2   6 C        3.800    -0.050    21.467     6.597
     3   6 C        3.809    -0.055    21.548     6.608
     4   6 C        3.938     0.009    20.368     6.413
     5   6 C        3.809    -0.055    21.549     6.608
     6   6 C        3.800    -0.050    21.467     6.597
     7   6 C        3.752    -0.102    22.510     6.766
     8   6 C        3.056     0.001    27.948     8.670
     9   6 C        2.915    -0.034    28.836     8.806
    10   6 C        2.922    -0.033    28.824     8.804
    11   6 C        2.921    -0.033    28.833     8.806
    12   6 C        2.914    -0.034    28.850     8.808
    13   6 C        3.037    -0.000    27.997     8.679
    14   6 C        3.037     0.001    27.978     8.676
    15   6 C        2.912    -0.034    28.847     8.807
    16   6 C        2.929    -0.033    28.829     8.805
    17   6 C        2.973     0.033    27.266     8.565
    18   6 C        1.983    -0.040    32.122     9.153
    19   6 C        1.983    -0.045    32.251     9.171
    20   6 C        2.973     0.037    27.169     8.550
    21   6 C        2.929    -0.033    28.825     8.805
    22   6 C        2.912    -0.032    28.801     8.800
    23   6 C        3.037    -0.002    28.038     8.685
    24   6 C        3.054     0.003    27.908     8.664
    25   6 C        2.923    -0.034    28.848     8.808
    26   6 C        3.937     0.010    20.351     6.411
    27   6 C        3.809    -0.055    21.558     6.609
    28   6 C        3.800    -0.049    21.453     6.595
    29   6 C        3.753    -0.103    22.521     6.767
    30   6 C        3.809    -0.055    21.558     6.609
    31   6 C        3.800    -0.049    21.453     6.595
    32   6 C        3.753    -0.103    22.521     6.767
    33   6 C        3.055     0.005    27.868     8.657
    34   6 C        2.922    -0.026    28.649     8.777
    35   6 C        2.975     0.013    27.727     8.637
    36   6 C        1.913     0.111    28.365     8.601
    37   7 N        0.911    -0.243    26.333     7.422
    38   6 C        2.928    -0.025    28.620     8.773
    39   6 C        2.913    -0.033    28.813     8.802
    40   6 C        3.037     0.007    27.819     8.651
    41   6 C        2.923    -0.034    28.845     8.808
    42   6 C        3.053     0.002    27.939     8.669
    43   1 H        0.925     0.034     2.532     2.489
    44   1 H        0.925     0.034     2.530     2.487
    45   1 H        0.925     0.035     2.523     2.484
    46   1 H        0.924     0.030     2.584     2.514
    47   1 H        0.924     0.029     2.594     2.519
    48   1 H        0.924     0.034     2.532     2.488
    49   1 H        0.924     0.034     2.524     2.485
    50   1 H        0.924     0.034     2.525     2.485
    51   1 H        0.924     0.034     2.532     2.489
    52   1 H        0.924     0.029     2.594     2.519
    53   1 H        0.924     0.030     2.585     2.514
    54   1 H        0.925     0.035     2.523     2.484
    55   1 H        0.925     0.034     2.533     2.489
    56   1 H        0.925     0.034     2.530     2.487
    57   1 H        0.926     0.027     2.627     2.535
    58   1 H        0.926     0.028     2.608     2.526
    59   1 H        0.926     0.028     2.611     2.527
    60   1 H        0.926     0.029     2.598     2.520
    61   1 H        0.926     0.030     2.593     2.518
    62   1 H        0.926     0.031     2.577     2.510
    63   1 H        0.926     0.034     2.536     2.490
    64   1 H        0.926     0.031     2.572     2.508
    65   1 H        0.926     0.032     2.563     2.503
    66   1 H        0.924     0.037     2.493     2.469
    67   1 H        0.924     0.036     2.507     2.476
    68   1 H        0.924     0.028     2.618     2.530
    69   1 H        0.924     0.030     2.588     2.516
    70   1 H        0.925     0.036     2.503     2.474
    71   1 H        0.925     0.035     2.510     2.477
    72   1 H        0.925     0.035     2.517     2.481
    73   1 H        0.924     0.037     2.493     2.469
    74   1 H        0.924     0.036     2.507     2.476
    75   1 H        0.924     0.028     2.618     2.530
    76   1 H        0.924     0.030     2.588     2.516
    77   1 H        0.925     0.035     2.517     2.481
    78   1 H        0.925     0.035     2.510     2.477
    79   1 H        0.925     0.036     2.503     2.474
    80   1 H        0.926     0.037     2.490     2.467
    81   1 H        0.926     0.038     2.469     2.457
    82   1 H        0.926     0.037     2.495     2.470
    83   1 H        0.926     0.029     2.599     2.521

molecular dipole:
                 x           y           z       tot (Debye)
 q only:       -1.779      -0.044      -0.155
   full:       -2.176       0.029       0.060       5.533

 projected vibrational frequencies (cm⁻¹)
eigval :       -0.00     0.00     0.00     0.00     0.00     0.00
eigval :        4.24    10.31    13.02    26.08    40.83    48.44
eigval :       52.42    52.90    54.72    55.36    66.13    67.36
eigval :       69.54    72.29    75.18    77.67    84.91    91.84
eigval :      101.82   111.26   124.63   137.75   140.19   153.94
eigval :      192.82   201.63   207.75   208.16   221.27   222.41
eigval :      224.73   231.37   235.31   238.35   248.88   252.95
eigval :      276.20   285.07   285.82   303.09   304.53   304.77
eigval :      334.13   336.45   347.81   350.42   368.82   408.12
eigval :      412.37   424.47   439.77   439.83   448.61   456.03
eigval :      471.25   484.84   507.50   518.92   524.91   526.82
eigval :      561.78   563.26   568.95   574.30   582.19   587.68
eigval :      599.01   623.04   630.16   643.49   678.07   712.99
eigval :      717.35   722.50   723.43   724.55   731.81   736.92
eigval :      767.83   780.99   781.86   782.27   791.64   810.73
eigval :      820.91   826.94   833.50   863.31   877.09   878.21
eigval :      879.61   879.71   891.07   894.56   894.93   909.98
eigval :      910.47   911.16   912.69   921.68   927.81   930.51
eigval :      930.60   951.42   958.41   961.88   986.90   995.91
eigval :      996.73  1032.81  1035.05  1078.58  1080.44  1080.87
eigval :     1086.91  1087.16  1090.78  1091.40  1096.97  1097.00
eigval :     1116.09  1124.60  1137.36  1137.58  1137.86  1138.07
eigval :     1147.13  1150.24  1153.61  1154.31  1157.90  1182.58
eigval :     1184.50  1204.70  1214.39  1221.50  1223.21  1224.50
eigval :     1231.93  1232.11  1240.75  1245.27  1249.85  1265.80
eigval :     1269.46  1278.95  1279.06  1279.74  1285.77  1285.78
eigval :     1286.63  1297.85  1299.34  1306.89  1311.55  1323.99
eigval :     1328.47  1337.56  1356.96  1357.24  1360.66  1367.42
eigval :     1372.53  1373.91  1416.01  1416.14  1416.83  1416.92
eigval :     1421.83  1426.43  1430.45  1438.91  1446.62  1455.68
eigval :     1467.61  1480.16  1480.57  1484.57  1489.42  1489.70
eigval :     1498.27  1498.51  1499.19  1499.39  1504.61  1504.68
eigval :     1505.30  1505.37  1505.71  1505.83  1506.53  1506.64
eigval :     1561.17  1567.69  1575.86  1585.93  1592.92  1595.16
eigval :     1602.40  1607.76  2311.22  2369.04  2957.67  2959.50
eigval :     2960.29  2961.51  2972.54  2972.92  2974.09  2974.93
eigval :     2975.03  2975.50  2978.28  2979.69  2984.96  2986.30
eigval :     2987.18  2987.85  3028.25  3028.54  3030.12  3030.36
eigval :     3031.78  3032.19  3033.42  3033.81  3039.78  3040.11
eigval :     3041.46  3041.75  3070.40  3074.58  3077.40  3078.83
eigval :     3079.10  3082.31  3082.74  3083.46  3084.37  3088.82
eigval :     3090.89  3091.32  3094.68

   temp. (K)  partition function   enthalpy   heat capacity  entropy
                                   cal/mol     cal/K/mol   cal/K/mol   J/K/mol
 298.15  VIB  0.934E+20            24103.479    142.840    156.213
         ROT  0.764E+08              888.752      2.981     39.053
         INT  0.714E+28            24992.232    145.821    195.266
         TR   0.124E+29             1481.254      4.968     44.767
         TOT                       26473.4857   150.7889   240.0329  1004.2977

       T/K    H(0)-H(T)+PV         H(T)/Eh          T*S/Eh         G(T)/Eh
   ------------------------------------------------------------------------
    298.15    0.421882E-01    0.731291E+00    0.114047E+00    0.617244E+00
   ------------------------------------------------------------------------

         :::::::::::::::::::::::::::::::::::::::::::::::::::::
         ::                  THERMODYNAMIC                  ::
         :::::::::::::::::::::::::::::::::::::::::::::::::::::
         :: total free energy        -110.996176464365 Eh   ::
         ::.................................................::
         :: total energy             -111.613419972535 Eh   ::
         :: zero point energy           0.689102710305 Eh   ::
         :: G(RRHO) w/o ZPVE           -0.071859202136 Eh   ::
         :: G(RRHO) contrib.            0.617243508170 Eh   ::
         :::::::::::::::::::::::::::::::::::::::::::::::::::::

           -------------------------------------------------
          | TOTAL ENERGY             -111.613419972535 Eh   |
          | TOTAL ENTHALPY           -110.882129077445 Eh   |
          | TOTAL FREE ENERGY        -110.996176464365 Eh   |
          | GRADIENT NORM               0.000162043699 Eh/α |
          | HOMO-LUMO GAP               2.293112365681 eV   |
           -------------------------------------------------

 * finished run on 2025/09/05 at 12:29:58.746
