   * xtb version 6.7.1 (edcfbbe) compiled by 'albert@albert-system' on 2024-07-22

   ID    Z sym.   atoms
    1    6 C      1-36, 38-42
    2    7 N      37
    3    1 H      43-83

          program call               : xtb data2507/gas/C2FLA-1/C2FLA-1_gas_S0_finalOpt.xtbopt.xyz --gfn 2 --spinpol --tblite --uhf 2 --ohess vtight --parallel 40 --molden --ceasefiles --namespace data2507/gas/C2FLA-1/C2FLA-1_gas_T1_preOpt
 * total energy  :  -111.5269902 Eh     change       -0.2256827E-07 Eh
 * total energy  :  -111.5342764 Eh     change       -0.7286164E-02 Eh
 * total energy  :  -111.5359443 Eh     change       -0.1667952E-02 Eh
 * total energy  :  -111.5359938 Eh     change       -0.4945767E-04 Eh
 * total energy  :  -111.5359924 Eh     change        0.1363936E-05 Eh
 * total energy  :  -111.5360103 Eh     change       -0.1792949E-04 Eh
 * total energy  :  -111.5360154 Eh     change       -0.5043514E-05 Eh
 * total energy  :  -111.5360185 Eh     change       -0.3113136E-05 Eh
 * total energy  :  -111.5360207 Eh     change       -0.2213292E-05 Eh
 * total energy  :  -111.5360218 Eh     change       -0.1110816E-05 Eh
 * total energy  :  -111.5360232 Eh     change       -0.1343506E-05 Eh
 * total energy  :  -111.5360241 Eh     change       -0.9208724E-06 Eh
 * total energy  :  -111.5360244 Eh     change       -0.3550179E-06 Eh
 * total energy  :  -111.5360247 Eh     change       -0.2644948E-06 Eh
 * total energy  :  -111.5360249 Eh     change       -0.1599579E-06 Eh
 * total energy  :  -111.5360252 Eh     change       -0.3050858E-06 Eh
 * total energy  :  -111.5360253 Eh     change       -0.8574358E-07 Eh
   *** GEOMETRY OPTIMIZATION CONVERGED AFTER 17 ITERATIONS ***

 final structure:
================
83
 xtb: 6.7.1 (edcfbbe)
C           -5.40138206708303        3.05295103075729       -3.00281905644991
C           -5.55490230154777        2.12217375639095       -1.80656200158582
C           -5.35379318388674        0.66257253370221       -2.20820779197372
C           -5.50297190719994       -0.31407776437818       -1.02656966166184
C           -5.29021000122553       -1.75611269128991       -1.52108142790481
C           -5.42432569578126       -2.79455360470123       -0.40951904627706
C           -5.20707003246190       -4.20588030541485       -0.94050905721274
C           -6.84269745523727       -0.15224449814679       -0.34868586621572
C           -8.10204417982334       -0.34246029966444       -0.86732875281764
C           -9.20648988167866       -0.12896812646384       -0.04837444681336
C           -9.04618815329844        0.27119181815128        1.27299392776356
C           -7.78729052938186        0.46651264328944        1.80700090790122
C           -6.67565075892011        0.25376502435061        0.99345026923777
C           -5.27592259349975        0.37168676312498        1.26843116614939
C           -4.59430391124879        0.74202918396407        2.43704740698666
C           -3.22857939700195        0.76981692219700        2.43332910318401
C           -2.48725608584340        0.42356784243525        1.26479464552734
C           -1.11859670107031        0.44554278773754        1.28091835343538
C            0.11578253202805        0.45926439958979        1.29306117415022
C            1.47947272302108        0.47042582486396        1.30376994944538
C            2.19352419066183        0.88331529878560        2.47628580184752
C            3.55253018208287        0.90226409963531        2.50558659880483
C            4.27599444743984        0.50190806432646        1.35969542399108
C            3.57348390758998        0.08159351973909        0.18429987240269
C            2.22017372693522        0.06616065624464        0.14469442506821
C            4.55929957464635       -0.30696712825727       -0.89398828029420
C            4.39620019735943        0.56777327108142       -2.15024797170638
C            4.53485420437972        2.06073885541956       -1.86063266252710
C            4.36140247780118        2.88922344257239       -3.12724368607212
C            4.41037742327460       -1.79146866447657       -1.27698538183766
C            4.56284735173393       -2.73441158162480       -0.08537423654046
C            4.40187676162821       -4.18980520092565       -0.50566121434238
C            5.87992312783592       -0.04881810017152       -0.20814695272396
C            7.14392103357828       -0.21509904752714       -0.69755982223572
C            8.23987569457899        0.09064165938233        0.13545024397403
C            9.54628209104241       -0.07300987440161       -0.34856263188828
N           10.61588716893620       -0.20901439987510       -0.75033511362530
C            8.03272661501422        0.55791732653445        1.44777594224552
C            6.76419629540480        0.72514122176862        1.94071489729753
C            5.66599780422073        0.42372128923827        1.11747660618755
C           -3.19001735711081        0.05227556988023        0.07990255923323
C           -4.54956747002596        0.03382052574984        0.09354275357463
H           -4.40762899129301        2.95874871689309       -3.43560852714400
H           -6.13349044610024        2.81257277094761       -3.77088234365935
H           -5.54735345418455        4.08765952543373       -2.70240839144534
H           -6.55046148172264        2.24574425549775       -1.37428995118915
H           -4.82512193061474        2.39232418676610       -1.03993028223539
H           -4.35736351030514        0.54257572965289       -2.63965166848802
H           -6.08396198244072        0.39813031112372       -2.97642294689297
H           -6.02183634032470       -1.97109049441235       -2.30320147474675
H           -4.29534165803085       -1.83213406298150       -1.96590576654346
H           -4.69323498417132       -2.58436582792939        0.37446008082408
H           -6.41869872765540       -2.72179094409542        0.03678584127353
H           -5.30603161874595       -4.93466319552823       -0.13975114836883
H           -4.21283648702809       -4.30329818722233       -1.37153254566817
H           -5.93850200946478       -4.44148460971276       -1.71070623576990
H           -8.24060706122378       -0.65287206509778       -1.89282190301742
H          -10.20060895032995       -0.27575369009527       -0.44395555736522
H           -9.91993486980524        0.43054246149325        1.88803608981090
H           -7.66528599182066        0.77716317424496        2.83383360525384
H           -5.14758975588687        1.00152235417651        3.32748280044790
H           -2.67778575807986        1.05110364254004        3.31886265254944
H            1.61480450466174        1.18275145402714        3.33789665100758
H            4.08281193733926        1.21764688172346        3.39187416927106
H            1.67327787277559       -0.24609581588284       -0.73286862488732
H            3.41298461617889        0.37612557316361       -2.58619596544183
H            5.14928620914199        0.27312971194984       -2.88459767289618
H            5.51915781190877        2.25760228855352       -1.42969169259342
H            3.78498512699632        2.35949890641975       -1.12436119700738
H            4.46339027395437        3.94911620460755       -2.90727551561577
H            5.11261755709550        2.61888382199761       -3.86627257780462
H            3.37789400987858        2.72215957307244       -3.56163892944607
H            3.42700986954909       -1.94012382017086       -1.72907536349722
H            5.16377662159071       -2.03814798616773       -2.02849330837442
H            5.54756661747095       -2.59369531583095        0.36612771610331
H            3.81348516911393       -2.48909666003652        0.67088368393521
H            3.41825920930378       -4.35573114288394       -0.94020937100655
H            5.15301524658432       -4.45926347241608       -1.24506828631195
H            4.51341845790537       -4.84913573165714        0.35168401449380
H            7.32576046151306       -0.57285915929517       -1.70070324993305
H            8.89489164439760        0.78233742276570        2.05922762703633
H            6.60784918882684        1.08357400503284        2.94694854988770
H           -2.62119220209087       -0.20378363127649       -0.80187998212341

 projected vibrational frequencies (cm⁻¹)
eigval :       -0.00    -0.00    -0.00    -0.00     0.00     0.00
eigval :        8.93    11.21    12.43    25.11    40.24    47.84
eigval :       50.74    53.62    54.60    58.77    65.58    68.19
eigval :       72.44    74.57    78.09    80.63    84.90    90.74
eigval :       96.77   111.12   120.82   137.88   144.56   149.47
eigval :      183.95   202.16   205.09   205.25   218.45   221.55
eigval :      224.54   231.71   231.91   237.74   248.71   251.47
eigval :      252.95   283.21   284.98   303.93   304.28   305.03
eigval :      312.55   332.94   335.42   346.89   356.42   383.08
eigval :      402.79   421.02   422.55   440.40   442.56   448.18
eigval :      449.21   461.67   494.27   507.23   512.76   526.59
eigval :      539.14   557.27   566.83   568.27   572.35   576.44
eigval :      582.29   617.22   620.09   624.86   669.24   700.61
eigval :      702.01   709.07   709.83   717.04   723.35   726.09
eigval :      764.41   769.52   781.39   781.74   789.89   800.61
eigval :      806.92   808.97   813.37   845.85   848.89   857.18
eigval :      868.21   870.31   881.62   894.29   894.53   899.84
eigval :      902.02   903.54   905.79   905.96   921.33   930.40
eigval :      930.45   937.37   951.85   957.97   959.41   981.15
eigval :      988.64  1011.42  1018.75  1071.74  1079.24  1079.94
eigval :     1084.01  1085.95  1086.19  1089.72  1093.23  1096.93
eigval :     1096.98  1105.48  1113.24  1135.88  1136.92  1137.36
eigval :     1138.02  1142.41  1147.06  1150.87  1158.62  1180.58
eigval :     1182.58  1199.33  1203.56  1213.27  1218.68  1220.47
eigval :     1231.62  1231.81  1234.14  1241.74  1248.83  1256.88
eigval :     1265.10  1267.81  1278.46  1278.57  1285.18  1285.21
eigval :     1285.89  1292.81  1298.26  1301.98  1307.17  1314.15
eigval :     1323.18  1328.05  1340.22  1356.23  1356.51  1356.67
eigval :     1370.72  1371.40  1372.74  1397.51  1405.32  1415.80
eigval :     1416.04  1416.12  1416.32  1422.16  1450.70  1453.73
eigval :     1458.86  1479.78  1479.86  1485.53  1487.59  1488.89
eigval :     1491.49  1497.48  1497.93  1498.18  1498.68  1503.41
eigval :     1503.64  1503.85  1504.07  1505.75  1505.82  1505.94
eigval :     1506.05  1506.38  1525.20  1552.38  1567.90  1578.82
eigval :     1591.13  1615.52  2124.56  2323.72  2958.84  2959.11
eigval :     2960.82  2961.28  2971.82  2973.08  2973.76  2974.19
eigval :     2974.24  2974.87  2978.93  2979.23  2983.93  2985.13
eigval :     2986.22  2987.17  3029.06  3029.15  3029.32  3029.45
eigval :     3032.66  3032.98  3033.03  3033.36  3040.60  3040.67
eigval :     3040.87  3040.98  3073.45  3076.43  3076.58  3078.08
eigval :     3079.96  3080.81  3081.70  3082.11  3086.16  3089.06
eigval :     3090.43  3092.16  3093.47

   temp. (K)  partition function   enthalpy   heat capacity  entropy
                                   cal/mol     cal/K/mol   cal/K/mol   J/K/mol
 298.15  VIB  0.593E+20            24378.714    144.582    157.043
         ROT  0.763E+08              888.752      2.981     39.051
         INT  0.453E+28            25267.466    147.563    196.094
         TR   0.124E+29             1481.254      4.968     44.767
         TOT                       26748.7201   152.5307   240.8607  1007.7610

       T/K    H(0)-H(T)+PV         H(T)/Eh          T*S/Eh         G(T)/Eh
   ------------------------------------------------------------------------
    298.15    0.426268E-01    0.727866E+00    0.114441E+00    0.613425E+00
   ------------------------------------------------------------------------

         :::::::::::::::::::::::::::::::::::::::::::::::::::::
         ::                  THERMODYNAMIC                  ::
         :::::::::::::::::::::::::::::::::::::::::::::::::::::
         :: total free energy        -110.922600242661 Eh   ::
         ::.................................................::
         :: total energy             -111.536025314748 Eh   ::
         :: zero point energy           0.685238948332 Eh   ::
         :: G(RRHO) w/o ZPVE           -0.071813876245 Eh   ::
         :: G(RRHO) contrib.            0.613425072087 Eh   ::
         :::::::::::::::::::::::::::::::::::::::::::::::::::::

           -------------------------------------------------
          | TOTAL ENERGY             -111.536025314748 Eh   |
          | TOTAL ENTHALPY           -110.808159567627 Eh   |
          | TOTAL FREE ENERGY        -110.922600242661 Eh   |
          | GRADIENT NORM               0.000086619253 Eh/α |
           -------------------------------------------------

 * finished run on 2025/09/05 at 12:30:05.568
