   * xtb version 6.7.1 (edcfbbe) compiled by 'albert@albert-system' on 2024-07-22

   ID    Z sym.   atoms
    1    8 O      1
    2    6 C      2-19, 21-28
    3   35 Br     20
    4    1 H      29-45

          program call               : xtb data2507/gas/DphAn-Br/DphAn-Br_gas_S0_crest.xyz --gfn 2 --ohess vtight --parallel 40 --molden --ceasefiles --namespace data2507/gas/DphAn-Br/DphAn-Br_gas_S0_finalOpt
          :  Hamiltonian                  GFN2-xTB          :
 * total energy  :   -72.4789174 Eh     change       -0.1560551E-08 Eh
 * total energy  :   -72.4789180 Eh     change       -0.6410578E-06 Eh
 * total energy  :   -72.4789188 Eh     change       -0.8072200E-06 Eh
 * total energy  :   -72.4789198 Eh     change       -0.9827926E-06 Eh
 * total energy  :   -72.4789202 Eh     change       -0.3602092E-06 Eh
 * total energy  :   -72.4789201 Eh     change        0.4640960E-07 Eh
 * total energy  :   -72.4789204 Eh     change       -0.2775227E-06 Eh
 * total energy  :   -72.4789204 Eh     change       -0.1062304E-07 Eh
   *** GEOMETRY OPTIMIZATION CONVERGED AFTER 8 ITERATIONS ***

 final structure:
================
45
 xtb: 6.7.1 (edcfbbe)
O            1.38632222681381       -3.76535223004570       -0.06459684439999
C            1.61030773492894       -2.57114321653218       -0.06073536451928
C            1.73997173545896       -1.77340519741472       -1.29771702135007
C            2.04486991102711       -2.43229197542967       -2.48714467065960
C            2.24501881331035       -1.71842840978613       -3.65055317758410
C            2.14048916368631       -0.33641426533358       -3.62728647624860
C            1.82045168210431        0.32316420841002       -2.45291173818410
C            1.61804997107987       -0.38297683581779       -1.27348978681290
C            1.16861613521315        0.30874675997875        0.00109868081960
C            1.65235465988145        1.75059720223450        0.01637072258503
C            3.02069789041184        1.98103671508961       -0.10108233712073
C            3.52300161821469        3.26764798323980       -0.07870193044337
C            2.66444297008777        4.34572460466780        0.06591629693414
C            1.30516643134998        4.12441758896994        0.19096037555438
C            0.80010233910939        2.83408492428063        0.16810390935326
C           -0.35992752073367        0.22792449940860        0.03140167006931
C           -1.09282343045741        0.48736944650499       -1.12332824168711
C           -2.47344388100679        0.43049555499422       -1.12245399057777
C           -3.13604448840556        0.10907064721087        0.04904829076437
Br          -5.03937840687450        0.02930296842404        0.06162644279624
C           -2.43281018477097       -0.14739360548151        1.21118851238082
C           -1.05055767782716       -0.08504108162850        1.19629640063643
C            1.72515610786061       -0.41878234683173        1.20953622290947
C            2.01400758210165        0.25432719287392        2.39026599941132
C            2.45394851307332       -0.43430694336072        3.50770797764311
C            2.59177053614944       -1.81345922402210        3.47362078627458
C            2.29437609601455       -2.49598448189419        2.31195874836721
C            1.86792491292739       -1.80738205222716        1.17806761189568
H            2.12430925779896       -3.50896231944639       -2.46664026979584
H            2.48354954566426       -2.23053198072925       -4.57034149383240
H            2.30330644782963        0.23391908305302       -4.52996507227583
H            1.73814892787466        1.40073510622371       -2.45490285593328
H            3.69102079457826        1.14017258437730       -0.21117043475695
H            4.58645481185194        3.43025977727994       -0.17275495262440
H            3.05496987913033        5.35219910772142        0.08350205925965
H            0.62890574909526        4.95821456122175        0.30911192979328
H           -0.26341093866837        2.67838422234020        0.27283197960507
H           -0.58524182872791        0.73966031148626       -2.04135803883731
H           -3.02882547676620        0.63330132818729       -2.02518332780531
H           -2.95584164688482       -0.39307009998197        2.12250918595522
H           -0.51658886478002       -0.28262109464126        2.11259388938528
H            1.89176505270516        1.32641293767871        2.43908155174284
H            2.68247996373739        0.11015936421379        4.41199798274705
H            2.92567428863908       -2.34847941013244        4.34968411858523
H            2.38654199519356       -3.57010465173413        2.25097953148039

          :  Hamiltonian                  GFN2-xTB          :
         :: gradient norm              0.000156433365 Eh/a0 ::
         :: HOMO-LUMO gap              2.576319185416 eV    ::
         :: SCC energy               -73.746431638375 Eh    ::
         :: -> dispersion             -0.066352412588 Eh    ::
         :: repulsion energy           1.267511212631 Eh    ::

    * Orbital Energies and Occupations

         #    Occupation            Energy/Eh            Energy/eV
      -------------------------------------------------------------
         1        2.0000           -0.8371652             -22.7804
       ...           ...                  ...                  ...
        55        2.0000           -0.4379840             -11.9182
        56        2.0000           -0.4352554             -11.8439
        57        2.0000           -0.4307719             -11.7219
        58        2.0000           -0.4262123             -11.5978
        59        2.0000           -0.4227853             -11.5046
        60        2.0000           -0.4221038             -11.4860
        61        2.0000           -0.4190107             -11.4019
        62        2.0000           -0.4174839             -11.3603
        63        2.0000           -0.4142129             -11.2713
        64        2.0000           -0.4111665             -11.1884
        65        2.0000           -0.4080937             -11.1048
        66        2.0000           -0.3993353             -10.8665
        67        2.0000           -0.3894650             -10.5979 (HOMO)
        68                         -0.2947870              -8.0216 (LUMO)
        69                         -0.2536802              -6.9030
        70                         -0.2495854              -6.7916
        71                         -0.2417823              -6.5792
        72                         -0.2406026              -6.5471
        73                         -0.2386184              -6.4931
        74                         -0.2366482              -6.4395
        75                         -0.2342049              -6.3730
        76                         -0.2051049              -5.5812
        77                         -0.1889407              -5.1413
        78                         -0.1255539              -3.4165
       ...                                ...                  ...
       134                          0.7013298              19.0842
      -------------------------------------------------------------
                  HL-Gap            0.0946780 Eh            2.5763 eV

     #   Z          covCN         q      C6AA      α(0)
     1   8 O        0.857    -0.375    21.181     6.170
     2   6 C        2.832     0.226    23.258     7.903
     3   6 C        2.981    -0.021    28.521     8.760
     4   6 C        2.925    -0.019    28.472     8.750
     5   6 C        2.917    -0.029    28.730     8.790
     6   6 C        2.920    -0.024    28.612     8.772
     7   6 C        2.922    -0.034    28.852     8.809
     8   6 C        2.985     0.014    27.688     8.631
     9   6 C        3.921     0.008    20.389     6.417
    10   6 C        2.979     0.013    27.714     8.635
    11   6 C        2.925    -0.032    28.795     8.800
    12   6 C        2.919    -0.029    28.719     8.788
    13   6 C        2.920    -0.031    28.761     8.795
    14   6 C        2.920    -0.029    28.728     8.789
    15   6 C        2.922    -0.036    28.901     8.816
    16   6 C        2.979     0.017    27.632     8.623
    17   6 C        2.928    -0.034    28.836     8.806
    18   6 C        2.989    -0.035    28.864     8.813
    19   6 C        2.917     0.082    26.165     8.388
    20  35 Br       1.064    -0.167   189.668    22.205
    21   6 C        2.989    -0.034    28.846     8.810
    22   6 C        2.927    -0.034    28.841     8.807
    23   6 C        2.983     0.014    27.693     8.632
    24   6 C        2.922    -0.034    28.856     8.809
    25   6 C        2.920    -0.024    28.612     8.772
    26   6 C        2.917    -0.029    28.733     8.790
    27   6 C        2.924    -0.019    28.477     8.751
    28   6 C        2.980    -0.020    28.506     8.758
    29   1 H        0.926     0.060     2.198     2.318
    30   1 H        0.926     0.042     2.429     2.437
    31   1 H        0.926     0.039     2.458     2.452
    32   1 H        0.926     0.036     2.502     2.474
    33   1 H        0.926     0.029     2.604     2.524
    34   1 H        0.926     0.034     2.530     2.487
    35   1 H        0.926     0.034     2.526     2.485
    36   1 H        0.926     0.034     2.530     2.487
    37   1 H        0.926     0.029     2.602     2.522
    38   1 H        0.926     0.046     2.365     2.405
    39   1 H        0.926     0.055     2.262     2.352
    40   1 H        0.926     0.055     2.255     2.348
    41   1 H        0.926     0.045     2.386     2.416
    42   1 H        0.926     0.037     2.496     2.470
    43   1 H        0.926     0.039     2.457     2.451
    44   1 H        0.926     0.041     2.431     2.438
    45   1 H        0.926     0.060     2.200     2.320

molecular dipole:
                 x           y           z       tot (Debye)
 q only:        1.285       1.314      -0.010
   full:        1.785       1.459      -0.013       5.860

 projected vibrational frequencies (cm⁻¹)
eigval :       -0.00    -0.00    -0.00     0.00     0.00     0.00
eigval :        8.68    24.35    37.34    48.70    53.39    64.23
eigval :       69.81   112.14   121.03   129.37   172.04   186.65
eigval :      199.82   235.96   244.37   256.50   293.62   297.76
eigval :      315.41   326.68   350.85   367.39   369.75   372.62
eigval :      398.99   405.15   437.31   473.24   477.06   499.43
eigval :      507.79   551.27   588.76   596.23   605.42   611.95
eigval :      628.29   630.61   656.79   673.56   676.16   688.35
eigval :      696.21   741.60   746.16   756.68   779.29   799.63
eigval :      803.36   865.34   879.61   889.69   893.53   896.35
eigval :      906.03   907.01   909.65   916.87   922.95   925.05
eigval :      927.23   931.71   933.45   934.33   936.66   951.56
eigval :      988.20  1001.39  1087.77  1094.03  1094.93  1101.80
eigval :     1103.44  1113.84  1127.22  1148.62  1172.85  1178.84
eigval :     1181.72  1184.96  1194.78  1204.00  1209.21  1214.49
eigval :     1219.35  1238.08  1255.14  1258.38  1264.98  1275.61
eigval :     1288.38  1315.84  1319.37  1322.02  1329.92  1396.98
eigval :     1426.21  1428.09  1433.85  1454.81  1458.02  1466.81
eigval :     1474.95  1570.94  1573.26  1580.44  1582.68  1586.88
eigval :     1589.33  1591.49  1601.43  1701.75  3072.94  3076.20
eigval :     3078.17  3080.07  3084.44  3084.91  3087.77  3091.25
eigval :     3091.71  3093.63  3096.02  3097.19  3097.37  3099.48
eigval :     3100.11  3106.82  3108.38

   temp. (K)  partition function   enthalpy   heat capacity  entropy
                                   cal/mol     cal/K/mol   cal/K/mol   J/K/mol
 298.15  VIB  0.246E+10            12450.630     80.109     76.933
         ROT  0.190E+08              888.752      2.981     36.282
         INT  0.465E+17            13339.383     83.090    113.215
         TR   0.849E+28             1481.254      4.968     44.013
         TOT                       14820.6364    88.0582   157.2280   657.8420

       T/K    H(0)-H(T)+PV         H(T)/Eh          T*S/Eh         G(T)/Eh
   ------------------------------------------------------------------------
    298.15    0.236182E-01    0.362082E+00    0.747041E-01    0.287377E+00
   ------------------------------------------------------------------------

         :::::::::::::::::::::::::::::::::::::::::::::::::::::
         ::                  THERMODYNAMIC                  ::
         :::::::::::::::::::::::::::::::::::::::::::::::::::::
         :: total free energy         -72.191542955878 Eh   ::
         ::.................................................::
         :: total energy              -72.478920425741 Eh   ::
         :: zero point energy           0.338463384828 Eh   ::
         :: G(RRHO) w/o ZPVE           -0.051085914965 Eh   ::
         :: G(RRHO) contrib.            0.287377469863 Eh   ::
         :::::::::::::::::::::::::::::::::::::::::::::::::::::

           -------------------------------------------------
          | TOTAL ENERGY              -72.478920425741 Eh   |
          | TOTAL ENTHALPY            -72.116838853381 Eh   |
          | TOTAL FREE ENERGY         -72.191542955878 Eh   |
          | GRADIENT NORM               0.000156443559 Eh/α |
          | HOMO-LUMO GAP               2.576319913828 eV   |
           -------------------------------------------------

 * finished run on 2025/09/04 at 14:44:27.626
