   * xtb version 6.7.1 (edcfbbe) compiled by 'albert@albert-system' on 2024-07-22

   ID    Z sym.   atoms
    1    8 O      1
    2    6 C      2-19, 21-28
    3   35 Br     20
    4    1 H      29-45

          program call               : xtb data2507/gas/DphAn-Br/DphAn-Br_gas_S0_finalOpt.xtbopt.xyz --gfn 2 --spinpol --tblite --uhf 2 --ohess vtight --parallel 40 --molden --ceasefiles --namespace data2507/gas/DphAn-Br/DphAn-Br_gas_T1_preOpt
 * total energy  :   -72.3881570 Eh     change       -0.4869833E-08 Eh
 * total energy  :   -72.3912793 Eh     change       -0.3122249E-02 Eh
 * total energy  :   -72.3920404 Eh     change       -0.7611286E-03 Eh
 * total energy  :   -72.3922355 Eh     change       -0.1950957E-03 Eh
 * total energy  :   -72.3924444 Eh     change       -0.2089217E-03 Eh
 * total energy  :   -72.3925416 Eh     change       -0.9722600E-04 Eh
 * total energy  :   -72.3925923 Eh     change       -0.5067728E-04 Eh
 * total energy  :   -72.3926178 Eh     change       -0.2550130E-04 Eh
 * total energy  :   -72.3926325 Eh     change       -0.1473170E-04 Eh
 * total energy  :   -72.3926410 Eh     change       -0.8432840E-05 Eh
 * total energy  :   -72.3926561 Eh     change       -0.1591476E-05 Eh
 * total energy  :   -72.3926570 Eh     change       -0.9296958E-06 Eh
 * total energy  :   -72.3926576 Eh     change       -0.6094243E-06 Eh
 * total energy  :   -72.3926585 Eh     change       -0.8834646E-06 Eh
 * total energy  :   -72.3926594 Eh     change       -0.8797385E-06 Eh
 * total energy  :   -72.3926602 Eh     change       -0.8102341E-06 Eh
 * total energy  :   -72.3926608 Eh     change       -0.6362942E-06 Eh
 * total energy  :   -72.3926613 Eh     change       -0.4366456E-06 Eh
 * total energy  :   -72.3926613 Eh     change       -0.6955972E-08 Eh
   *** GEOMETRY OPTIMIZATION CONVERGED AFTER 22 ITERATIONS ***

 final structure:
================
45
 xtb: 6.7.1 (edcfbbe)
O            1.74990292547795       -3.82240910973293       -0.08229962714083
C            1.77499444480320       -2.56475671931441       -0.06727633035856
C            1.77905970246643       -1.77351788113046       -1.27998005761797
C            1.98317639205709       -2.44264274557215       -2.50116076320117
C            2.13537361518192       -1.72023748679536       -3.66024954616298
C            2.07568032638056       -0.33315551003437       -3.63568296216157
C            1.82660294256047        0.32590383545681       -2.44189943309901
C            1.65008431405801       -0.37823110903025       -1.26063657514439
C            1.18859819208228        0.32698074409551        0.00349093244914
C            1.66948241945911        1.76452800232476        0.01664076082459
C            3.03937668146070        1.99805668969437       -0.09758877647688
C            3.53829640211957        3.28538909753567       -0.07941196023675
C            2.67619233114735        4.36247225794278        0.05720761253954
C            1.31606327630225        4.13920535727840        0.17971172475522
C            0.81386116491194        2.84855831111010        0.16146872619177
C           -0.34003040669827        0.23819491198723        0.03381846513116
C           -1.07388664209135        0.50328092859744       -1.11899701237081
C           -2.45364430848909        0.43359318319342       -1.12075861239562
C           -3.11431942797755        0.09197432880518        0.04653887618736
Br          -5.01700038617807       -0.00839745463584        0.05508442027004
C           -2.40999747284893       -0.17259911669151        1.20644769900730
C           -1.02848813866523       -0.09688690130211        1.19371771569479
C            1.75767786754004       -0.41417508391316        1.19764331353900
C            2.02029192871503        0.25543421415361        2.38322638244990
C            2.39220303645523       -0.43446985942735        3.52638084002270
C            2.48781753160977       -1.81978254663076        3.49730129248250
C            2.23706513507616       -2.50948014469286        2.33500566898475
C            1.90547325076459       -1.80814780793949        1.16094535356698
H            2.04903617722391       -3.51914860068790       -2.49178657319366
H            2.31987053938703       -2.24050214088125       -4.58857896625616
H            2.20567177932535        0.23729219025897       -4.54254534331963
H            1.74985061744673        1.40405576125901       -2.43183995506128
H            3.71073618129696        1.15770466562918       -0.20219866631378
H            4.60143154948015        3.45060595944854       -0.17107215722077
H            3.06430013681444        5.36987666901135        0.07094583155888
H            0.63850789730520        4.97261704093269        0.29221369801592
H           -0.24930686027328        2.69005985766391        0.26449254913130
H           -0.56497385777456        0.76753687588668       -2.03310582383316
H           -3.01016892947940        0.64139963609593       -2.02165045223685
H           -2.93192836251975       -0.43525642546788        2.11368357560835
H           -0.49088631347347       -0.29952300492995        2.10699095805167
H            1.89852033389526        1.32838257905153        2.41938844049744
H            2.58752468717638        0.10931415864651        4.43779252135144
H            2.77239938290802       -2.36436732480957        4.38555879175431
H            2.31883811295250       -3.58379158625559        2.28597699725358

 projected vibrational frequencies (cm⁻¹)
eigval :       -0.00    -0.00    -0.00    -0.00     0.00     0.00
eigval :        8.32    24.51    38.68    49.04    52.75    67.50
eigval :       70.58   113.46   118.17   132.87   172.12   186.45
eigval :      202.24   237.94   247.71   267.69   285.68   293.71
eigval :      314.41   326.89   347.51   367.98   368.59   371.41
eigval :      382.62   391.94   433.27   470.93   472.76   487.55
eigval :      489.82   495.13   534.02   579.16   587.37   594.43
eigval :      602.30   608.67   625.38   656.75   662.29   672.58
eigval :      679.10   696.19   746.57   755.07   760.43   763.47
eigval :      803.21   849.51   850.21   864.46   873.88   876.36
eigval :      885.70   897.02   901.89   903.12   903.30   905.43
eigval :      912.43   914.39   923.49   930.15   932.02   933.77
eigval :      985.39   998.57  1083.92  1085.55  1086.76  1088.04
eigval :     1098.27  1101.39  1126.55  1146.58  1156.40  1159.30
eigval :     1164.80  1172.51  1180.81  1181.51  1186.86  1197.22
eigval :     1203.90  1209.68  1231.28  1246.64  1248.79  1272.77
eigval :     1286.23  1316.11  1320.47  1331.88  1334.09  1373.48
eigval :     1395.85  1397.23  1425.75  1431.77  1439.19  1455.28
eigval :     1468.94  1478.04  1510.56  1518.59  1541.43  1558.56
eigval :     1571.41  1577.41  1580.16  1593.08  3072.83  3076.69
eigval :     3077.50  3078.60  3079.85  3080.93  3086.76  3092.97
eigval :     3093.47  3095.01  3095.13  3096.27  3098.44  3105.07
eigval :     3106.20  3106.27  3107.08

   temp. (K)  partition function   enthalpy   heat capacity  entropy
                                   cal/mol     cal/K/mol   cal/K/mol   J/K/mol
 298.15  VIB  0.273E+10            12660.858     81.870     77.932
         ROT  0.190E+08              888.752      2.981     36.288
         INT  0.519E+17            13549.610     84.851    114.221
         TR   0.849E+28             1481.254      4.968     44.013
         TOT                       15030.8639    89.8195   158.2339   662.0506

       T/K    H(0)-H(T)+PV         H(T)/Eh          T*S/Eh         G(T)/Eh
   ------------------------------------------------------------------------
    298.15    0.239532E-01    0.358713E+00    0.751820E-01    0.283531E+00
   ------------------------------------------------------------------------

         :::::::::::::::::::::::::::::::::::::::::::::::::::::
         ::                  THERMODYNAMIC                  ::
         :::::::::::::::::::::::::::::::::::::::::::::::::::::
         :: total free energy         -72.109130721722 Eh   ::
         ::.................................................::
         :: total energy              -72.392661266050 Eh   ::
         :: zero point energy           0.334759361124 Eh   ::
         :: G(RRHO) w/o ZPVE           -0.051228816796 Eh   ::
         :: G(RRHO) contrib.            0.283530544327 Eh   ::
         :::::::::::::::::::::::::::::::::::::::::::::::::::::

           -------------------------------------------------
          | TOTAL ENERGY              -72.392661266050 Eh   |
          | TOTAL ENTHALPY            -72.033948698579 Eh   |
          | TOTAL FREE ENERGY         -72.109130721722 Eh   |
          | GRADIENT NORM               0.000056904947 Eh/α |
           -------------------------------------------------

 * finished run on 2025/09/04 at 14:44:30.190
