   * xtb version 6.7.1 (edcfbbe) compiled by 'albert@albert-system' on 2024-07-22

   ID    Z sym.   atoms
    1    8 O      1
    2    6 C      2-19, 21-28
    3   35 Br     20
    4    1 H      29-45

          program call               : xtb data2507/gas/DphAn-Br/DphAn-Br.xyz --gfn 2 --ohess vtight --parallel 40 --molden --ceasefiles --namespace data2507/gas/DphAn-Br/DphAn-Br_gas_S0_preOpt
          :  Hamiltonian                  GFN2-xTB          :
 * total energy  :   -72.4620765 Eh     change       -0.8648016E-09 Eh
 * total energy  :   -72.4733245 Eh     change       -0.1124803E-01 Eh
 * total energy  :   -72.4772071 Eh     change       -0.3882564E-02 Eh
 * total energy  :   -72.4777551 Eh     change       -0.5480383E-03 Eh
 * total energy  :   -72.4778733 Eh     change       -0.1181467E-03 Eh
 * total energy  :   -72.4778928 Eh     change       -0.1953600E-04 Eh
 * total energy  :   -72.4778994 Eh     change       -0.6591252E-05 Eh
 * total energy  :   -72.4779034 Eh     change       -0.4011010E-05 Eh
 * total energy  :   -72.4779078 Eh     change       -0.4385187E-05 Eh
 * total energy  :   -72.4779111 Eh     change       -0.3300390E-05 Eh
 * total energy  :   -72.4789172 Eh     change       -0.4121862E-06 Eh
 * total energy  :   -72.4789172 Eh     change        0.3506953E-07 Eh
 * total energy  :   -72.4789174 Eh     change       -0.2274525E-06 Eh
 * total energy  :   -72.4789176 Eh     change       -0.2184339E-06 Eh
 * total energy  :   -72.4789179 Eh     change       -0.2590177E-06 Eh
 * total energy  :   -72.4789183 Eh     change       -0.3698974E-06 Eh
 * total energy  :   -72.4789187 Eh     change       -0.4407641E-06 Eh
 * total energy  :   -72.4789190 Eh     change       -0.2732424E-06 Eh
 * total energy  :   -72.4789191 Eh     change       -0.9760637E-07 Eh
   *** GEOMETRY OPTIMIZATION CONVERGED AFTER 137 ITERATIONS ***

 final structure:
================
45
 xtb: 6.7.1 (edcfbbe)
O            2.98178395081781        2.30776587856191        1.34675198242073
C            2.30176904117014        1.47720409675595        0.77706345300579
C            2.10903619851860        0.10746581122401        1.29752509957033
C            3.03174157715145       -0.39593855811725        2.21254123763125
C            2.90793603425880       -1.68284815353695        2.69436822095976
C            1.84958779943968       -2.47079563683327        2.26844967954415
C            0.92038171038447       -1.97188870072877        1.37188907672738
C            1.04213867510530       -0.68351393469768        0.86605633606676
C           -0.00703820626554       -0.09977307853558       -0.05936728711169
C           -0.64593967798132       -1.22649851284747       -0.85655285747889
C            0.15381134249683       -1.92076466891821       -1.76065239423528
C           -0.36319945152833       -2.96664111183367       -2.50035925281317
C           -1.68838899044105       -3.33979430333695       -2.34313905337404
C           -2.48557554741832       -2.66333415137550       -1.43804457979067
C           -1.96808511031038       -1.61364084846526       -0.69597239083101
C           -1.04067462528206        0.66913789880788        0.76726339749045
C           -1.09528575461355        0.57084799637925        2.15220263264768
C           -2.03754268463955        1.27649643209408        2.88021076048775
C           -2.93879249444131        2.08821009439799        2.21752377882487
Br          -4.24119726250393        3.06007883578760        3.21173642759601
C           -2.90964912031056        2.19967479748829        0.83827165351904
C           -1.96189384084692        1.49202033395705        0.12461541792598
C            0.62456651576389        0.91707987636086       -0.99393981536980
C            0.12465313559398        1.14051355522289       -2.27100316999118
C            0.65096936227614        2.13793475712530       -3.07372627902050
C            1.67698665703602        2.94562359244965       -2.60867068727402
C            2.18499355699320        2.73313488406758       -1.34394303469136
C            1.67158200481388        1.71948389475397       -0.53696944964401
H            3.83961614971428        0.24765125355202        2.52734179288208
H            3.62598869280620       -2.07177155144239        3.40031890810134
H            1.74086490663642       -3.47846611562061        2.64146277894789
H            0.09032570671041       -2.59106335192941        1.06518226593728
H            1.18872590686092       -1.63272717572860       -1.88106430752360
H            0.26898119177704       -3.49295618671177       -3.20002397321265
H           -2.09483025919543       -4.15620953257332       -2.92108265225468
H           -3.51750818936498       -2.95208421209409       -1.30308566177599
H           -2.60209431911103       -1.10149153773104        0.01258824106744
H           -0.40288425914864       -0.06209291842879        2.68483792784032
H           -2.06709627343752        1.19249051252257        3.95565462334915
H           -3.61828967672502        2.83305292421794        0.32715284423385
H           -1.94627265960224        1.58427713474744       -0.95015540674091
H           -0.67453958397295        0.52083939088678       -2.65206979013291
H            0.25292537325276        2.28656010785841       -4.06674195902770
H            2.07721148241261        3.73033140194328       -3.23250977619813
H            2.99020001514940        3.33641878032307       -0.95193575828339

          :  Hamiltonian                  GFN2-xTB          :
         :: gradient norm              0.000126577474 Eh/a0 ::
         :: HOMO-LUMO gap              2.573491958536 eV    ::
         :: SCC energy               -73.746467617331 Eh    ::
         :: -> dispersion             -0.066344956452 Eh    ::
         :: repulsion energy           1.267548549362 Eh    ::

    * Orbital Energies and Occupations

         #    Occupation            Energy/Eh            Energy/eV
      -------------------------------------------------------------
         1        2.0000           -0.8372261             -22.7821
       ...           ...                  ...                  ...
        55        2.0000           -0.4377203             -11.9110
        56        2.0000           -0.4353541             -11.8466
        57        2.0000           -0.4306657             -11.7190
        58        2.0000           -0.4262440             -11.5987
        59        2.0000           -0.4229835             -11.5100
        60        2.0000           -0.4220144             -11.4836
        61        2.0000           -0.4190577             -11.4031
        62        2.0000           -0.4174761             -11.3601
        63        2.0000           -0.4139656             -11.2646
        64        2.0000           -0.4112179             -11.1898
        65        2.0000           -0.4081092             -11.1052
        66        2.0000           -0.3993455             -10.8667
        67        2.0000           -0.3894068             -10.5963 (HOMO)
        68                         -0.2948327              -8.0228 (LUMO)
        69                         -0.2541572              -6.9160
        70                         -0.2494459              -6.7878
        71                         -0.2420024              -6.5852
        72                         -0.2403556              -6.5404
        73                         -0.2383502              -6.4858
        74                         -0.2364842              -6.4351
        75                         -0.2342012              -6.3729
        76                         -0.2051446              -5.5823
        77                         -0.1885664              -5.1312
        78                         -0.1256505              -3.4191
       ...                                ...                  ...
       134                          0.7010612              19.0768
      -------------------------------------------------------------
                  HL-Gap            0.0945742 Eh            2.5735 eV

     #   Z          covCN         q      C6AA      α(0)
     1   8 O        0.857    -0.375    21.192     6.172
     2   6 C        2.832     0.226    23.260     7.903
     3   6 C        2.980    -0.020    28.504     8.758
     4   6 C        2.925    -0.019    28.481     8.752
     5   6 C        2.917    -0.029    28.734     8.790
     6   6 C        2.920    -0.024    28.607     8.771
     7   6 C        2.922    -0.034    28.856     8.809
     8   6 C        2.983     0.014    27.693     8.632
     9   6 C        3.921     0.008    20.387     6.417
    10   6 C        2.979     0.013    27.714     8.635
    11   6 C        2.926    -0.032    28.797     8.800
    12   6 C        2.919    -0.029    28.718     8.788
    13   6 C        2.920    -0.031    28.761     8.795
    14   6 C        2.920    -0.029    28.730     8.790
    15   6 C        2.922    -0.036    28.902     8.816
    16   6 C        2.980     0.017    27.632     8.623
    17   6 C        2.926    -0.034    28.842     8.807
    18   6 C        2.989    -0.034    28.844     8.810
    19   6 C        2.917     0.082    26.167     8.388
    20  35 Br       1.064    -0.167   189.668    22.206
    21   6 C        2.989    -0.035    28.869     8.814
    22   6 C        2.928    -0.033    28.832     8.806
    23   6 C        2.986     0.014    27.686     8.631
    24   6 C        2.922    -0.034    28.850     8.808
    25   6 C        2.920    -0.024    28.609     8.771
    26   6 C        2.917    -0.029    28.730     8.790
    27   6 C        2.925    -0.019    28.472     8.751
    28   6 C        2.981    -0.021    28.526     8.761
    29   1 H        0.926     0.060     2.199     2.319
    30   1 H        0.926     0.041     2.431     2.438
    31   1 H        0.926     0.039     2.456     2.451
    32   1 H        0.926     0.036     2.496     2.471
    33   1 H        0.926     0.029     2.605     2.524
    34   1 H        0.926     0.034     2.530     2.487
    35   1 H        0.926     0.034     2.526     2.485
    36   1 H        0.926     0.034     2.531     2.488
    37   1 H        0.926     0.029     2.598     2.521
    38   1 H        0.926     0.045     2.388     2.417
    39   1 H        0.926     0.055     2.253     2.347
    40   1 H        0.926     0.055     2.263     2.352
    41   1 H        0.926     0.047     2.359     2.402
    42   1 H        0.926     0.036     2.506     2.475
    43   1 H        0.926     0.039     2.458     2.452
    44   1 H        0.926     0.042     2.428     2.437
    45   1 H        0.926     0.060     2.194     2.316

molecular dipole:
                 x           y           z       tot (Debye)
 q only:       -0.011      -1.411      -1.160
   full:        0.244      -1.741      -1.470       5.824

 projected vibrational frequencies (cm⁻¹)
eigval :       -0.00    -0.00    -0.00    -0.00     0.00     0.00
eigval :       13.61    24.16    37.03    51.04    53.56    63.44
eigval :       69.79   112.96   120.87   130.82   171.35   187.58
eigval :      200.06   236.58   244.54   255.96   293.14   297.95
eigval :      316.10   326.46   351.46   368.59   369.84   373.46
eigval :      398.67   406.03   436.84   473.27   475.84   498.72
eigval :      508.78   551.18   588.76   596.25   604.87   612.70
eigval :      627.85   630.83   656.37   673.08   676.52   688.04
eigval :      696.50   741.32   746.20   756.89   779.31   799.69
eigval :      803.15   864.99   879.92   888.96   894.09   896.53
eigval :      905.96   907.18   909.53   916.43   922.89   924.49
eigval :      927.20   931.95   933.18   934.27   936.90   951.59
eigval :      988.23  1001.44  1087.82  1094.10  1095.03  1101.85
eigval :     1103.63  1114.09  1127.31  1148.43  1172.74  1178.80
eigval :     1181.75  1184.94  1194.47  1203.97  1208.88  1213.80
eigval :     1220.63  1238.13  1254.77  1258.96  1265.59  1275.70
eigval :     1288.42  1315.91  1319.78  1322.20  1330.04  1396.85
eigval :     1426.13  1428.12  1433.86  1454.65  1458.75  1466.78
eigval :     1475.14  1570.79  1573.40  1580.40  1582.60  1587.02
eigval :     1589.29  1591.53  1601.41  1700.72  3072.94  3075.50
eigval :     3078.26  3080.47  3084.33  3084.75  3088.12  3090.99
eigval :     3091.61  3094.09  3096.26  3097.28  3097.31  3099.46
eigval :     3100.10  3107.80  3108.62

   temp. (K)  partition function   enthalpy   heat capacity  entropy
                                   cal/mol     cal/K/mol   cal/K/mol   J/K/mol
 298.15  VIB  0.153E+10            12437.741     80.141     76.457
         ROT  0.190E+08              888.752      2.981     36.283
         INT  0.290E+17            13326.493     83.122    112.740
         TR   0.849E+28             1481.254      4.968     44.013
         TOT                       14807.7470    88.0904   156.7531   655.8551

       T/K    H(0)-H(T)+PV         H(T)/Eh          T*S/Eh         G(T)/Eh
   ------------------------------------------------------------------------
    298.15    0.235976E-01    0.362089E+00    0.744785E-01    0.287611E+00
   ------------------------------------------------------------------------

         :::::::::::::::::::::::::::::::::::::::::::::::::::::
         ::                  THERMODYNAMIC                  ::
         :::::::::::::::::::::::::::::::::::::::::::::::::::::
         :: total free energy         -72.191308069837 Eh   ::
         ::.................................................::
         :: total energy              -72.478919068030 Eh   ::
         :: zero point energy           0.338491825298 Eh   ::
         :: G(RRHO) w/o ZPVE           -0.050880827105 Eh   ::
         :: G(RRHO) contrib.            0.287610998193 Eh   ::
         :::::::::::::::::::::::::::::::::::::::::::::::::::::

           -------------------------------------------------
          | TOTAL ENERGY              -72.478919068030 Eh   |
          | TOTAL ENTHALPY            -72.116829595777 Eh   |
          | TOTAL FREE ENERGY         -72.191308069837 Eh   |
          | GRADIENT NORM               0.000126595648 Eh/α |
          | HOMO-LUMO GAP               2.573493633625 eV   |
           -------------------------------------------------

 * finished run on 2025/09/04 at 14:42:42.489
