   * xtb version 6.7.1 (edcfbbe) compiled by 'albert@albert-system' on 2024-07-22

   ID    Z sym.   atoms
    1    8 O      1
    2    6 C      2-19, 21-28
    3   35 Br     20
    4    1 H      29-45

          program call               : xtb data2507/gas/DphAn-Br/DphAn-Br_gas_T1_crest.xyz --gfn 2 --spinpol --tblite --uhf 2 --ohess vtight --parallel 40 --molden --ceasefiles --namespace data2507/gas/DphAn-Br/DphAn-Br_gas_T1_finalOpt
 * total energy  :   -72.3925560 Eh     change        0.3005297E-08 Eh
 * total energy  :   -72.3926291 Eh     change       -0.7302870E-04 Eh
 * total energy  :   -72.3926544 Eh     change       -0.2529872E-04 Eh
 * total energy  :   -72.3926592 Eh     change       -0.4862623E-05 Eh
 * total energy  :   -72.3926623 Eh     change       -0.3033455E-05 Eh
 * total energy  :   -72.3926638 Eh     change       -0.1483247E-05 Eh
 * total energy  :   -72.3926649 Eh     change       -0.1151700E-05 Eh
 * total energy  :   -72.3926656 Eh     change       -0.6911182E-06 Eh
 * total energy  :   -72.3926661 Eh     change       -0.5266397E-06 Eh
 * total energy  :   -72.3926665 Eh     change       -0.3741944E-06 Eh
 * total energy  :   -72.3926669 Eh     change       -0.3590468E-06 Eh
 * total energy  :   -72.3926672 Eh     change       -0.3037978E-06 Eh
 * total energy  :   -72.3926675 Eh     change       -0.3266290E-06 Eh
 * total energy  :   -72.3926678 Eh     change       -0.2701967E-06 Eh
 * total energy  :   -72.3926679 Eh     change       -0.1629277E-06 Eh
 * total energy  :   -72.3926680 Eh     change       -0.9426800E-07 Eh
   *** GEOMETRY OPTIMIZATION CONVERGED AFTER 16 ITERATIONS ***

 final structure:
================
45
 xtb: 6.7.1 (edcfbbe)
O            1.71260832224245       -3.82240491362306        0.13133077005001
C            1.74054155011231       -2.56498696564554        0.10306736056440
C            1.88685152831734       -1.82255127555905       -1.13199453743861
C            2.22711823049737       -2.53837628484486       -2.29482706036740
C            2.48706496243311       -1.86323209707324       -3.46364589642359
C            2.39237259695538       -0.47838044033022       -3.51060957878372
C            2.01341214376319        0.22583117058645       -2.37858423517318
C            1.74206997581584       -0.42876993013498       -1.18669113037858
C            1.16787258894690        0.32950598766369       -0.00606537533706
C            1.66178141883747        1.76237344235592       -0.03354320735496
C            3.03052088259030        1.98633599010932        0.10937286741254
C            3.54181561354294        3.26850938699476        0.07530398762167
C            2.69366247464791        4.34983072915460       -0.10722993409258
C            1.33514774329988        4.13577825551911       -0.26031166978081
C            0.82058856835100        2.85037414532366       -0.22606189290494
C           -0.36077889688008        0.25124530315131       -0.04349831892517
C           -1.04586947209998       -0.16001964881748       -1.18044341271048
C           -2.42795712189319       -0.22767994173233       -1.19451719578762
C           -3.13576009027570        0.12194344024004       -0.05965481513494
Br          -5.03906567198906        0.03518822627181       -0.07122825243966
C           -2.47815588418375        0.53902259604559        1.08486343657742
C           -1.09816919349785        0.59902965945187        1.08509675595135
C            1.60910051696271       -0.36516926559113        1.27152799365085
C            1.77450989415866        0.35035806330258        2.44742952779753
C            2.00320095081746       -0.29743535225962        3.65139071950153
C            2.05427676028372       -1.68443812511382        3.69143292941884
C            1.91505635542386       -2.41804637581741        2.53785623305704
C            1.73099216270490       -1.76068667608824        1.30704317243639
H            2.30713978494429       -3.61211552596864       -2.23221141090576
H            2.77761032701945       -2.41893898025495       -4.34303795236588
H            2.59412277229813        0.05396322957392       -4.42733636488490
H            1.89276352859927        1.29826213209776       -2.42885253752600
H            3.69127721874995        1.14269284819195        0.24907491611551
H            4.60384181664281        3.42629797372988        0.18999641644346
H            3.09143641200511        5.35320117691607       -0.13359074716334
H            0.66864224085152        4.97225462865294       -0.40999291732845
H           -0.24077829225784        2.69892113938126       -0.35507103134648
H           -0.50609838386234       -0.42885636665306       -2.07509278832943
H           -2.94744249005829       -0.54967034489989       -2.08385260675183
H           -3.03752527173017        0.81218328663248        1.96633327126313
H           -0.59117291789250        0.92120841902660        1.98144703789741
H            1.70804537520640        1.42900048262853        2.42500972896441
H            2.12480974234273        0.28189265440818        4.55377468220256
H            2.22244273689028       -2.19589782246076        4.62772603511886
H            1.97585104286650       -3.49489941704153        2.54039867169031

 projected vibrational frequencies (cm⁻¹)
eigval :       -0.00    -0.00    -0.00     0.00     0.00     0.00
eigval :       10.53    24.58    38.49    49.98    53.09    66.80
eigval :       70.67   113.83   118.34   133.33   171.51   187.35
eigval :      202.12   238.17   247.82   267.00   285.60   293.83
eigval :      314.64   326.52   347.56   368.10   368.56   371.76
eigval :      382.44   391.85   433.35   470.21   472.68   487.42
eigval :      489.72   495.51   533.88   579.06   587.36   594.47
eigval :      602.05   608.89   625.30   655.95   662.71   672.53
eigval :      679.31   696.19   746.53   755.14   760.31   763.37
eigval :      802.89   849.43   849.98   864.01   873.91   876.41
eigval :      885.35   896.55   901.67   903.02   903.36   906.16
eigval :      911.97   914.23   922.77   930.19   932.00   933.70
eigval :      985.41   998.61  1083.87  1085.62  1086.91  1088.02
eigval :     1098.38  1101.25  1126.55  1146.31  1156.10  1159.22
eigval :     1164.76  1172.48  1180.67  1181.32  1187.09  1197.46
eigval :     1203.85  1209.69  1231.68  1246.37  1249.10  1272.77
eigval :     1286.21  1316.40  1320.62  1331.81  1334.15  1373.46
eigval :     1395.72  1397.44  1425.99  1431.82  1439.09  1455.21
eigval :     1468.98  1476.85  1510.86  1518.80  1541.65  1558.49
eigval :     1571.24  1577.19  1580.09  1593.13  3072.35  3076.76
eigval :     3077.61  3078.47  3079.76  3081.44  3086.71  3092.86
eigval :     3093.46  3095.29  3095.50  3096.62  3098.40  3105.70
eigval :     3106.09  3106.83  3107.06

   temp. (K)  partition function   enthalpy   heat capacity  entropy
                                   cal/mol     cal/K/mol   cal/K/mol   J/K/mol
 298.15  VIB  0.213E+10            12656.783     81.893     77.692
         ROT  0.190E+08              888.752      2.981     36.288
         INT  0.405E+17            13545.535     84.874    113.981
         TR   0.849E+28             1481.254      4.968     44.013
         TOT                       15026.7889    89.8423   157.9938   661.0462

       T/K    H(0)-H(T)+PV         H(T)/Eh          T*S/Eh         G(T)/Eh
   ------------------------------------------------------------------------
    298.15    0.239467E-01    0.358709E+00    0.750680E-01    0.283641E+00
   ------------------------------------------------------------------------

         :::::::::::::::::::::::::::::::::::::::::::::::::::::
         ::                  THERMODYNAMIC                  ::
         :::::::::::::::::::::::::::::::::::::::::::::::::::::
         :: total free energy         -72.109027119169 Eh   ::
         ::.................................................::
         :: total energy              -72.392668003320 Eh   ::
         :: zero point energy           0.334762135353 Eh   ::
         :: G(RRHO) w/o ZPVE           -0.051121251202 Eh   ::
         :: G(RRHO) contrib.            0.283640884151 Eh   ::
         :::::::::::::::::::::::::::::::::::::::::::::::::::::

           -------------------------------------------------
          | TOTAL ENERGY              -72.392668003320 Eh   |
          | TOTAL ENTHALPY            -72.033959155659 Eh   |
          | TOTAL FREE ENERGY         -72.109027119169 Eh   |
          | GRADIENT NORM               0.000048248038 Eh/α |
           -------------------------------------------------

 * finished run on 2025/09/04 at 14:46:32.846
