   * xtb version 6.7.1 (edcfbbe) compiled by 'albert@albert-system' on 2024-07-22

   ID    Z sym.   atoms
    1    6 C      1-9, 11-16, 18-23, 25-43, 45-52
    2    7 N      10, 17, 24, 44
    3    1 H      53-90

          program call               : xtb data2507/gas/AcCN/AcCN.xyz --gfn 2 --ohess vtight --parallel 40 --molden --ceasefiles --namespace data2507/gas/AcCN/AcCN_gas_S0_preOpt
          :  Hamiltonian                  GFN2-xTB          :
 * total energy  :  -133.8489129 Eh     change       -0.1786788E-08 Eh
 * total energy  :  -133.8691968 Eh     change       -0.2028397E-01 Eh
 * total energy  :  -133.8756101 Eh     change       -0.6413263E-02 Eh
 * total energy  :  -133.8768259 Eh     change       -0.1215804E-02 Eh
 * total energy  :  -133.8776805 Eh     change       -0.8546397E-03 Eh
 * total energy  :  -133.8780285 Eh     change       -0.3479043E-03 Eh
 * total energy  :  -133.8784551 Eh     change       -0.4266501E-03 Eh
 * total energy  :  -133.8786706 Eh     change       -0.2154560E-03 Eh
 * total energy  :  -133.8789874 Eh     change       -0.3167996E-03 Eh
 * total energy  :  -133.8792692 Eh     change       -0.2818814E-03 Eh
 * total energy  :  -133.8826815 Eh     change       -0.1206536E-05 Eh
 * total energy  :  -133.8826827 Eh     change       -0.1241513E-05 Eh
 * total energy  :  -133.8826839 Eh     change       -0.1144697E-05 Eh
 * total energy  :  -133.8826849 Eh     change       -0.1055450E-05 Eh
 * total energy  :  -133.8826858 Eh     change       -0.8867641E-06 Eh
 * total energy  :  -133.8826864 Eh     change       -0.5599377E-06 Eh
 * total energy  :  -133.8826867 Eh     change       -0.2897172E-06 Eh
 * total energy  :  -133.8826869 Eh     change       -0.2081205E-06 Eh
 * total energy  :  -133.8826869 Eh     change       -0.2113288E-07 Eh
   *** GEOMETRY OPTIMIZATION CONVERGED AFTER 87 ITERATIONS ***

 final structure:
================
90
 xtb: 6.7.1 (edcfbbe)
C            9.44062814822225       -2.17478205003337       -0.97418769361985
C            8.84319693514777       -1.32722478717543        0.16385548943732
C            9.81213224640847       -1.28021078417710        1.35943125306827
C            8.62993152929135        0.08456969186084       -0.34716491963338
C            9.71592743945845        0.81157922131398       -0.81529386297666
C            9.58127415988366        2.09129349712423       -1.32033374345405
C            8.32407784644522        2.66434379195596       -1.37967983572210
C            7.22838346585433        1.96523961439180       -0.91945055542116
C            7.36572947378361        0.68198363035498       -0.38154053361635
N            6.24640797938641        0.00775630355260        0.08377027552535
C            4.99028053977388        0.66359296261261        0.06540850251481
C            4.72040269604412        1.67975985678002        0.97634132606737
C            3.49632671917532        2.31722683752871        0.96013023390838
C            2.51450576066994        1.93861397080632        0.04657719040986
C            1.21480528515074        2.61938038247479        0.04494648061763
C            1.13506479911518        4.01149628583217        0.06271985586928
N            0.00007026914247        4.68257509118543        0.03883200428119
C           -1.13374963583400        4.00997660034907        0.00406493572168
C           -1.21087914452570        2.61763042781121       -0.00054396761375
C           -2.50957849239049        1.93497645291494       -0.01471073450152
C           -3.48868723756435        2.32441551120399       -0.92662556075873
C           -4.71274533970290        1.68744317397454       -0.95380951897027
C           -4.98579438982364        0.66115522217225       -0.05513725425165
N           -6.24383562903984        0.00956350642881       -0.08235413599449
C           -7.36261116588606        0.68637744065683        0.38092632085763
C           -7.22203000263026        1.96491318836478        0.92923144305356
C           -8.31702365251077        2.66696243478155        1.38658273010233
C           -9.57697767396005        2.10151761003682        1.31421909493760
C           -9.71499755399990        0.82588838417205        0.79990317776720
C           -8.62973353923832        0.09603615601140        0.33444760025968
C           -8.84711848747744       -1.31145370040061       -0.18651417169772
C           -9.80821597829369       -1.25243527373206       -1.38787541272664
C           -9.45610720678878       -2.16247218693733        0.94279684910838
C           -7.54983221259776       -1.95474151004496       -0.63790472115813
C           -7.57108876450520       -3.24823160502703       -1.14203887099090
C           -6.42787177596695       -3.87878775284595       -1.59569421812483
C           -5.22415644871451       -3.19864943724707       -1.56402109436131
C           -5.17435191128779       -1.91300808461016       -1.06816497913675
C           -6.32449257335519       -1.28293909171063       -0.58403880409752
C           -4.01886129597237        0.28198449743531        0.86974158474023
C           -2.78948225777594        0.90975716691129        0.88588478557805
C            0.00255542398273        1.91153224187215        0.01667297248252
C            0.00284923033372        0.49527081449916        0.00554492618154
N            0.00242712202517       -0.65136514048407       -0.00366032512862
C            2.79225099451160        0.92502102153713       -0.86783248678753
C            4.02125858798933        0.29647637686356       -0.86211890441761
C            6.32329707020039       -1.28822064442585        0.57680741186403
C            5.17253729520124       -1.91550847571214        1.06305699826692
C            5.21861775575079       -3.20423168954315        1.55121390807507
C            6.41917423547152       -3.89030272130781        1.57284652999629
C            7.56303358569862       -3.26288664176622        1.11644537872753
C            7.54547173017941       -1.96649678024041        0.61968581877811
H           10.38412877880399       -1.75811550855961       -1.31557558586731
H            9.61870002367806       -3.19509061096738       -0.64631133396007
H            8.75181849684837       -2.20012846839120       -1.81657307747880
H           10.00574427314146       -2.27848386396565        1.74191564563865
H            9.38124595779647       -0.68335887531006        2.16126621886790
H           10.76114198645497       -0.83547225447641        1.07289515375475
H           10.70051826019653        0.36965433535640       -0.78934524897685
H           10.44782524944000        2.62956835713147       -1.67270176438644
H            8.19182993945841        3.65555486169216       -1.78732776903198
H            6.24960862249309        2.41552534485645       -0.98321828180786
H            5.47703932476942        1.96387563013127        1.69246232646311
H            3.28490580324944        3.09582965393869        1.67841695163294
H            2.03666161505426        4.60919880279642        0.07598270191314
H           -2.03648428310186        4.60610720765244        0.00024194061978
H           -3.27515841364115        3.11175074449105       -1.63470016813054
H           -5.46736155600435        1.98028480267275       -1.66855473410335
H           -6.24132422163972        2.40925420340120        1.00364484821665
H           -8.18198819542559        3.65429376751640        1.80261230486315
H          -10.44299840890350        2.64220502050450        1.66422821669667
H          -10.70176830744252        0.38954313810722        0.76419102081596
H          -10.75703969008097       -0.80534528204201       -1.10438846607103
H          -10.00384009925679       -2.24734055615964       -1.77803675515695
H           -9.36968711496472       -0.65233679176433       -2.18311893700413
H           -8.77219294998211       -2.19751071330014        1.78880880456288
H           -9.63871766168671       -3.17951315880683        0.60739559106480
H          -10.39889700469755       -1.74210258628658        1.28160547845195
H           -8.50710549365017       -3.78420273859160       -1.18709290826795
H           -6.47992971568919       -4.88669460085265       -1.97816735868390
H           -4.32031134491710       -3.66439420128031       -1.92684882086528
H           -4.23123414692128       -1.38887420038245       -1.05973811368828
H           -4.23678252425944       -0.50986627557258        1.57037739330153
H           -2.05043048638812        0.61763806558960        1.61687507837773
H            2.05151393517917        0.64236853922458       -1.60080345598659
H            4.23705644039444       -0.48725013313713       -1.57245398386563
H            4.23193803952145       -1.38677375261644        1.06234862801587
H            4.31438593924250       -3.66762863769845        1.91608449074818
H            6.46826765314540       -4.90061161728769        1.94928601214599
H            8.49652232533131       -3.80391665597802        1.15293118411857

          :  Hamiltonian                  GFN2-xTB          :
         :: gradient norm              0.000144664973 Eh/a0 ::
         :: HOMO-LUMO gap              1.282551790837 eV    ::
         :: SCC energy              -136.353935754667 Eh    ::
         :: -> dispersion             -0.126976525466 Eh    ::
         :: repulsion energy           2.471248868694 Eh    ::

    * Orbital Energies and Occupations

         #    Occupation            Energy/Eh            Energy/eV
      -------------------------------------------------------------
         1        2.0000           -0.6901683             -18.7804
       ...           ...                  ...                  ...
       113        2.0000           -0.4061933             -11.0531
       114        2.0000           -0.4060964             -11.0504
       115        2.0000           -0.4053089             -11.0290
       116        2.0000           -0.4052146             -11.0265
       117        2.0000           -0.4014166             -10.9231
       118        2.0000           -0.4013824             -10.9222
       119        2.0000           -0.3959626             -10.7747
       120        2.0000           -0.3959320             -10.7739
       121        2.0000           -0.3904785             -10.6255
       122        2.0000           -0.3904510             -10.6247
       123        2.0000           -0.3853642             -10.4863
       124        2.0000           -0.3452512              -9.3948
       125        2.0000           -0.3452059              -9.3935 (HOMO)
       126                         -0.2980733              -8.1110 (LUMO)
       127                         -0.2756304              -7.5003
       128                         -0.2442114              -6.6453
       129                         -0.2432687              -6.6197
       130                         -0.2426798              -6.6037
       131                         -0.2250261              -6.1233
       132                         -0.2221807              -6.0458
       133                         -0.2221360              -6.0446
       134                         -0.2176729              -5.9232
       135                         -0.2173519              -5.9144
       136                         -0.2170124              -5.9052
       ...                                ...                  ...
       246                          1.1539483              31.4005
      -------------------------------------------------------------
                  HL-Gap            0.0471327 Eh            1.2825 eV

     #   Z          covCN         q      C6AA      α(0)
     1   6 C        3.761    -0.103    22.513     6.764
     2   6 C        3.909     0.021    20.157     6.381
     3   6 C        3.761    -0.103    22.509     6.763
     4   6 C        2.980    -0.014    28.349     8.734
     5   6 C        2.928    -0.036    28.898     8.816
     6   6 C        2.917    -0.045    29.110     8.848
     7   6 C        2.920    -0.033    28.827     8.805
     8   6 C        2.924    -0.059    29.475     8.903
     9   6 C        2.928     0.058    26.703     8.474
    10   7 N        2.754    -0.071    22.611     7.062
    11   6 C        2.928     0.073    26.363     8.420
    12   6 C        2.921    -0.037    28.914     8.818
    13   6 C        2.924    -0.033    28.813     8.803
    14   6 C        2.977     0.005    27.907     8.665
    15   6 C        2.976     0.008    27.828     8.653
    16   6 C        2.915     0.054    26.794     8.488
    17   7 N        1.834    -0.210    26.396     7.613
    18   6 C        2.915     0.054    26.794     8.488
    19   6 C        2.977     0.008    27.828     8.653
    20   6 C        2.977     0.005    27.908     8.666
    21   6 C        2.924    -0.033    28.813     8.803
    22   6 C        2.921    -0.037    28.915     8.818
    23   6 C        2.928     0.073    26.364     8.421
    24   7 N        2.754    -0.071    22.610     7.062
    25   6 C        2.928     0.058    26.704     8.475
    26   6 C        2.924    -0.059    29.475     8.903
    27   6 C        2.920    -0.033    28.827     8.805
    28   6 C        2.917    -0.045    29.110     8.847
    29   6 C        2.928    -0.036    28.898     8.816
    30   6 C        2.980    -0.014    28.348     8.734
    31   6 C        3.909     0.021    20.157     6.381
    32   6 C        3.761    -0.103    22.509     6.763
    33   6 C        3.761    -0.103    22.513     6.764
    34   6 C        2.980    -0.014    28.357     8.735
    35   6 C        2.928    -0.036    28.902     8.816
    36   6 C        2.917    -0.044    29.095     8.845
    37   6 C        2.920    -0.032    28.805     8.801
    38   6 C        2.924    -0.058    29.451     8.900
    39   6 C        2.927     0.057    26.711     8.476
    40   6 C        2.921    -0.035    28.881     8.813
    41   6 C        2.923    -0.028    28.698     8.785
    42   6 C        2.987     0.021    27.537     8.608
    43   6 C        1.908     0.116    28.241     8.582
    44   7 N        0.911    -0.232    26.081     7.386
    45   6 C        2.923    -0.028    28.697     8.785
    46   6 C        2.921    -0.035    28.879     8.813
    47   6 C        2.928     0.057    26.711     8.476
    48   6 C        2.924    -0.058    29.451     8.900
    49   6 C        2.920    -0.032    28.805     8.801
    50   6 C        2.917    -0.044    29.095     8.845
    51   6 C        2.928    -0.036    28.901     8.816
    52   6 C        2.980    -0.014    28.357     8.735
    53   1 H        0.925     0.039     2.464     2.455
    54   1 H        0.925     0.039     2.457     2.451
    55   1 H        0.925     0.031     2.568     2.506
    56   1 H        0.925     0.039     2.459     2.452
    57   1 H        0.925     0.031     2.575     2.509
    58   1 H        0.925     0.039     2.463     2.454
    59   1 H        0.926     0.030     2.586     2.515
    60   1 H        0.926     0.026     2.645     2.543
    61   1 H        0.926     0.026     2.637     2.539
    62   1 H        0.926     0.021     2.712     2.575
    63   1 H        0.926     0.046     2.366     2.405
    64   1 H        0.926     0.040     2.454     2.450
    65   1 H        0.925     0.046     2.364     2.404
    66   1 H        0.925     0.046     2.364     2.405
    67   1 H        0.926     0.040     2.455     2.450
    68   1 H        0.926     0.046     2.366     2.405
    69   1 H        0.926     0.021     2.711     2.575
    70   1 H        0.926     0.026     2.637     2.539
    71   1 H        0.926     0.026     2.644     2.543
    72   1 H        0.926     0.030     2.586     2.515
    73   1 H        0.925     0.039     2.463     2.454
    74   1 H        0.925     0.039     2.459     2.452
    75   1 H        0.925     0.031     2.575     2.509
    76   1 H        0.925     0.031     2.568     2.506
    77   1 H        0.925     0.039     2.457     2.451
    78   1 H        0.925     0.039     2.464     2.455
    79   1 H        0.926     0.030     2.591     2.517
    80   1 H        0.926     0.027     2.636     2.539
    81   1 H        0.926     0.030     2.587     2.515
    82   1 H        0.926     0.025     2.652     2.546
    83   1 H        0.926     0.049     2.329     2.387
    84   1 H        0.926     0.041     2.437     2.441
    85   1 H        0.926     0.041     2.436     2.441
    86   1 H        0.926     0.049     2.329     2.387
    87   1 H        0.926     0.025     2.654     2.548
    88   1 H        0.926     0.030     2.588     2.516
    89   1 H        0.926     0.027     2.636     2.539
    90   1 H        0.926     0.030     2.591     2.517

molecular dipole:
                 x           y           z       tot (Debye)
 q only:       -0.003       0.433       0.003
   full:       -0.003       0.579       0.004       1.472

 projected vibrational frequencies (cm⁻¹)
eigval :       -0.00     0.00     0.00     0.00     0.00     0.00
eigval :        7.45     7.61     8.69    18.50    19.58    23.25
eigval :       31.86    38.97    54.14    55.45    57.67    64.07
eigval :       90.20    93.61    98.96    99.73   103.81   106.54
eigval :      112.62   127.78   127.90   128.50   155.43   168.09
eigval :      189.18   189.47   195.51   201.65   201.71   218.67
eigval :      219.34   233.46   233.66   236.28   263.79   288.94
eigval :      299.58   305.42   310.25   320.81   331.73   331.85
eigval :      344.31   344.50   366.18   375.42   376.84   379.99
eigval :      380.91   385.47   392.79   402.00   404.09   413.13
eigval :      419.63   422.75   441.97   452.12   452.28   483.49
eigval :      491.06   493.45   514.56   515.13   515.19   525.48
eigval :      547.42   547.43   548.57   561.45   572.34   576.05
eigval :      577.45   586.68   587.08   597.48   603.14   612.43
eigval :      620.78   624.19   642.64   665.39   682.64   682.74
eigval :      684.20   693.63   693.67   699.01   703.69   725.72
eigval :      731.16   746.46   776.87   776.92   778.37   778.43
eigval :      795.70   812.71   815.22   826.85   827.75   833.45
eigval :      859.40   866.22   866.32   868.18   868.34   872.64
eigval :      873.07   905.92   913.11   913.12   913.77   914.26
eigval :      914.28   914.62   915.28   920.05   920.26   921.11
eigval :      921.15   922.29   922.39   927.17   928.91   929.19
eigval :      938.81   939.20   957.20   957.20   999.30  1014.38
eigval :     1014.38  1017.90  1062.57  1077.28  1077.29  1086.59
eigval :     1086.61  1114.62  1114.70  1120.13  1120.15  1133.01
eigval :     1133.66  1141.41  1141.43  1160.49  1160.53  1161.12
eigval :     1161.20  1173.42  1174.13  1186.15  1186.74  1187.76
eigval :     1187.80  1188.54  1188.59  1206.92  1210.26  1213.19
eigval :     1243.94  1245.64  1250.61  1250.67  1253.76  1259.21
eigval :     1265.84  1268.96  1269.62  1269.75  1295.19  1295.21
eigval :     1304.98  1307.92  1309.92  1320.41  1325.80  1325.87
eigval :     1333.84  1335.14  1342.26  1342.45  1343.72  1396.72
eigval :     1396.95  1402.96  1402.98  1408.68  1420.98  1421.01
eigval :     1429.74  1436.65  1436.83  1443.53  1443.69  1480.48
eigval :     1480.67  1486.85  1488.19  1490.13  1490.15  1491.08
eigval :     1491.09  1498.15  1499.41  1500.59  1500.61  1505.44
eigval :     1505.48  1528.30  1541.68  1558.93  1560.38  1576.06
eigval :     1576.09  1589.67  1589.77  1593.46  1593.52  1593.68
eigval :     1593.81  1603.16  1603.31  2365.85  3026.41  3026.42
eigval :     3028.84  3028.87  3039.69  3039.70  3042.43  3042.45
eigval :     3048.57  3048.59  3052.42  3052.47  3065.08  3065.62
eigval :     3077.78  3077.84  3079.61  3079.62  3081.46  3081.51
eigval :     3082.78  3082.83  3084.61  3084.69  3087.48  3087.74
eigval :     3093.35  3093.46  3094.82  3094.97  3095.25  3095.31
eigval :     3099.45  3099.56  3099.79  3099.93  3102.86  3102.94

   temp. (K)  partition function   enthalpy   heat capacity  entropy
                                   cal/mol     cal/K/mol   cal/K/mol   J/K/mol
 298.15  VIB  0.132E+22            26168.438    162.806    164.281
         ROT  0.704E+08              888.752      2.981     38.890
         INT  0.927E+29            27057.190    165.787    203.170
         TR   0.168E+29             1481.254      4.968     45.371
         TOT                       28538.4442   170.7551   248.5414  1039.8971

       T/K    H(0)-H(T)+PV         H(T)/Eh          T*S/Eh         G(T)/Eh
   ------------------------------------------------------------------------
    298.15    0.454789E-01    0.755881E+00    0.118090E+00    0.637791E+00
   ------------------------------------------------------------------------

         :::::::::::::::::::::::::::::::::::::::::::::::::::::
         ::                  THERMODYNAMIC                  ::
         :::::::::::::::::::::::::::::::::::::::::::::::::::::
         :: total free energy        -133.244895788024 Eh   ::
         ::.................................................::
         :: total energy             -133.882686885965 Eh   ::
         :: zero point energy           0.710402217423 Eh   ::
         :: G(RRHO) w/o ZPVE           -0.072611119482 Eh   ::
         :: G(RRHO) contrib.            0.637791097941 Eh   ::
         :::::::::::::::::::::::::::::::::::::::::::::::::::::

           -------------------------------------------------
          | TOTAL ENERGY             -133.882686885965 Eh   |
          | TOTAL ENTHALPY           -133.126805762885 Eh   |
          | TOTAL FREE ENERGY        -133.244895788024 Eh   |
          | GRADIENT NORM               0.000144914049 Eh/α |
          | HOMO-LUMO GAP               1.282545126596 eV   |
           -------------------------------------------------

 * finished run on 2025/08/24 at 00:22:10.747
