   * xtb version 6.7.1 (edcfbbe) compiled by 'albert@albert-system' on 2024-07-22

   ID    Z sym.   atoms
    1    6 C      1-9, 11-16, 18-23, 25-43, 45-52
    2    7 N      10, 17, 24, 44
    3    1 H      53-90

          program call               : xtb data2507/gas/AcCN/AcCN_gas_S0_finalOpt.xtbopt.xyz --gfn 2 --spinpol --tblite --uhf 2 --ohess vtight --parallel 40 --molden --ceasefiles --namespace data2507/gas/AcCN/AcCN_gas_T1_preOpt
 * total energy  :  -133.8009995 Eh     change       -0.1444704E-08 Eh
 * total energy  :  -133.8050261 Eh     change       -0.4026620E-02 Eh
 * total energy  :  -133.8057506 Eh     change       -0.7245175E-03 Eh
 * total energy  :  -133.8058258 Eh     change       -0.7511887E-04 Eh
 * total energy  :  -133.8058920 Eh     change       -0.6623495E-04 Eh
 * total energy  :  -133.8059253 Eh     change       -0.3328280E-04 Eh
 * total energy  :  -133.8059730 Eh     change       -0.4769247E-04 Eh
 * total energy  :  -133.8060140 Eh     change       -0.4105923E-04 Eh
 * total energy  :  -133.8060331 Eh     change       -0.1906870E-04 Eh
 * total energy  :  -133.8060482 Eh     change       -0.1507185E-04 Eh
 * total energy  :  -133.8063116 Eh     change       -0.5150639E-06 Eh
 * total energy  :  -133.8063120 Eh     change       -0.4036601E-06 Eh
 * total energy  :  -133.8063123 Eh     change       -0.2196890E-06 Eh
 * total energy  :  -133.8063125 Eh     change       -0.2351480E-06 Eh
 * total energy  :  -133.8063127 Eh     change       -0.1982523E-06 Eh
 * total energy  :  -133.8063129 Eh     change       -0.1809472E-06 Eh
 * total energy  :  -133.8063131 Eh     change       -0.1788940E-06 Eh
 * total energy  :  -133.8063129 Eh     change        0.1341145E-06 Eh
 * total energy  :  -133.8063129 Eh     change       -0.6855146E-08 Eh
   *** GEOMETRY OPTIMIZATION CONVERGED AFTER 68 ITERATIONS ***

 final structure:
================
90
 xtb: 6.7.1 (edcfbbe)
C            9.42911627873768       -2.49617570943070       -0.88195194506117
C            8.89850327697951       -1.51587523939399        0.18112413411247
C            9.93868523056367       -1.33150836731181        1.30209571030135
C            8.65135765138272       -0.17597962787264       -0.48055580410133
C            9.70304506351322        0.48994842385277       -1.09446502291611
C            9.52855819688247        1.70241975687895       -1.73558372255299
C            8.26562333726742        2.26927089990439       -1.78537993621697
C            7.20377515139123        1.63232560210750       -1.18312083237275
C            7.38101131039337        0.41641201012811       -0.50959991169183
N            6.29960807051519       -0.19026954863775        0.09735765229067
C            5.03511917359096        0.46297509694618        0.07109295892134
C            4.79917563888360        1.56149543291646        0.89298049509735
C            3.56650456102422        2.17663701532246        0.88252105633464
C            2.53643946326212        1.71048019291546        0.05695023545010
C            1.23248865280703        2.35953004789505        0.06361508917956
C            1.15227175752925        3.73347257454643        0.07251179341334
N           -0.00025478268230        4.39680640682229        0.02775309942091
C           -1.15212139286842        3.73326728066352       -0.02579701230257
C           -1.23131717314104        2.35917559838402       -0.03497559244488
C           -2.53466299957065        1.70927755175379       -0.03442621259393
C           -3.56706954929607        2.18585472440824       -0.85124448324564
C           -4.79965794458617        1.57078805713311       -0.86628685613041
C           -5.03352686696642        0.46174085934894       -0.05788519086928
N           -6.29849844874008       -0.19005581774345       -0.08783428012927
C           -7.37906582462555        0.41407311427950        0.52340559730124
C           -7.20018472443270        1.62501666024121        1.20544177639585
C           -8.26124992665200        2.25972148147372        1.81142083908898
C           -9.52513557221805        1.69542353946093        1.75717958382993
C           -9.70114128382234        0.48724332148427        1.10845660944445
C           -8.65022555662125       -0.17639059162936        0.49072850916990
C           -8.89905432661009       -1.51232549839582       -0.17822601094315
C           -9.93920857887399       -1.32082719752063       -1.29802463433924
C           -9.43059359875850       -2.49765161785094        0.87973579458758
C           -7.63531088331057       -2.08458263260714       -0.78687645655190
C           -7.68390557896088       -3.30892542511647       -1.43923482631871
C           -6.56756143373416       -3.86702999506775       -2.03378460042744
C           -5.36327956033678       -3.18348683631654       -1.99512570046399
C           -5.28503198206020       -1.96654651976127       -1.35566811913212
C           -6.40836461454519       -1.40876462062088       -0.73097093641032
C           -4.02370816944697       -0.01044023934710        0.77582364780450
C           -2.79228126143869        0.60686141958271        0.78807573075335
C            0.00099224264679        1.61469047360062        0.00887225299200
C            0.00137624494201        0.23545504675399       -0.00178237384216
N            0.00130512312321       -0.92593625233314       -0.01053147862417
C            2.79643001763117        0.61921642663222       -0.77940994043964
C            4.02792507210205        0.00184469655084       -0.77177445035325
C            6.40768980445363       -1.41283776437848        0.73324012804552
C            5.28298780767883       -1.97345109030607        1.35288760558710
C            5.35956754888446       -3.19396725832262        1.98569939038623
C            6.56341862470004       -3.87838016709426        2.02239433132709
C            7.68087620669456       -3.31797542729476        1.43208050444405
C            7.63397017397817       -2.09006343818043        0.78635858656593
H           10.34820776975121       -2.12570329828987       -1.32696659358370
H            9.63121274923899       -3.46967937156758       -0.44452776004813
H            8.69069457839093       -2.62078113446737       -1.67167459907939
H           10.15581380704139       -2.27822044092602        1.78846427143592
H            9.55725114895752       -0.64016599005769        2.05117515785985
H           10.86767920240388       -0.93080807411600        0.90645007127727
H           10.69018649451168        0.05375130705563       -1.07702577074674
H           10.36889595344842        2.19469485024413       -2.20038519470628
H            8.10672797725631        3.20653254448735       -2.29672775085852
H            6.21954072841846        2.07026290635230       -1.23494842077865
H            5.58523965670111        1.91460841041450        1.54493265470545
H            3.38090950426461        3.01157215932493        1.54192681577006
H            2.04505968179127        4.34295869092889        0.06458141783533
H           -2.04540778156862        4.34184980513413       -0.00908021338095
H           -3.38332501361628        3.02920906023552       -1.50037137878770
H           -5.58747653470024        1.93223990785935       -1.51152760056688
H           -6.21526799877787        2.06089683464536        1.26114279390347
H           -8.10095512163799        3.19322063113414        2.32917331832038
H          -10.36492890194000        2.18612302852555        2.22461855544234
H          -10.68889265987954        0.05256704832234        1.08801203246437
H          -10.86762911543890       -0.92100947962632       -0.90014848262455
H          -10.15762722774248       -2.26472348231615       -1.78926466729334
H           -9.55701694456166       -0.62609788559708       -2.04357289176206
H           -8.69220545314945       -2.62719753065053        1.66869394441769
H           -9.63380493239209       -3.46862207231072        0.43723275948856
H          -10.34922396770329       -2.12853785393545        1.32682978184085
H           -8.61829076583613       -3.84696539909768       -1.48968557253555
H           -6.63974837199686       -4.82284758565684       -2.52956678041634
H           -4.48363663670451       -3.59616341444881       -2.46458681804658
H           -4.34630701777854       -1.43645788992667       -1.33720152695387
H           -4.21501439395779       -0.86283922181871        1.41101818081451
H           -2.02213604609449        0.24174407439048        1.44870089195480
H            2.02810320679810        0.26266995893933       -1.44678969412253
H            4.22105168986038       -0.84233267999062       -1.41729841429515
H            4.34456634289813       -1.44277272825194        1.33556561041163
H            4.47897239776073       -3.60878791712850        2.45147458468896
H            6.63433425374132       -4.83687673141098        2.51316426224744
H            8.61474308345428       -3.85709964515060        1.48054508813710

 projected vibrational frequencies (cm⁻¹)
eigval :       -0.00    -0.00     0.00     0.00     0.00     0.00
eigval :        6.12     7.21     8.99    17.91    19.04    20.13
eigval :       27.70    38.13    44.54    58.16    59.33    67.63
eigval :       90.17    96.31    97.49    97.75   102.20   110.61
eigval :      112.39   128.09   128.45   132.11   158.24   170.10
eigval :      190.51   190.81   200.33   201.29   204.23   216.55
eigval :      217.06   232.75   235.29   236.34   284.74   290.28
eigval :      295.46   304.27   308.36   320.80   328.50   328.69
eigval :      341.92   342.37   361.32   374.12   375.15   378.32
eigval :      378.93   388.27   394.93   400.41   401.65   411.91
eigval :      411.96   419.11   420.62   446.10   450.22   451.12
eigval :      467.14   499.83   504.21   508.56   508.74   510.34
eigval :      516.05   534.40   544.38   544.49   546.42   559.88
eigval :      571.11   581.91   583.77   593.87   597.82   604.86
eigval :      610.16   610.90   637.30   642.43   662.56   680.70
eigval :      685.77   685.83   692.00   692.23   698.59   698.60
eigval :      727.88   742.19   756.85   774.81   775.20   776.43
eigval :      776.86   799.84   805.78   818.69   823.06   825.49
eigval :      827.06   830.43   858.21   860.79   867.97   868.28
eigval :      870.11   870.61   908.42   909.23   909.59   913.79
eigval :      913.93   914.80   914.97   916.24   916.36   919.31
eigval :      921.38   921.57   922.01   922.38   923.28   923.65
eigval :      937.67   937.86   957.49   957.59   988.89  1010.13
eigval :     1013.17  1013.41  1042.22  1076.15  1076.22  1085.51
eigval :     1085.81  1106.90  1109.38  1111.25  1115.07  1115.17
eigval :     1118.49  1131.37  1134.64  1139.41  1139.58  1142.33
eigval :     1154.36  1154.44  1170.01  1170.20  1182.88  1184.72
eigval :     1184.87  1185.46  1185.77  1194.20  1207.76  1212.68
eigval :     1239.12  1241.85  1244.15  1245.05  1245.25  1249.81
eigval :     1261.68  1261.85  1264.34  1264.74  1294.73  1294.91
eigval :     1297.19  1310.61  1311.83  1313.53  1321.41  1323.33
eigval :     1329.13  1331.83  1331.92  1334.97  1335.44  1365.93
eigval :     1375.49  1395.11  1401.30  1401.64  1407.09  1414.43
eigval :     1419.39  1419.77  1429.07  1429.17  1431.99  1432.33
eigval :     1461.63  1461.68  1475.27  1475.85  1483.93  1484.39
eigval :     1485.21  1486.07  1487.19  1487.61  1495.67  1496.32
eigval :     1501.76  1502.11  1503.72  1522.58  1524.52  1561.08
eigval :     1561.09  1567.09  1575.32  1575.37  1582.88  1582.92
eigval :     1583.48  1593.53  1594.04  2244.10  3028.84  3028.85
eigval :     3030.85  3030.90  3042.50  3042.54  3044.96  3045.02
eigval :     3051.58  3051.59  3054.92  3055.15  3059.78  3059.88
eigval :     3076.09  3076.13  3083.28  3083.34  3083.55  3083.69
eigval :     3084.88  3084.95  3088.60  3088.63  3089.22  3089.30
eigval :     3091.18  3091.31  3098.78  3098.98  3100.07  3100.33
eigval :     3108.47  3108.67  3110.48  3110.51  3113.30  3113.61

   temp. (K)  partition function   enthalpy   heat capacity  entropy
                                   cal/mol     cal/K/mol   cal/K/mol   J/K/mol
 298.15  VIB  0.270E+22            26391.433    164.299    165.546
         ROT  0.711E+08              888.752      2.981     38.910
         INT  0.192E+30            27280.185    167.280    204.456
         TR   0.168E+29             1481.254      4.968     45.371
         TOT                       28761.4389   172.2485   249.8270  1045.2763

       T/K    H(0)-H(T)+PV         H(T)/Eh          T*S/Eh         G(T)/Eh
   ------------------------------------------------------------------------
    298.15    0.458343E-01    0.752479E+00    0.118701E+00    0.633778E+00
   ------------------------------------------------------------------------

         :::::::::::::::::::::::::::::::::::::::::::::::::::::
         ::                  THERMODYNAMIC                  ::
         :::::::::::::::::::::::::::::::::::::::::::::::::::::
         :: total free energy        -133.172534481680 Eh   ::
         ::.................................................::
         :: total energy             -133.806312917719 Eh   ::
         :: zero point energy           0.706645051468 Eh   ::
         :: G(RRHO) w/o ZPVE           -0.072866615429 Eh   ::
         :: G(RRHO) contrib.            0.633778436039 Eh   ::
         :::::::::::::::::::::::::::::::::::::::::::::::::::::

           -------------------------------------------------
          | TOTAL ENERGY             -133.806312917719 Eh   |
          | TOTAL ENTHALPY           -133.053833595916 Eh   |
          | TOTAL FREE ENERGY        -133.172534481680 Eh   |
          | GRADIENT NORM               0.000046571359 Eh/α |
           -------------------------------------------------

 * finished run on 2025/08/24 at 00:28:23.272
