   * xtb version 6.7.1 (edcfbbe) compiled by 'albert@albert-system' on 2024-07-22

   ID    Z sym.   atoms
    1    6 C      1-9, 11-16, 18-23, 25-43, 45-52
    2    7 N      10, 17, 24, 44
    3    1 H      53-90

          program call               : xtb data2507/gas/AcCN/AcCN_gas_T1_crest.xyz --gfn 2 --spinpol --tblite --uhf 2 --ohess vtight --parallel 40 --molden --ceasefiles --namespace data2507/gas/AcCN/AcCN_gas_T1_finalOpt
 * total energy  :  -133.8074165 Eh     change       -0.8253437E-08 Eh
 * total energy  :  -133.8074577 Eh     change       -0.4113365E-04 Eh
 * total energy  :  -133.8074706 Eh     change       -0.1290165E-04 Eh
 * total energy  :  -133.8074743 Eh     change       -0.3696821E-05 Eh
 * total energy  :  -133.8074814 Eh     change       -0.7097722E-05 Eh
 * total energy  :  -133.8074896 Eh     change       -0.8249252E-05 Eh
 * total energy  :  -133.8074960 Eh     change       -0.6344814E-05 Eh
 * total energy  :  -133.8075012 Eh     change       -0.5230970E-05 Eh
 * total energy  :  -133.8075053 Eh     change       -0.4121490E-05 Eh
 * total energy  :  -133.8075098 Eh     change       -0.4483769E-05 Eh
 * total energy  :  -133.8075158 Eh     change       -0.9371387E-06 Eh
 * total energy  :  -133.8075160 Eh     change       -0.1982198E-06 Eh
 * total energy  :  -133.8075167 Eh     change       -0.7070662E-06 Eh
 * total energy  :  -133.8075176 Eh     change       -0.9137434E-06 Eh
 * total energy  :  -133.8075184 Eh     change       -0.7625324E-06 Eh
 * total energy  :  -133.8075189 Eh     change       -0.5194862E-06 Eh
 * total energy  :  -133.8075193 Eh     change       -0.4666199E-06 Eh
 * total energy  :  -133.8075198 Eh     change       -0.4503104E-06 Eh
 * total energy  :  -133.8075198 Eh     change       -0.7714135E-08 Eh
   *** GEOMETRY OPTIMIZATION CONVERGED AFTER 22 ITERATIONS ***

 final structure:
================
90
 xtb: 6.7.1 (edcfbbe)
C            9.23615014923997       -2.10271680957955        1.95891051765676
C            8.82987384219089       -1.41304529867236        0.64290808605903
C            9.98816157753933       -1.47479259538469       -0.37056669564805
C            7.63771090401844       -2.14208782493538        0.05769633769287
C            7.75063386387447       -3.48657987520013       -0.26869450102245
C            6.70336213441771       -4.19514179451343       -0.82765007369618
C            5.50622258710660       -3.54810276465710       -1.08694691139383
C            5.36527133811416       -2.21442915199019       -0.77475529568971
C            6.41640179432411       -1.49874205475819       -0.18652674572006
N            6.24416905243040       -0.16273445177576        0.12398255005978
C            4.99156364153331        0.45366362560265       -0.15209425466750
C            4.86414010935116        1.32083297546693       -1.23403805174155
C            3.64765667286199        1.90340311913182       -1.51128045002555
C            2.52349377339465        1.63647613163182       -0.71883451356412
C            1.23578485848238        2.23746299037916       -1.02258194477637
C            1.15397126430197        3.53924908723031       -1.46519774454799
N            0.00067846345149        4.16820471483050       -1.66981477799758
C           -1.15239122001864        3.53954087362300       -1.46560091874059
C           -1.23481301819686        2.23731088095532       -1.02363043994587
C           -2.52235041225222        1.63728395994496       -0.71923916699969
C           -3.64748887996657        1.90596294736824       -1.51012324034365
C           -4.86385383893203        1.32375271925847       -1.23239588465305
C           -4.99098029102708        0.45491840513381       -0.15145253003235
N           -6.24324305976118       -0.16113409012275        0.12481650278806
C           -7.25923111086219        0.60040255978523        0.66769355026156
C           -7.01886833759015        1.94113502550417        0.99678395529986
C           -8.01599740002446        2.73050658506853        1.52460235618525
C           -9.27510668968144        2.19660863381761        1.74433182273323
C           -9.50879383547646        0.86660018134018        1.44776770717579
C           -8.52271519952207        0.04652173341775        0.91709316665654
C           -8.82999804032609       -1.41083584501965        0.64189538539811
C           -9.98081304438857       -1.49125764976597       -0.37874074067157
C           -9.24359501766131       -2.08186400645839        1.96525800957326
C           -7.63169048133023       -2.14484837807468        0.07587362693843
C           -7.73928467509284       -3.49408129372699       -0.23237853746334
C           -6.68713081480505       -4.20760945330381       -0.77552637338188
C           -5.49069978289062       -3.56064895426262       -1.03815499689228
C           -5.35496058725734       -2.22243418162690       -0.74356845083848
C           -6.41050829034927       -1.50170713575445       -0.16950671682225
C           -3.88603714768895        0.18843870983753        0.65296407628180
C           -2.67132674827784        0.77304755073556        0.37307803419700
C            0.00063994788015        1.51600556116080       -0.84630603973357
C            0.00075760660446        0.14578533306308       -0.68791274366855
N            0.00067940924771       -1.00611662251505       -0.54229806333985
C            2.67269659978453        0.77339664590802        0.37411616094314
C            3.88752575134506        0.18855589221276        0.65367998036030
C            7.25403733459047        0.59396858530904        0.68416615072887
C            7.00840768101025        1.93046955454418        1.02617478985828
C            7.99905000579918        2.71477316871982        1.57340410607477
C            9.25667320900557        2.17990149101080        1.79929700346516
C            9.49592105079606        0.85432481410135        1.48756387361442
C            8.51650743319362        0.03935684908681        0.93710583704248
H            9.48262895646203       -3.14684971687032        1.78888094507718
H           10.10127212690507       -1.61662714606468        2.40082129651037
H            8.41418645224269       -2.05503899369286        2.67064726670684
H           10.86924192501966       -0.97121675661668        0.01709184574074
H            9.69435371266204       -0.98823859047332       -1.29874199769102
H           10.25409170472541       -2.50432994965412       -0.59260467641961
H            8.68169571775678       -4.00107959612468       -0.08554562252121
H            6.82421446225845       -5.24068607747075       -1.06605094819259
H            4.68125772799851       -4.08028983383789       -1.53486480948080
H            4.43360050365706       -1.71536339873307       -0.98814257242710
H            5.72392871920939        1.51911963976671       -1.85778631274436
H            3.55107445863844        2.55036338999813       -2.37023382019972
H            2.04266479250855        4.14014047050042       -1.59837298194229
H           -2.04091328180467        4.14097482391489       -1.59759449136065
H           -3.55147052084532        2.55379803118202       -2.36847780889599
H           -5.72404794318555        1.52323473397450       -1.85523199103224
H           -6.03618578396705        2.35702428290343        0.84014258534754
H           -7.80912786726150        3.76160891835726        1.76800470394189
H          -10.06557042270731        2.80704494266572        2.15308076032912
H          -10.49043423840482        0.46084241792711        1.63949318567685
H          -10.86586754028346       -0.98387210950371       -0.00539298910933
H          -10.24278205374445       -2.52477293880797       -0.58651932243786
H           -9.68144371094478       -1.01860129492325       -1.31230325736251
H           -8.42706777963410       -2.02042079648366        2.68218716217613
H           -9.48520702478351       -3.12933686386242        1.80937876473536
H          -10.11359709052318       -1.59212959117754        2.39335808439450
H           -8.67009833968605       -4.00836494185593       -0.04740415484505
H           -6.80385199828924       -5.25672934116707       -0.99984435630569
H           -4.66218578448934       -4.09635735292596       -1.47518089250635
H           -4.42383151456571       -1.72391855674247       -0.96041687164905
H           -3.99213793014697       -0.47814808274920        1.49629317091280
H           -1.82590832722734        0.57034824974241        1.01170215061947
H            1.82760147546037        0.57168689227223        1.01348745090620
H            3.99416388774505       -0.47732466003363        1.49747609317945
H            6.02682628076696        2.34680148187152        0.86372914686270
H            7.78837524401727        3.74266670198208        1.82691257902622
H           10.04193885006230        2.78632677713794        2.22374390080947
H           10.47665261069223        0.44809648179947        1.68293912164050

 projected vibrational frequencies (cm⁻¹)
eigval :       -0.00    -0.00    -0.00     0.00     0.00     0.00
eigval :        7.27     7.70    10.29    19.93    20.16    22.50
eigval :       26.18    43.38    49.32    53.84    61.40    82.08
eigval :       83.71    96.16    97.71    98.30   102.42   111.34
eigval :      114.35   128.88   128.95   130.09   150.21   165.81
eigval :      191.05   191.36   198.97   200.11   202.60   216.72
eigval :      217.20   233.02   235.22   238.96   278.77   297.18
eigval :      298.46   305.05   308.73   324.04   328.72   328.96
eigval :      342.16   342.72   356.52   373.46   374.48   378.59
eigval :      378.90   389.20   392.85   400.36   403.42   411.69
eigval :      417.75   421.87   426.05   449.19   450.52   451.92
eigval :      480.49   495.88   505.71   508.65   508.88   509.26
eigval :      519.66   524.98   544.62   544.64   546.40   559.70
eigval :      572.35   580.39   584.25   592.66   599.42   604.61
eigval :      610.52   614.89   628.51   644.44   662.56   681.69
eigval :      685.75   685.87   690.24   691.05   698.60   698.65
eigval :      727.83   743.03   762.22   775.54   775.64   777.31
eigval :      777.45   802.62   803.45   820.18   820.88   825.76
eigval :      826.93   832.89   855.79   859.17   869.04   869.08
eigval :      871.65   871.92   907.82   907.99   909.01   914.48
eigval :      914.54   915.57   915.66   916.08   916.27   918.39
eigval :      920.11   920.58   922.30   922.33   923.81   923.92
eigval :      937.88   938.00   957.73   957.75   988.59  1009.58
eigval :     1013.82  1013.84  1039.15  1076.38  1076.39  1085.63
eigval :     1085.92  1106.70  1109.53  1115.33  1115.38  1117.80
eigval :     1121.76  1129.57  1136.29  1139.65  1139.67  1141.30
eigval :     1154.64  1154.65  1169.88  1171.32  1183.78  1185.26
eigval :     1185.52  1185.67  1185.79  1196.17  1208.56  1214.50
eigval :     1238.41  1243.29  1243.69  1245.47  1245.60  1254.99
eigval :     1261.71  1262.19  1265.04  1266.52  1295.02  1295.06
eigval :     1298.15  1309.72  1312.64  1314.17  1321.91  1324.12
eigval :     1329.79  1331.65  1331.96  1334.68  1335.21  1358.58
eigval :     1371.29  1397.73  1402.06  1402.10  1408.35  1415.31
eigval :     1420.12  1420.26  1429.15  1429.32  1432.79  1433.01
eigval :     1461.89  1461.95  1474.34  1476.31  1484.02  1485.04
eigval :     1488.38  1488.38  1489.09  1489.09  1498.91  1498.95
eigval :     1500.95  1502.75  1502.76  1520.58  1522.32  1561.24
eigval :     1561.26  1567.20  1575.02  1576.13  1582.96  1583.00
eigval :     1583.23  1593.44  1594.16  2240.88  3028.85  3028.87
eigval :     3030.79  3030.83  3042.55  3042.59  3045.07  3045.10
eigval :     3051.63  3051.69  3054.96  3055.14  3060.16  3060.32
eigval :     3076.92  3077.07  3083.17  3083.18  3083.65  3083.73
eigval :     3083.76  3083.92  3088.29  3088.30  3091.35  3091.45
eigval :     3091.63  3091.94  3098.61  3098.96  3100.19  3100.53
eigval :     3104.29  3105.15  3108.17  3108.46  3113.27  3113.54

   temp. (K)  partition function   enthalpy   heat capacity  entropy
                                   cal/mol     cal/K/mol   cal/K/mol   J/K/mol
 298.15  VIB  0.117E+22            26352.449    164.478    164.841
         ROT  0.143E+09              888.752      2.981     40.303
         INT  0.167E+30            27241.202    167.459    205.144
         TR   0.168E+29             1481.254      4.968     45.371
         TOT                       28722.4555   172.4275   250.5147  1048.1535

       T/K    H(0)-H(T)+PV         H(T)/Eh          T*S/Eh         G(T)/Eh
   ------------------------------------------------------------------------
    298.15    0.457721E-01    0.752583E+00    0.119028E+00    0.633555E+00
   ------------------------------------------------------------------------

         :::::::::::::::::::::::::::::::::::::::::::::::::::::
         ::                  THERMODYNAMIC                  ::
         :::::::::::::::::::::::::::::::::::::::::::::::::::::
         :: total free energy        -133.173964391500 Eh   ::
         ::.................................................::
         :: total energy             -133.807519805425 Eh   ::
         :: zero point energy           0.706810887841 Eh   ::
         :: G(RRHO) w/o ZPVE           -0.073255473915 Eh   ::
         :: G(RRHO) contrib.            0.633555413925 Eh   ::
         :::::::::::::::::::::::::::::::::::::::::::::::::::::

           -------------------------------------------------
          | TOTAL ENERGY             -133.807519805425 Eh   |
          | TOTAL ENTHALPY           -133.054936771164 Eh   |
          | TOTAL FREE ENERGY        -133.173964391500 Eh   |
          | GRADIENT NORM               0.000118536733 Eh/α |
           -------------------------------------------------

 * finished run on 2025/08/24 at 00:39:12.707
