   * xtb version 6.7.1 (edcfbbe) compiled by 'albert@albert-system' on 2024-07-22

   ID    Z sym.   atoms
    1    6 C      1-9, 11-16, 18-23, 25-43, 45-52
    2    7 N      10, 17, 24, 44
    3    1 H      53-90

          program call               : xtb data2507/gas/AcCN/AcCN_gas_S0_crest.xyz --gfn 2 --ohess vtight --parallel 40 --molden --ceasefiles --namespace data2507/gas/AcCN/AcCN_gas_S0_finalOpt
          :  Hamiltonian                  GFN2-xTB          :
 * total energy  :  -133.8826566 Eh     change       -0.1160885E-08 Eh
 * total energy  :  -133.8826571 Eh     change       -0.5755826E-06 Eh
 * total energy  :  -133.8826587 Eh     change       -0.1552161E-05 Eh
 * total energy  :  -133.8826612 Eh     change       -0.2538995E-05 Eh
 * total energy  :  -133.8826641 Eh     change       -0.2837772E-05 Eh
 * total energy  :  -133.8826660 Eh     change       -0.1881014E-05 Eh
 * total energy  :  -133.8826681 Eh     change       -0.2148169E-05 Eh
 * total energy  :  -133.8826707 Eh     change       -0.2582790E-05 Eh
 * total energy  :  -133.8826728 Eh     change       -0.2155214E-05 Eh
 * total energy  :  -133.8826743 Eh     change       -0.1475275E-05 Eh
 * total energy  :  -133.8826774 Eh     change       -0.7790998E-06 Eh
 * total energy  :  -133.8826786 Eh     change       -0.1202852E-05 Eh
 * total energy  :  -133.8826798 Eh     change       -0.1293113E-05 Eh
 * total energy  :  -133.8826809 Eh     change       -0.1098290E-05 Eh
 * total energy  :  -133.8826817 Eh     change       -0.7493810E-06 Eh
 * total energy  :  -133.8826821 Eh     change       -0.4486041E-06 Eh
 * total energy  :  -133.8826825 Eh     change       -0.3396530E-06 Eh
 * total energy  :  -133.8826828 Eh     change       -0.2873030E-06 Eh
 * total energy  :  -133.8826828 Eh     change       -0.6378059E-08 Eh
   *** GEOMETRY OPTIMIZATION CONVERGED AFTER 22 ITERATIONS ***

 final structure:
================
90
 xtb: 6.7.1 (edcfbbe)
C            9.40039744158814       -2.40609084220662       -1.00088669175581
C            8.81565566419934       -1.55278908924149        0.13952170936137
C            9.78854521794072       -1.51705899150140        1.33227284292648
C            8.61607800949898       -0.13878674460494       -0.37096599564117
C            9.70934260671950        0.57778780845007       -0.83833822334689
C            9.58722157199832        1.85825346115048       -1.34463025859948
C            8.33529297467152        2.44239686659935       -1.40690073070093
C            7.23257866205964        1.75365611153681       -0.94781030094758
C            7.35737222174071        0.47003957566725       -0.40765447807200
N            6.23132535457207       -0.19351648547393        0.05708989945874
C            4.98021791466833        0.47125962117040        0.03234805745831
C            4.71767563412727        1.49915407357747        0.93227689729113
C            3.49719833521106        2.14333018662126        0.91104911245301
C            2.51146310413896        1.75988353092372        0.00377439045385
C            1.21345745385055        2.44397902251492        0.00142514338779
C            1.13561580908960        3.83625958540218        0.00432307018360
N            0.00116142268307        4.50837377131805       -0.01778095310235
C           -1.13377029990360        3.83692910745824       -0.03528717669715
C           -1.21267536768738        2.44474027077998       -0.02385042091630
C           -2.51133782900085        1.76193149480599       -0.01866890177562
C           -3.50100482921317        2.14308133574082       -0.92261981535634
C           -4.72256279886751        1.50054906727946       -0.93510186588449
C           -4.98142128579752        0.47623119438622       -0.03023097398013
N           -6.23268948518233       -0.18921056752553       -0.04739007451576
C           -7.35356301845432        0.46748257854655        0.43832513547332
C           -7.22383893229918        1.74660215534833        0.98776526507471
C           -8.32142627755742        2.42810089701566        1.46946827840296
C           -9.57260739602416        1.84108759000782        1.42029292672856
C           -9.69936645988815        0.56556479903475        0.90264810934167
C           -8.61141123335818       -0.14369289208045        0.41239423127142
C           -8.81516775415239       -1.55216142376890       -0.11178277041866
C           -9.80365196662774       -1.50431404216502       -1.29120643922246
C           -9.38359837597629       -2.41990237095033        1.02596692889468
C           -7.51689546836641       -2.16995080500357       -0.59492535248721
C           -7.52653516784651       -3.45922913836215       -1.11009865700259
C           -6.38174044771065       -4.06719880194350       -1.58998209714644
C           -5.18847117449457       -3.36839264498577       -1.57309642522306
C           -5.15029284112365       -2.08638944953131       -1.06685678105581
C           -6.30177778178338       -1.47883643520367       -0.55775895683326
C           -4.00525598358573        0.10773239549030        0.88916066892971
C           -2.77911848938882        0.74182024116170        0.89147490531805
C            0.00014387667392        1.73744075156041       -0.00949082782192
C            0.00030497875503        0.32109154403179       -0.00593401687829
N            0.00155027451949       -0.82557628111805       -0.00342197959474
C            2.78242007610314        0.73577705758066       -0.90087369484667
C            4.00793749390769        0.10058405594380       -0.89043478889836
C            6.29666683904460       -1.48855128129380        0.55478237843292
C            5.14089678297967       -2.10311424820885        1.04547907462909
C            5.17535728934314       -3.39071579926828        1.53760047570292
C            6.36915006844849       -4.08850464224131        1.55890666346623
C            7.51824284291369       -3.47340494466475        1.09892866532974
C            7.51239924226150       -2.17823698149764        0.59860342790682
H           10.34813909526695       -2.00029832534169       -1.34368914655651
H            9.56662754208581       -3.42892471579574       -0.67453735388899
H            8.70958964041636       -2.42205400928903       -1.84190413767027
H            9.97377613504406       -2.51773568072621        1.71261668138072
H            9.36584710577492       -0.91735407560865        2.13634151965823
H           10.74101689773555       -1.08117732400187        1.04369321307508
H           10.68972016675375        0.12668589193083       -0.81103338199418
H           10.45918457235076        2.38827266168790       -1.69619575795234
H            8.21251940297847        3.43414124844123       -1.81621890437560
H            6.25804472368819        2.21257215108494       -1.01453349452155
H            5.47683056873950        1.78649882318446        1.64444368677516
H            3.29128298473799        2.93085326203677        1.62116291876787
H            2.03798357915257        4.43295385310415        0.00375067085040
H           -2.03570398333944        4.43427164031987       -0.03777527907206
H           -3.29755648060548        2.92737808546768       -1.63700007826957
H           -5.48504650879690        1.78608173470706       -1.64442575632563
H           -6.24940558147009        2.20732363020736        1.04339751997758
H           -8.19533567989603        3.41639858663067        1.88606542224742
H          -10.44052766588222        2.36529383846032        1.79012872646377
H          -10.67912708533195        0.11263107463249        0.88470220143225
H          -10.75242765102271       -1.07205922241601       -0.98547824192705
H           -9.99341872724559       -2.50102790738895       -1.67964436009381
H           -9.39186818203828       -0.89584695246535       -2.09435561732325
H           -8.68265079272372       -2.44319976060688        1.85837602957185
H           -9.55075443078808       -3.43952924665720        0.69017357652399
H          -10.32833189095735       -2.02086226937843        1.38463835229554
H           -8.45431616484357       -4.01026532021647       -1.14232171275939
H           -6.42455697206390       -5.07247105760910       -1.98047185680213
H           -4.28383069176068       -3.81654524458279       -1.95560804068038
H           -4.21544331354739       -1.54752334976921       -1.06943120157476
H           -4.21297203046772       -0.68212550482101        1.59509841665827
H           -2.03250125215418        0.45760814640492        1.61785235017738
H            2.03897465293231        0.44949914529915       -1.62969124619086
H            4.21817197849048       -0.69179116128140       -1.59280660484254
H            4.20543500742545       -1.56536079168778        1.04525835756231
H            4.26737509370475       -3.84403744614721        1.90581694019737
H            6.40905792859314       -5.09822254050818        1.93806895704716
H            8.44651071834171       -4.02335965286671        1.13524428850942

          :  Hamiltonian                  GFN2-xTB          :
         :: gradient norm              0.000066826640 Eh/a0 ::
         :: HOMO-LUMO gap              1.279658338105 eV    ::
         :: SCC energy              -136.353820490435 Eh    ::
         :: -> dispersion             -0.126993019231 Eh    ::
         :: repulsion energy           2.471137713228 Eh    ::

    * Orbital Energies and Occupations

         #    Occupation            Energy/Eh            Energy/eV
      -------------------------------------------------------------
         1        2.0000           -0.6901891             -18.7810
       ...           ...                  ...                  ...
       113        2.0000           -0.4061697             -11.0524
       114        2.0000           -0.4060626             -11.0495
       115        2.0000           -0.4052796             -11.0282
       116        2.0000           -0.4051701             -11.0252
       117        2.0000           -0.4014059             -10.9228
       118        2.0000           -0.4013134             -10.9203
       119        2.0000           -0.3959426             -10.7741
       120        2.0000           -0.3958716             -10.7722
       121        2.0000           -0.3904559             -10.6248
       122        2.0000           -0.3903908             -10.6231
       123        2.0000           -0.3853762             -10.4866
       124        2.0000           -0.3452447              -9.3946
       125        2.0000           -0.3451238              -9.3913 (HOMO)
       126                         -0.2980972              -8.1116 (LUMO)
       127                         -0.2756804              -7.5016
       128                         -0.2442542              -6.6465
       129                         -0.2432875              -6.6202
       130                         -0.2426919              -6.6040
       131                         -0.2250028              -6.1226
       132                         -0.2221693              -6.0455
       133                         -0.2220620              -6.0426
       134                         -0.2176383              -5.9222
       135                         -0.2173074              -5.9132
       136                         -0.2169894              -5.9046
       ...                                ...                  ...
       246                          1.1538832              31.3988
      -------------------------------------------------------------
                  HL-Gap            0.0470265 Eh            1.2797 eV

     #   Z          covCN         q      C6AA      α(0)
     1   6 C        3.761    -0.103    22.512     6.764
     2   6 C        3.909     0.021    20.157     6.381
     3   6 C        3.761    -0.103    22.510     6.763
     4   6 C        2.980    -0.014    28.349     8.734
     5   6 C        2.928    -0.036    28.898     8.816
     6   6 C        2.917    -0.045    29.110     8.848
     7   6 C        2.920    -0.033    28.827     8.805
     8   6 C        2.924    -0.059    29.475     8.903
     9   6 C        2.927     0.058    26.703     8.474
    10   7 N        2.754    -0.071    22.609     7.062
    11   6 C        2.928     0.073    26.364     8.421
    12   6 C        2.921    -0.037    28.916     8.818
    13   6 C        2.924    -0.033    28.814     8.803
    14   6 C        2.977     0.005    27.909     8.666
    15   6 C        2.977     0.008    27.828     8.653
    16   6 C        2.915     0.054    26.794     8.488
    17   7 N        1.834    -0.210    26.396     7.614
    18   6 C        2.915     0.054    26.794     8.488
    19   6 C        2.976     0.008    27.828     8.653
    20   6 C        2.977     0.005    27.905     8.665
    21   6 C        2.924    -0.033    28.813     8.803
    22   6 C        2.920    -0.037    28.914     8.818
    23   6 C        2.928     0.073    26.361     8.420
    24   7 N        2.754    -0.071    22.614     7.063
    25   6 C        2.927     0.058    26.702     8.474
    26   6 C        2.924    -0.059    29.476     8.903
    27   6 C        2.920    -0.033    28.827     8.805
    28   6 C        2.917    -0.045    29.111     8.848
    29   6 C        2.928    -0.036    28.898     8.816
    30   6 C        2.980    -0.014    28.350     8.734
    31   6 C        3.909     0.021    20.157     6.381
    32   6 C        3.761    -0.103    22.510     6.763
    33   6 C        3.761    -0.103    22.512     6.764
    34   6 C        2.980    -0.014    28.357     8.735
    35   6 C        2.928    -0.036    28.901     8.816
    36   6 C        2.917    -0.044    29.096     8.845
    37   6 C        2.920    -0.032    28.805     8.801
    38   6 C        2.924    -0.058    29.450     8.899
    39   6 C        2.928     0.057    26.711     8.476
    40   6 C        2.921    -0.035    28.877     8.812
    41   6 C        2.923    -0.028    28.696     8.785
    42   6 C        2.987     0.021    27.537     8.608
    43   6 C        1.908     0.116    28.241     8.582
    44   7 N        0.911    -0.232    26.082     7.386
    45   6 C        2.923    -0.028    28.697     8.785
    46   6 C        2.921    -0.035    28.880     8.813
    47   6 C        2.927     0.057    26.712     8.476
    48   6 C        2.924    -0.058    29.449     8.899
    49   6 C        2.920    -0.032    28.805     8.801
    50   6 C        2.917    -0.044    29.094     8.845
    51   6 C        2.928    -0.036    28.902     8.816
    52   6 C        2.980    -0.014    28.356     8.735
    53   1 H        0.925     0.039     2.464     2.455
    54   1 H        0.925     0.039     2.457     2.451
    55   1 H        0.925     0.031     2.568     2.506
    56   1 H        0.925     0.039     2.459     2.452
    57   1 H        0.925     0.031     2.574     2.509
    58   1 H        0.925     0.039     2.463     2.454
    59   1 H        0.926     0.030     2.586     2.515
    60   1 H        0.926     0.026     2.645     2.543
    61   1 H        0.926     0.026     2.637     2.539
    62   1 H        0.926     0.022     2.710     2.574
    63   1 H        0.926     0.046     2.365     2.405
    64   1 H        0.926     0.040     2.455     2.450
    65   1 H        0.925     0.046     2.364     2.404
    66   1 H        0.925     0.046     2.364     2.404
    67   1 H        0.926     0.040     2.453     2.449
    68   1 H        0.926     0.046     2.365     2.405
    69   1 H        0.926     0.021     2.713     2.576
    70   1 H        0.926     0.026     2.637     2.540
    71   1 H        0.926     0.026     2.645     2.543
    72   1 H        0.926     0.030     2.587     2.515
    73   1 H        0.925     0.039     2.463     2.454
    74   1 H        0.925     0.039     2.459     2.452
    75   1 H        0.925     0.031     2.574     2.509
    76   1 H        0.925     0.031     2.569     2.506
    77   1 H        0.925     0.039     2.458     2.452
    78   1 H        0.925     0.039     2.464     2.455
    79   1 H        0.926     0.030     2.591     2.517
    80   1 H        0.926     0.027     2.636     2.539
    81   1 H        0.926     0.030     2.588     2.516
    82   1 H        0.926     0.025     2.656     2.549
    83   1 H        0.926     0.049     2.329     2.387
    84   1 H        0.926     0.041     2.436     2.441
    85   1 H        0.926     0.041     2.437     2.441
    86   1 H        0.926     0.049     2.330     2.387
    87   1 H        0.926     0.025     2.652     2.547
    88   1 H        0.926     0.030     2.586     2.515
    89   1 H        0.926     0.027     2.636     2.539
    90   1 H        0.926     0.030     2.590     2.517

molecular dipole:
                 x           y           z       tot (Debye)
 q only:        0.009       0.431      -0.001
   full:        0.009       0.578      -0.001       1.469

 projected vibrational frequencies (cm⁻¹)
eigval :       -0.00    -0.00    -0.00     0.00     0.00     0.00
eigval :        7.56     7.77     8.75    18.60    19.65    23.13
eigval :       31.88    38.79    53.95    55.49    57.64    64.19
eigval :       90.43    93.65    99.00    99.78   103.70   106.60
eigval :      112.95   128.22   128.41   128.63   155.96   167.94
eigval :      189.48   189.81   195.46   201.57   201.71   218.75
eigval :      219.40   233.35   233.60   236.27   263.76   289.01
eigval :      299.63   305.44   310.30   320.63   331.67   331.84
eigval :      344.33   344.52   366.07   375.54   376.81   380.02
eigval :      380.91   385.52   392.89   401.96   404.09   413.16
eigval :      419.59   422.70   441.98   452.01   452.30   483.48
eigval :      491.00   493.49   514.48   515.15   515.21   525.33
eigval :      547.42   547.43   548.58   561.46   572.30   576.04
eigval :      577.42   586.70   587.07   597.50   603.18   612.43
eigval :      620.77   624.18   642.66   665.40   682.63   682.74
eigval :      684.23   693.60   693.68   698.98   703.67   725.73
eigval :      731.19   746.45   776.86   776.94   778.37   778.47
eigval :      795.60   812.66   815.20   826.85   827.75   833.53
eigval :      859.37   866.11   866.33   868.14   868.40   872.54
eigval :      873.06   905.92   913.09   913.13   913.77   914.27
eigval :      914.33   914.62   915.27   920.05   920.26   921.12
eigval :      921.20   922.25   922.42   927.18   928.85   929.18
eigval :      938.78   939.18   957.22   957.23   999.31  1014.42
eigval :     1014.42  1017.89  1062.53  1077.28  1077.30  1086.59
eigval :     1086.60  1114.56  1114.73  1120.05  1120.17  1132.97
eigval :     1133.63  1141.39  1141.43  1160.47  1160.47  1160.98
eigval :     1161.16  1173.39  1174.11  1186.14  1186.73  1187.72
eigval :     1187.81  1188.52  1188.61  1206.90  1210.32  1213.15
eigval :     1243.91  1245.61  1250.58  1250.67  1253.80  1259.13
eigval :     1265.81  1268.91  1269.61  1269.74  1295.16  1295.20
eigval :     1304.96  1307.88  1309.97  1320.43  1325.76  1325.83
eigval :     1333.79  1335.10  1342.20  1342.65  1343.78  1396.67
eigval :     1396.91  1402.96  1402.99  1408.75  1420.98  1421.02
eigval :     1429.56  1436.64  1436.83  1443.50  1443.69  1480.46
eigval :     1480.69  1486.88  1488.14  1490.15  1490.16  1491.09
eigval :     1491.09  1498.13  1499.38  1500.59  1500.61  1505.45
eigval :     1505.49  1528.17  1541.76  1558.94  1560.41  1576.05
eigval :     1576.07  1589.66  1589.79  1593.40  1593.47  1593.67
eigval :     1593.82  1603.12  1603.27  2365.81  3026.28  3026.29
eigval :     3028.62  3028.63  3039.58  3039.63  3042.28  3042.33
eigval :     3048.44  3048.50  3052.23  3052.30  3065.07  3065.61
eigval :     3077.64  3077.76  3079.47  3079.52  3081.50  3081.54
eigval :     3082.68  3082.82  3084.53  3084.61  3087.58  3087.73
eigval :     3093.16  3093.44  3094.68  3094.86  3095.25  3095.30
eigval :     3099.25  3099.53  3099.87  3099.92  3102.70  3102.89

   temp. (K)  partition function   enthalpy   heat capacity  entropy
                                   cal/mol     cal/K/mol   cal/K/mol   J/K/mol
 298.15  VIB  0.125E+22            26165.520    162.803    164.200
         ROT  0.141E+09              888.752      2.981     40.265
         INT  0.175E+30            27054.273    165.784    204.465
         TR   0.168E+29             1481.254      4.968     45.371
         TOT                       28535.5264   170.7518   249.8360  1045.3139

       T/K    H(0)-H(T)+PV         H(T)/Eh          T*S/Eh         G(T)/Eh
   ------------------------------------------------------------------------
    298.15    0.454743E-01    0.755871E+00    0.118705E+00    0.637166E+00
   ------------------------------------------------------------------------

         :::::::::::::::::::::::::::::::::::::::::::::::::::::
         ::                  THERMODYNAMIC                  ::
         :::::::::::::::::::::::::::::::::::::::::::::::::::::
         :: total free energy        -133.245516570619 Eh   ::
         ::.................................................::
         :: total energy             -133.882682777205 Eh   ::
         :: zero point energy           0.710397104872 Eh   ::
         :: G(RRHO) w/o ZPVE           -0.073230898285 Eh   ::
         :: G(RRHO) contrib.            0.637166206587 Eh   ::
         :::::::::::::::::::::::::::::::::::::::::::::::::::::

           -------------------------------------------------
          | TOTAL ENERGY             -133.882682777205 Eh   |
          | TOTAL ENTHALPY           -133.126811416400 Eh   |
          | TOTAL FREE ENERGY        -133.245516570619 Eh   |
          | GRADIENT NORM               0.000066875407 Eh/α |
          | HOMO-LUMO GAP               1.279657497796 eV   |
           -------------------------------------------------

 * finished run on 2025/08/24 at 00:28:05.930
