   * xtb version 6.7.1 (edcfbbe) compiled by 'albert@albert-system' on 2024-07-22

   ID    Z sym.   atoms
    1    6 C      1-16, 18-30, 32-38, 40-43
    2    7 N      17, 31, 39
    3    1 H      44-70

          program call               : xtb data2507/gas/3CzPhpPM/3CzPhpPM.xyz --gfn 2 --ohess vtight --parallel 40 --molden --ceasefiles --namespace data2507/gas/3CzPhpPM/3CzPhpPM_gas_S0_preOpt
          :  Hamiltonian                  GFN2-xTB          :
 * total energy  :  -108.2015174 Eh     change       -0.1418584E-08 Eh
 * total energy  :  -108.2127775 Eh     change       -0.1126011E-01 Eh
 * total energy  :  -108.2156455 Eh     change       -0.2867963E-02 Eh
 * total energy  :  -108.2164627 Eh     change       -0.8171654E-03 Eh
 * total energy  :  -108.2169694 Eh     change       -0.5067381E-03 Eh
 * total energy  :  -108.2171567 Eh     change       -0.1873404E-03 Eh
 * total energy  :  -108.2172992 Eh     change       -0.1424696E-03 Eh
 * total energy  :  -108.2174164 Eh     change       -0.1171746E-03 Eh
 * total energy  :  -108.2175266 Eh     change       -0.1101935E-03 Eh
 * total energy  :  -108.2176168 Eh     change       -0.9021456E-04 Eh
 * total energy  :  -108.2179316 Eh     change       -0.9343746E-06 Eh
 * total energy  :  -108.2179325 Eh     change       -0.9274137E-06 Eh
 * total energy  :  -108.2179333 Eh     change       -0.7980410E-06 Eh
 * total energy  :  -108.2179340 Eh     change       -0.6871388E-06 Eh
 * total energy  :  -108.2179346 Eh     change       -0.5773363E-06 Eh
 * total energy  :  -108.2179350 Eh     change       -0.3999454E-06 Eh
 * total energy  :  -108.2179352 Eh     change       -0.2622047E-06 Eh
 * total energy  :  -108.2179354 Eh     change       -0.2054588E-06 Eh
 * total energy  :  -108.2179354 Eh     change       -0.2512820E-08 Eh
   *** GEOMETRY OPTIMIZATION CONVERGED AFTER 44 ITERATIONS ***

 final structure:
================
70
 xtb: 6.7.1 (edcfbbe)
C            9.44616280208754       -2.17732877631750        2.53340063950241
C            9.34849134719669       -0.82993560231565        2.22904326530849
C            8.19025252074063       -0.32570446452130        1.66789556056181
C            7.10639353851606       -1.16029875735911        1.40441322199528
C            5.87319583412464       -0.62328665048172        0.80972053632355
C            4.62454225382719       -1.04620986215852        1.28549925054598
C            3.44010559478686       -0.57199262388382        0.76045847935760
C            3.50916067754909        0.34068182802107       -0.28245403256613
C            4.75785154248808        0.79735785902534       -0.76150678340281
C            5.93565077621093        0.31277124779971       -0.21441326541855
C            4.47309794264454        1.75868628622296       -1.79069183727759
C            5.27257540538868        2.52197552746848       -2.63069426147647
C            4.66259027125143        3.35257342079481       -3.54942119720545
C            3.27449252200326        3.41491025105007       -3.64697630637379
C            2.45810629487701        2.66493151543872       -2.82189642958530
C            3.06509470863612        1.84811190280840       -1.87898604246231
N            2.49427788834042        0.98476860766569       -0.96280095166348
C            1.12431182449294        0.79403007382976       -0.75589634755086
C            0.59034267754111       -0.49304924285001       -0.72616572548665
C           -0.75930612549388       -0.67596105766592       -0.51584031283897
C           -1.60725512538323        0.41480713883157       -0.32622279733818
C           -3.03773636890846        0.17772560993782       -0.10123446172048
C           -3.84913615482807        1.07221834061423        0.59602700950420
C           -5.19233868597205        0.72877303628761        0.74765201967300
C           -6.15045515833812        1.57757050263564        1.46776589200769
C           -7.26317474557774        0.98776523566116        2.06478670051182
C           -8.17809973913687        1.75789799007461        2.75564245639702
C           -7.99953196951479        3.12857773600730        2.85260258652003
C           -6.90400725160230        3.72502493000105        2.25052516358555
C           -5.98278792038530        2.95687779352279        1.56305392300844
N           -5.66453355178656       -0.41329433616404        0.25497993149671
C           -4.82091466969115       -1.21286075407252       -0.38771356368585
C           -5.35305657225183       -2.47035072077938       -0.92121703717696
C           -4.51967249405764       -3.35092714541895       -1.60784673544304
C           -5.02393382406605       -4.53599319890045       -2.10751828080955
C           -6.36111505104342       -4.85381262631183       -1.92858854551862
C           -7.19561051592800       -3.98027945478058       -1.24910587526177
C           -6.69708954958615       -2.79371873073068       -0.74719584573385
N           -3.53186725285483       -0.96010529494678       -0.58319301764709
C           -1.06918662863633        1.69920282375636       -0.36824979873169
C            0.28123261192400        1.88882478330797       -0.57931258005944
C            7.21593173291575       -2.51367572700830        1.71597583303198
C            8.37625532616548       -3.01716786090207        2.27359306929598
H           10.35171290829950       -2.57097210883758        2.97115283455861
H           10.17846239703392       -0.16869561249733        2.43297287465316
H            8.11394442245658        0.72970839242636        1.44934637588640
H            4.59107036346208       -1.74638025581948        2.10715870189509
H            2.49118893433980       -0.89349958616777        1.16272163182025
H            6.88938461888155        0.64755496876016       -0.59352364348563
H            6.34840126673188        2.45907750588947       -2.56684179327434
H            5.26568633464130        3.95631809985093       -4.21106219570073
H            2.82554176567441        4.06066051490962       -4.38723514495940
H            1.38384229211026        2.70571863291820       -2.92046746585345
H            1.23881514534448       -1.34113147531623       -0.88731167019079
H           -1.18403800930908       -1.66734175957184       -0.49681099430222
H           -3.44635975513037        1.96769953220881        1.03842524829194
H           -7.38784832442608       -0.08055178109194        1.97956517335289
H           -9.03410733408620        1.29065309693807        3.22007013389231
H           -8.71471194229830        3.73208441325281        3.39189751347640
H           -6.76840985008746        4.79488786548041        2.31516267206880
H           -5.14460820325362        3.43720482013913        1.07993977280725
H           -3.48261448864293       -3.08630252132190       -1.74224397638280
H           -4.37488739417943       -5.21631620257866       -2.63972277368801
H           -6.75321167183595       -5.78127100471354       -2.32018868939378
H           -8.23840318146589       -4.22766081977988       -1.11251539204055
H           -7.33355410074446       -2.10061127401877       -0.21984580881697
H           -1.70883915202481        2.56101234476393       -0.24998198603316
H            0.69504779055570        2.88608569724526       -0.59346968148290
H            6.39136235331617       -3.17774614806337        1.50005866313445
H            8.44782807597587       -4.07029888819329        2.50486111357025

          :  Hamiltonian                  GFN2-xTB          :
         :: gradient norm              0.000036466327 Eh/a0 ::
         :: HOMO-LUMO gap              2.153176940740 eV    ::
         :: SCC energy              -110.264248470097 Eh    ::
         :: -> dispersion             -0.091045351845 Eh    ::
         :: repulsion energy           2.046313033732 Eh    ::

    * Orbital Energies and Occupations

         #    Occupation            Energy/Eh            Energy/eV
      -------------------------------------------------------------
         1        2.0000           -0.6776746             -18.4405
       ...           ...                  ...                  ...
        89        2.0000           -0.4138280             -11.2608
        90        2.0000           -0.4108204             -11.1790
        91        2.0000           -0.4090790             -11.1316
        92        2.0000           -0.4078927             -11.0993
        93        2.0000           -0.4049993             -11.0206
        94        2.0000           -0.4039679             -10.9925
        95        2.0000           -0.4000529             -10.8860
        96        2.0000           -0.3946860             -10.7400
        97        2.0000           -0.3933625             -10.7039
        98        2.0000           -0.3911124             -10.6427
        99        2.0000           -0.3779329             -10.2841
       100        2.0000           -0.3604801              -9.8092
       101        2.0000           -0.3578378              -9.7373 (HOMO)
       102                         -0.2787100              -7.5841 (LUMO)
       103                         -0.2701464              -7.3511
       104                         -0.2460408              -6.6951
       105                         -0.2410587              -6.5595
       106                         -0.2367934              -6.4435
       107                         -0.2354430              -6.4067
       108                         -0.2282948              -6.2122
       109                         -0.2213530              -6.0233
       110                         -0.2180061              -5.9322
       111                         -0.2129905              -5.7958
       112                         -0.2029115              -5.5215
       ...                                ...                  ...
       199                          0.7476389              20.3443
      -------------------------------------------------------------
                  HL-Gap            0.0791278 Eh            2.1532 eV

     #   Z          covCN         q      C6AA      α(0)
     1   6 C        2.920    -0.032    28.802     8.801
     2   6 C        2.918    -0.030    28.751     8.793
     3   6 C        2.925    -0.035    28.865     8.811
     4   6 C        2.977     0.011    27.771     8.644
     5   6 C        2.977    -0.001    28.037     8.686
     6   6 C        2.929    -0.038    28.936     8.822
     7   6 C        2.908    -0.051    29.277     8.872
     8   6 C        3.075     0.045    26.912     8.506
     9   6 C        3.065    -0.017    28.369     8.734
    10   6 C        2.918    -0.038    28.934     8.821
    11   6 C        3.068    -0.016    28.346     8.730
    12   6 C        2.913    -0.032    28.809     8.801
    13   6 C        2.920    -0.040    29.002     8.831
    14   6 C        2.924    -0.033    28.826     8.805
    15   6 C        2.910    -0.051    29.255     8.869
    16   6 C        3.075     0.047    26.878     8.500
    17   7 N        2.802    -0.042    22.043     6.973
    18   6 C        2.913     0.067    26.504     8.442
    19   6 C        2.920    -0.042    29.044     8.838
    20   6 C        2.926    -0.024    28.602     8.771
    21   6 C        2.980     0.001    28.003     8.680
    22   6 C        2.968     0.110    25.577     8.295
    23   6 C        2.912    -0.067    29.656     8.930
    24   6 C        2.968     0.110    25.566     8.294
    25   6 C        2.980     0.005    27.914     8.667
    26   6 C        2.926    -0.024    28.597     8.770
    27   6 C        2.918    -0.027    28.685     8.783
    28   6 C        2.920    -0.026    28.662     8.779
    29   6 C        2.919    -0.029    28.718     8.788
    30   6 C        2.923    -0.031    28.766     8.795
    31   7 N        1.850    -0.270    27.868     7.824
    32   6 C        2.945     0.182    24.116     8.054
    33   6 C        2.985     0.002    27.984     8.677
    34   6 C        2.924    -0.027    28.667     8.780
    35   6 C        2.918    -0.029    28.715     8.787
    36   6 C        2.920    -0.026    28.653     8.778
    37   6 C        2.918    -0.029    28.713     8.787
    38   6 C        2.924    -0.027    28.664     8.780
    39   7 N        1.850    -0.272    27.900     7.828
    40   6 C        2.922    -0.031    28.765     8.795
    41   6 C        2.921    -0.044    29.081     8.843
    42   6 C        2.925    -0.035    28.867     8.811
    43   6 C        2.918    -0.030    28.752     8.793
    44   1 H        0.926     0.028     2.622     2.532
    45   1 H        0.926     0.028     2.618     2.530
    46   1 H        0.926     0.030     2.589     2.516
    47   1 H        0.926     0.033     2.551     2.498
    48   1 H        0.926     0.029     2.607     2.525
    49   1 H        0.926     0.034     2.531     2.488
    50   1 H        0.926     0.032     2.564     2.504
    51   1 H        0.926     0.029     2.605     2.524
    52   1 H        0.926     0.030     2.592     2.518
    53   1 H        0.926     0.028     2.617     2.530
    54   1 H        0.926     0.045     2.383     2.414
    55   1 H        0.926     0.058     2.218     2.329
    56   1 H        0.926     0.032     2.554     2.499
    57   1 H        0.926     0.052     2.290     2.366
    58   1 H        0.926     0.035     2.512     2.479
    59   1 H        0.926     0.034     2.529     2.487
    60   1 H        0.926     0.033     2.544     2.494
    61   1 H        0.926     0.031     2.568     2.506
    62   1 H        0.926     0.053     2.282     2.362
    63   1 H        0.926     0.034     2.535     2.490
    64   1 H        0.926     0.033     2.540     2.492
    65   1 H        0.926     0.034     2.534     2.489
    66   1 H        0.926     0.054     2.272     2.357
    67   1 H        0.926     0.037     2.486     2.465
    68   1 H        0.926     0.043     2.410     2.428
    69   1 H        0.926     0.029     2.594     2.518
    70   1 H        0.926     0.028     2.619     2.531

molecular dipole:
                 x           y           z       tot (Debye)
 q only:       -0.418       0.080       0.179
   full:       -0.342       0.466       0.328       1.691

 projected vibrational frequencies (cm⁻¹)
eigval :       -0.00    -0.00    -0.00    -0.00     0.00     0.00
eigval :        7.76    13.80    19.22    25.72    32.59    37.27
eigval :       43.97    46.81    53.94    65.08    73.42    79.20
eigval :       96.18    99.23   113.78   126.52   148.24   151.40
eigval :      178.20   195.27   204.66   217.58   232.29   249.81
eigval :      262.01   270.23   279.43   305.45   325.71   355.07
eigval :      365.94   366.17   369.31   372.67   378.76   394.32
eigval :      398.31   413.71   428.07   429.90   437.29   451.58
eigval :      458.03   490.49   496.65   535.71   542.99   548.94
eigval :      578.59   584.86   587.28   587.62   597.90   603.76
eigval :      604.61   611.75   617.54   619.63   626.47   647.17
eigval :      663.59   669.04   673.03   682.66   687.06   699.87
eigval :      708.45   729.36   737.22   758.10   764.76   775.60
eigval :      780.04   815.75   820.77   826.55   836.73   839.06
eigval :      846.47   868.67   874.10   874.64   877.46   878.72
eigval :      881.81   900.93   902.89   904.21   904.81   910.19
eigval :      912.40   919.47   926.38   928.48   930.26   931.10
eigval :      931.95   933.02   933.35   934.20   937.03   971.91
eigval :      975.89   989.34  1015.51  1021.87  1026.51  1071.68
eigval :     1073.39  1076.15  1079.56  1087.06  1089.12  1104.63
eigval :     1111.17  1122.07  1123.44  1125.87  1135.81  1157.84
eigval :     1169.89  1178.94  1180.90  1181.63  1182.56  1183.30
eigval :     1196.28  1198.79  1202.02  1206.32  1220.88  1224.68
eigval :     1246.53  1251.17  1262.05  1265.91  1270.17  1279.12
eigval :     1282.33  1290.11  1314.57  1320.43  1321.89  1323.79
eigval :     1328.55  1349.33  1357.31  1361.18  1365.00  1379.15
eigval :     1399.17  1410.87  1419.28  1432.30  1433.08  1433.68
eigval :     1439.59  1464.03  1471.18  1478.45  1482.81  1495.61
eigval :     1497.04  1518.57  1533.05  1561.65  1569.69  1581.92
eigval :     1583.63  1585.72  1586.23  1594.76  1596.03  1596.51
eigval :     1597.73  1602.19  1615.20  3069.09  3070.54  3071.66
eigval :     3073.22  3077.00  3077.59  3077.69  3078.78  3080.12
eigval :     3082.09  3083.01  3083.20  3084.65  3087.65  3088.62
eigval :     3090.32  3090.62  3090.94  3092.15  3092.40  3095.14
eigval :     3096.74  3104.11  3106.37  3106.88  3107.69  3108.39

   temp. (K)  partition function   enthalpy   heat capacity  entropy
                                   cal/mol     cal/K/mol   cal/K/mol   J/K/mol
 298.15  VIB  0.487E+16            19530.819    123.306    122.244
         ROT  0.950E+08              888.752      2.981     39.486
         INT  0.462E+24            20419.571    126.287    161.730
         TR   0.125E+29             1481.254      4.968     44.777
         TOT                       21900.8254   131.2555   206.5074   864.0271

       T/K    H(0)-H(T)+PV         H(T)/Eh          T*S/Eh         G(T)/Eh
   ------------------------------------------------------------------------
    298.15    0.349012E-01    0.573383E+00    0.981183E-01    0.475265E+00
   ------------------------------------------------------------------------

         :::::::::::::::::::::::::::::::::::::::::::::::::::::
         ::                  THERMODYNAMIC                  ::
         :::::::::::::::::::::::::::::::::::::::::::::::::::::
         :: total free energy        -107.742670451456 Eh   ::
         ::.................................................::
         :: total energy             -108.217935436365 Eh   ::
         :: zero point energy           0.538482138006 Eh   ::
         :: G(RRHO) w/o ZPVE           -0.063217153097 Eh   ::
         :: G(RRHO) contrib.            0.475264984909 Eh   ::
         :::::::::::::::::::::::::::::::::::::::::::::::::::::

           -------------------------------------------------
          | TOTAL ENERGY             -108.217935436365 Eh   |
          | TOTAL ENTHALPY           -107.644552111595 Eh   |
          | TOTAL FREE ENERGY        -107.742670451456 Eh   |
          | GRADIENT NORM               0.000036463887 Eh/α |
          | HOMO-LUMO GAP               2.153177017128 eV   |
           -------------------------------------------------

 * finished run on 2025/09/09 at 08:15:20.173
