   * xtb version 6.7.1 (edcfbbe) compiled by 'albert@albert-system' on 2024-07-22

   ID    Z sym.   atoms
    1    6 C      1-16, 18-30, 32-38, 40-43
    2    7 N      17, 31, 39
    3    1 H      44-70

          program call               : xtb data2507/gas/3CzPhpPM/3CzPhpPM_gas_S0_finalOpt.xtbopt.xyz --gfn 2 --spinpol --tblite --uhf 2 --ohess vtight --parallel 40 --molden --ceasefiles --namespace data2507/gas/3CzPhpPM/3CzPhpPM_gas_T1_preOpt
 * total energy  :  -108.1350086 Eh     change        0.1780779E-07 Eh
 * total energy  :  -108.1394341 Eh     change       -0.4425507E-02 Eh
 * total energy  :  -108.1410210 Eh     change       -0.1586898E-02 Eh
 * total energy  :  -108.1411317 Eh     change       -0.1106264E-03 Eh
 * total energy  :  -108.1412804 Eh     change       -0.1487619E-03 Eh
 * total energy  :  -108.1413696 Eh     change       -0.8920858E-04 Eh
 * total energy  :  -108.1415000 Eh     change       -0.1303629E-03 Eh
 * total energy  :  -108.1416003 Eh     change       -0.1003492E-03 Eh
 * total energy  :  -108.1416739 Eh     change       -0.7353230E-04 Eh
 * total energy  :  -108.1417508 Eh     change       -0.7692359E-04 Eh
 * total energy  :  -108.1428856 Eh     change       -0.1072632E-05 Eh
 * total energy  :  -108.1428867 Eh     change       -0.1116369E-05 Eh
 * total energy  :  -108.1428878 Eh     change       -0.1177016E-05 Eh
 * total energy  :  -108.1428890 Eh     change       -0.1141922E-05 Eh
 * total energy  :  -108.1428901 Eh     change       -0.1100899E-05 Eh
 * total energy  :  -108.1428912 Eh     change       -0.1125921E-05 Eh
 * total energy  :  -108.1428924 Eh     change       -0.1196256E-05 Eh
 * total energy  :  -108.1428931 Eh     change       -0.6425536E-06 Eh
 * total energy  :  -108.1428931 Eh     change       -0.9849160E-08 Eh
   *** GEOMETRY OPTIMIZATION CONVERGED AFTER 94 ITERATIONS ***

 final structure:
================
70
 xtb: 6.7.1 (edcfbbe)
C            9.58477494177546       -2.90873534154778        1.21807535007776
C            8.48386452218754       -3.57144423751615        0.70122185875435
C            7.30599404401206       -2.88708661059258        0.46859503374496
C            7.20958916750031       -1.52378801290414        0.74323729734799
C            5.96106384406175       -0.79462242313806        0.48567162551619
C            4.72600545203239       -1.38301757137032        0.79680607771913
C            3.52836070433854       -0.74290922900430        0.55935766429078
C            3.56636995592352        0.51794011204563       -0.02489997395446
C            4.80388123088412        1.14127485977218       -0.31869862434742
C            5.99450378923068        0.48419504581452       -0.06303554445685
C            4.48639216835923        2.43397333215737       -0.86210944105255
C            5.25536976452363        3.48523714567957       -1.33810677374451
C            4.61192786550500        4.60760615014104       -1.82591216649076
C            3.22135858479698        4.67996746084631       -1.85731801234320
C            2.43400205153688        3.64531830003383       -1.38831119147499
C            3.07411971705693        2.52683483046937       -0.87177265453634
N            2.53529215860843        1.36347088765787       -0.36153331561362
C            1.16857648388384        1.07996889662975       -0.23767862104116
C            0.64796143021143       -0.12515207893442       -0.71971840844429
C           -0.69026461238998       -0.39613590762356       -0.60302598504104
C           -1.58175891300841        0.52714287371781       -0.01419699523648
C           -2.97217102657230        0.20081206569494        0.06020676478991
C           -3.98162427135386        1.07663279716950        0.49302620942595
C           -5.29235200549460        0.63268934850219        0.49387905340603
C           -6.43286639730327        1.43152973113803        0.88791969109988
C           -7.70069290753218        0.83026091866196        0.92782143277404
C           -8.81684522002907        1.54998512028067        1.29250711792083
C           -8.70680017839292        2.89125897618123        1.62844706017059
C           -7.46137814771408        3.50080911906873        1.59263793525832
C           -6.33884841066626        2.78734221594996        1.22845089069808
N           -5.54799156885944       -0.65019242316988        0.09279312553269
C           -4.58531164360475       -1.46293846334276       -0.29478758898179
C           -4.91338656028279       -2.82932197095720       -0.69630423240723
C           -3.89963894816073       -3.73138648440449       -1.01077417268996
C           -4.21216345972218       -5.02381763927231       -1.38421594884915
C           -5.53671673648866       -5.42791722443256       -1.44813641422705
C           -6.54993965534311       -4.53478338176039       -1.13709085488969
C           -6.24218992991592       -3.24136489727754       -0.76215153732933
N           -3.34312160170942       -1.05678974925678       -0.32579916833639
C           -1.03739266638531        1.73217682987604        0.47212054118626
C            0.30550910866722        1.99864405863832        0.36532211560786
C            8.32517565620819       -0.86736693895482        1.26055045521934
C            9.50016666087463       -1.55495267098491        1.49829481742314
H           10.50423839617893       -3.44471259370881        1.40151713116469
H            8.54524236905450       -4.62639308837796        0.47604177237815
H            6.45716475922020       -3.40624362338550        0.04767672065748
H            4.71766955981305       -2.35783437264325        1.26130612742630
H            2.59100636635415       -1.20326331232348        0.83180415415586
H            6.93718827614064        0.94931393967249       -0.30868258301643
H            6.33306930713058        3.42285696327195       -1.33106572718583
H            5.19233206550189        5.43817149756307       -2.19886431564358
H            2.74754436904672        5.56232140890880       -2.26110001865768
H            1.35735601672792        3.70132199330895       -1.43489174593744
H            1.30683784223018       -0.82788482095898       -1.20870001157495
H           -1.09573098269716       -1.32059785247443       -0.98463541868330
H           -3.73629432067754        2.07604521147146        0.80785062241014
H           -7.78128880701943       -0.21461648461424        0.66856961617464
H           -9.78275152848600        1.06579126695739        1.31647701204369
H           -9.58130783589612        3.45662618150092        1.91364459177953
H           -7.36767711534139        4.54626541744973        1.85024654302975
H           -5.38581994641721        3.29290180090580        1.20264983835376
H           -2.87312812986228       -3.40284936423357       -0.95268162064183
H           -3.42345776065993       -5.72121651102675       -1.62584402471105
H           -5.77907166977734       -6.43923166607033       -1.74000447564622
H           -7.58161170392833       -4.85064178319891       -1.18775862970159
H           -7.02006913063457       -2.53383010774167       -0.51882648802362
H           -1.67151110235695        2.45822478600091        0.95601013825537
H            0.70993091110436        2.91486431262427        0.77054159672489
H            8.26057075361866        0.18447984270951        1.49861777922419
H           10.35416092206818       -1.03368496634445        1.90616195387065

 projected vibrational frequencies (cm⁻¹)
eigval :       -0.00    -0.00    -0.00     0.00     0.00     0.00
eigval :        6.94    10.61    13.96    19.05    24.95    38.29
eigval :       45.55    46.77    57.10    59.54    75.82    78.72
eigval :       91.71    98.56   112.65   126.50   150.72   157.57
eigval :      169.06   195.06   198.78   205.81   224.23   247.22
eigval :      258.17   269.00   278.65   301.70   322.57   354.87
eigval :      365.60   366.68   367.90   371.89   380.52   395.61
eigval :      399.86   403.41   405.01   424.30   426.33   440.09
eigval :      454.20   467.71   491.84   534.62   539.57   540.07
eigval :      543.85   576.62   579.30   581.01   584.78   586.41
eigval :      589.86   594.73   600.79   605.63   613.70   626.26
eigval :      640.52   650.05   664.11   664.76   668.27   683.46
eigval :      683.94   708.40   725.84   746.37   757.18   764.30
eigval :      773.70   796.09   808.83   812.28   821.94   826.04
eigval :      836.06   843.15   852.53   870.34   870.66   873.62
eigval :      878.39   878.71   899.84   901.02   902.54   904.51
eigval :      907.31   913.19   919.09   919.45   921.44   922.86
eigval :      925.28   927.72   930.23   931.55   932.13   935.92
eigval :      974.39   976.23   983.88  1002.48  1020.16  1028.72
eigval :     1059.70  1067.17  1069.48  1070.80  1075.01  1083.99
eigval :     1086.21  1111.96  1120.94  1122.34  1122.96  1136.36
eigval :     1151.01  1167.59  1176.47  1178.76  1180.37  1180.84
eigval :     1182.15  1197.77  1199.90  1201.89  1208.76  1221.09
eigval :     1240.64  1247.54  1259.27  1266.58  1269.63  1281.50
eigval :     1282.78  1285.25  1295.98  1304.46  1320.22  1326.12
eigval :     1326.80  1330.92  1346.21  1352.07  1356.73  1360.15
eigval :     1379.42  1396.35  1412.77  1423.01  1428.83  1430.81
eigval :     1434.61  1437.07  1455.52  1458.25  1464.48  1477.15
eigval :     1480.35  1487.09  1491.86  1502.19  1555.36  1556.96
eigval :     1566.68  1574.15  1579.50  1581.97  1583.34  1588.35
eigval :     1594.38  1595.73  1605.95  3069.41  3071.38  3071.50
eigval :     3072.75  3075.74  3078.17  3079.65  3080.20  3080.78
eigval :     3081.16  3083.86  3085.65  3086.11  3086.86  3089.70
eigval :     3090.49  3090.53  3092.53  3094.20  3094.40  3094.91
eigval :     3096.19  3097.17  3097.67  3098.75  3099.27  3121.13

   temp. (K)  partition function   enthalpy   heat capacity  entropy
                                   cal/mol     cal/K/mol   cal/K/mol   J/K/mol
 298.15  VIB  0.214E+17            19846.848    125.141    124.831
         ROT  0.938E+08              888.752      2.981     39.461
         INT  0.201E+25            20735.600    128.122    164.291
         TR   0.125E+29             1481.254      4.968     44.777
         TOT                       22216.8543   133.0900   209.0688   874.7440

       T/K    H(0)-H(T)+PV         H(T)/Eh          T*S/Eh         G(T)/Eh
   ------------------------------------------------------------------------
    298.15    0.354048E-01    0.569878E+00    0.993353E-01    0.470542E+00
   ------------------------------------------------------------------------

         :::::::::::::::::::::::::::::::::::::::::::::::::::::
         ::                  THERMODYNAMIC                  ::
         :::::::::::::::::::::::::::::::::::::::::::::::::::::
         :: total free energy        -107.672350868828 Eh   ::
         ::.................................................::
         :: total energy             -108.142893064724 Eh   ::
         :: zero point energy           0.534472731835 Eh   ::
         :: G(RRHO) w/o ZPVE           -0.063930535939 Eh   ::
         :: G(RRHO) contrib.            0.470542195895 Eh   ::
         :::::::::::::::::::::::::::::::::::::::::::::::::::::

           -------------------------------------------------
          | TOTAL ENERGY             -108.142893064724 Eh   |
          | TOTAL ENTHALPY           -107.573015522018 Eh   |
          | TOTAL FREE ENERGY        -107.672350868828 Eh   |
          | GRADIENT NORM               0.000068748531 Eh/α |
           -------------------------------------------------

 * finished run on 2025/09/09 at 08:19:04.286
