   * xtb version 6.7.1 (edcfbbe) compiled by 'albert@albert-system' on 2024-07-22

   ID    Z sym.   atoms
    1    6 C      1-16, 18-30, 32-38, 40-43
    2    7 N      17, 31, 39
    3    1 H      44-70

          program call               : xtb data2507/gas/3CzPhpPM/3CzPhpPM_gas_T1_crest.xyz --gfn 2 --spinpol --tblite --uhf 2 --ohess vtight --parallel 40 --molden --ceasefiles --namespace data2507/gas/3CzPhpPM/3CzPhpPM_gas_T1_finalOpt
 * total energy  :  -108.1428931 Eh     change        0.3966989E-08 Eh
 * total energy  :  -108.1429700 Eh     change       -0.7693501E-04 Eh
 * total energy  :  -108.1430044 Eh     change       -0.3436930E-04 Eh
 * total energy  :  -108.1430075 Eh     change       -0.3100540E-05 Eh
 * total energy  :  -108.1430096 Eh     change       -0.2101030E-05 Eh
 * total energy  :  -108.1430113 Eh     change       -0.1651432E-05 Eh
 * total energy  :  -108.1430129 Eh     change       -0.1625095E-05 Eh
 * total energy  :  -108.1430140 Eh     change       -0.1162344E-05 Eh
 * total energy  :  -108.1430148 Eh     change       -0.7152394E-06 Eh
 * total energy  :  -108.1430153 Eh     change       -0.5880290E-06 Eh
 * total energy  :  -108.1430306 Eh     change       -0.4475001E-06 Eh
 * total energy  :  -108.1430308 Eh     change       -0.1382410E-06 Eh
 * total energy  :  -108.1430310 Eh     change       -0.2007373E-06 Eh
 * total energy  :  -108.1430311 Eh     change       -0.1327429E-06 Eh
 * total energy  :  -108.1430311 Eh     change        0.4845475E-07 Eh
 * total energy  :  -108.1430312 Eh     change       -0.1320115E-06 Eh
 * total energy  :  -108.1430312 Eh     change        0.3610090E-07 Eh
 * total energy  :  -108.1430314 Eh     change       -0.2747508E-06 Eh
 * total energy  :  -108.1430315 Eh     change       -0.8463334E-07 Eh
   *** GEOMETRY OPTIMIZATION CONVERGED AFTER 31 ITERATIONS ***

 final structure:
================
70
 xtb: 6.7.1 (edcfbbe)
C            9.51137821410074       -2.82166730562204        1.77245753530521
C            8.42471221995369       -3.54435189930441        1.30854524543999
C            7.26232666947041       -2.89370269612114        0.94055076104093
C            7.16759439069582       -1.50546665803312        1.02428081039710
C            5.93471950348262       -0.81208949586298        0.62905227646152
C            4.68531946071941       -1.34883027301559        0.97453143124927
C            3.50173894967442       -0.73463062302450        0.62477583835909
C            3.57038000414336        0.44468414764910       -0.10771573180580
C            4.82177167226476        1.01388546730933       -0.44875563653711
C            5.99748515783391        0.38451974973046       -0.07954679179535
C            4.53218418461534        2.23247881894074       -1.15512025986655
C            5.32281372622565        3.20818708203144       -1.74328218975304
C            4.70236045706767        4.26952940655527       -2.37619232938777
C            3.31353556114181        4.35565609104506       -2.43834315832446
C            2.50459733540308        3.39603278225675       -1.85949761749160
C            3.12170375376644        2.34042868297126       -1.20209029575853
N            2.55809382753185        1.25444001996674       -0.56555012909425
C            1.18534315846380        1.01261782591786       -0.41651091720705
C            0.63873762645524       -0.22177999241700       -0.78063494677286
C           -0.70377576539561       -0.45319902922496       -0.63287795992138
C           -1.57177767146501        0.53503911789674       -0.11810655103873
C           -2.96425461170380        0.23810349335503        0.01088892163659
C           -3.92610663647983        1.11040038735457        0.54891114562086
C           -5.24221765428217        0.68996119263426        0.61642407898995
C           -6.33526511513235        1.48769609548582        1.13085384753612
C           -6.15135727383809        2.73181143770764        1.74797780937932
C           -7.23044406344994        3.44954195279965        2.21955545143805
C           -8.51970654039919        2.95402646962418        2.09295247966927
C           -8.71799233082963        1.72203756449345        1.48733727352430
C           -7.64562036875011        0.99859114555168        1.01433707195546
N           -5.55503232167395       -0.55888923089038        0.15441344289144
C           -4.63617627687640       -1.37015574940077       -0.33155945979340
C           -5.02414343035185       -2.70079719164506       -0.79496971541769
C           -6.34083020849177       -3.13391511876820       -0.65793136339640
C           -6.70703039603908       -4.39175042660392       -1.09594978315705
C           -5.76484931030864       -5.22778789013443       -1.67423943546299
C           -4.45267828963227       -4.80264331819214       -1.81309632159751
C           -4.08177884601439       -3.54607115953188       -1.37609653067479
N           -3.38731766598632       -0.99213887499772       -0.40868755002960
C           -1.00118113435994        1.77156207226492        0.24392695614805
C            0.34440802683016        2.00277654053913        0.09728770646599
C            8.26906862108099       -0.78896763669052        1.48968851367453
C            9.42840686982065       -1.44205551389378        1.86283189806940
H           10.41842333197230       -3.33115729388416        2.06232899689791
H            8.48505285655211       -4.62035719128545        1.23139794320831
H            6.42518235683203       -3.46228328296783        0.56227301337694
H            4.65361840092059       -2.25738252230787        1.55727123000261
H            2.55154340373800       -1.15013275944775        0.92379263707865
H            6.95176331021052        0.80671680681503       -0.35606669717510
H            6.39934516946744        3.13470802322687       -1.71034113453337
H            5.30008541598280        5.04049403816743       -2.83897909350678
H            2.85872741874885        5.18841195516916       -2.95385884578809
H            1.42935839989301        3.45940320138087       -1.92692500051816
H            1.28196784211528       -0.98105439947790       -1.20139715381291
H           -1.12977941740237       -1.40236350086416       -0.91962419335977
H           -3.64073924003175        2.08855672730028        0.89492496861015
H           -5.16003812249398        3.14034744280907        1.87023335182476
H           -7.06718915157763        4.40677813541638        2.69404032405795
H           -9.35965026405586        3.52166847673317        2.46447781645819
H           -9.71847289413381        1.32629842501362        1.38539941854879
H           -7.79574449007861        0.04096637631277        0.53911220662033
H           -7.06239449694205       -2.47226413709339       -0.20349411293286
H           -7.72895727488342       -4.72431145577485       -0.98753073760840
H           -6.05291626925504       -6.21084800005430       -2.01670654452917
H           -3.71941665760003       -5.45513420490433       -2.26408072931441
H           -3.06447093258345       -3.20053517299222       -1.47889690790244
H           -1.61842145598308        2.55769605628592        0.64908623540100
H            0.76846531578509        2.94918355511773        0.40042846241325
H            8.20473372248709        0.28563980511001        1.58087328831549
H           10.27106906483409       -0.87327081391086        2.22861563659937

 projected vibrational frequencies (cm⁻¹)
eigval :       -0.00    -0.00    -0.00     0.00     0.00     0.00
eigval :        4.63    10.46    14.17    19.30    23.22    37.96
eigval :       44.84    46.38    57.12    62.31    73.41    76.45
eigval :       91.39    97.81   112.80   125.75   148.83   157.59
eigval :      167.19   195.05   199.29   206.44   223.65   247.40
eigval :      258.05   269.01   278.19   301.84   321.78   355.87
eigval :      365.23   366.43   367.81   371.95   379.06   393.65
eigval :      397.36   403.20   412.35   421.77   428.36   439.24
eigval :      454.09   467.30   491.81   536.14   537.75   540.38
eigval :      543.80   575.91   579.97   581.28   584.88   586.70
eigval :      589.92   594.79   601.08   605.39   614.39   626.26
eigval :      640.26   650.47   663.93   664.58   668.18   683.50
eigval :      683.85   708.46   725.98   746.64   757.21   764.25
eigval :      773.61   794.16   806.77   812.83   822.15   826.17
eigval :      836.25   841.31   853.12   870.32   870.64   873.36
eigval :      878.82   879.02   899.22   901.03   902.46   904.06
eigval :      907.06   912.05   918.84   919.57   921.36   921.80
eigval :      924.01   927.56   930.35   931.44   932.09   937.46
eigval :      974.50   976.96   984.05  1002.61  1020.20  1027.50
eigval :     1060.01  1067.84  1069.48  1070.47  1075.02  1083.85
eigval :     1086.42  1112.11  1120.92  1122.47  1123.14  1135.70
eigval :     1150.79  1167.79  1176.43  1179.18  1180.72  1180.95
eigval :     1182.36  1198.25  1199.28  1202.18  1208.42  1221.48
eigval :     1240.38  1247.21  1259.08  1265.62  1270.18  1281.67
eigval :     1282.51  1285.61  1296.69  1304.98  1320.22  1326.16
eigval :     1326.88  1330.94  1346.21  1352.18  1355.92  1360.10
eigval :     1379.99  1396.74  1412.77  1423.14  1428.74  1430.77
eigval :     1434.71  1437.04  1455.66  1458.39  1464.87  1477.25
eigval :     1481.00  1487.43  1491.75  1502.13  1555.77  1557.29
eigval :     1566.91  1574.26  1579.51  1582.23  1583.34  1588.58
eigval :     1594.37  1595.66  1605.90  3069.61  3071.55  3071.63
eigval :     3072.83  3075.84  3077.31  3079.00  3079.94  3080.92
eigval :     3081.22  3083.79  3085.40  3086.04  3086.97  3089.89
eigval :     3090.36  3090.73  3092.54  3093.75  3094.47  3094.77
eigval :     3095.80  3097.60  3098.29  3098.63  3099.23  3121.92

   temp. (K)  partition function   enthalpy   heat capacity  entropy
                                   cal/mol     cal/K/mol   cal/K/mol   J/K/mol
 298.15  VIB  0.360E+17            19863.170    125.116    125.395
         ROT  0.944E+08              888.752      2.981     39.472
         INT  0.340E+25            20751.923    128.097    164.867
         TR   0.125E+29             1481.254      4.968     44.777
         TOT                       22233.1767   133.0655   209.6447   877.1535

       T/K    H(0)-H(T)+PV         H(T)/Eh          T*S/Eh         G(T)/Eh
   ------------------------------------------------------------------------
    298.15    0.354308E-01    0.569872E+00    0.996090E-01    0.470263E+00
   ------------------------------------------------------------------------

         :::::::::::::::::::::::::::::::::::::::::::::::::::::
         ::                  THERMODYNAMIC                  ::
         :::::::::::::::::::::::::::::::::::::::::::::::::::::
         :: total free energy        -107.672768590714 Eh   ::
         ::.................................................::
         :: total energy             -108.143031542154 Eh   ::
         :: zero point energy           0.534441101028 Eh   ::
         :: G(RRHO) w/o ZPVE           -0.064178149587 Eh   ::
         :: G(RRHO) contrib.            0.470262951440 Eh   ::
         :::::::::::::::::::::::::::::::::::::::::::::::::::::

           -------------------------------------------------
          | TOTAL ENERGY             -108.143031542154 Eh   |
          | TOTAL ENTHALPY           -107.573159618713 Eh   |
          | TOTAL FREE ENERGY        -107.672768590714 Eh   |
          | GRADIENT NORM               0.000061800757 Eh/α |
           -------------------------------------------------

 * finished run on 2025/09/09 at 08:23:56.898
