   * xtb version 6.7.1 (edcfbbe) compiled by 'albert@albert-system' on 2024-07-22

   ID    Z sym.   atoms
    1    6 C      1-16, 18-30, 32-38, 40-43
    2    7 N      17, 31, 39
    3    1 H      44-70

          program call               : xtb data2507/gas/3CzPhpPM/3CzPhpPM_gas_S0_crest.xyz --gfn 2 --ohess vtight --parallel 40 --molden --ceasefiles --namespace data2507/gas/3CzPhpPM/3CzPhpPM_gas_S0_finalOpt
          :  Hamiltonian                  GFN2-xTB          :
 * total energy  :  -108.2181925 Eh     change       -0.1328274E-08 Eh
 * total energy  :  -108.2181946 Eh     change       -0.2141910E-05 Eh
 * total energy  :  -108.2181969 Eh     change       -0.2316043E-05 Eh
 * total energy  :  -108.2181998 Eh     change       -0.2917382E-05 Eh
 * total energy  :  -108.2182018 Eh     change       -0.1950784E-05 Eh
 * total energy  :  -108.2182036 Eh     change       -0.1817384E-05 Eh
 * total energy  :  -108.2182055 Eh     change       -0.1851925E-05 Eh
 * total energy  :  -108.2182069 Eh     change       -0.1392576E-05 Eh
 * total energy  :  -108.2182078 Eh     change       -0.9768262E-06 Eh
 * total energy  :  -108.2182087 Eh     change       -0.9085835E-06 Eh
 * total energy  :  -108.2182113 Eh     change       -0.7259088E-06 Eh
 * total energy  :  -108.2182119 Eh     change       -0.6245165E-06 Eh
 * total energy  :  -108.2182125 Eh     change       -0.6651587E-06 Eh
 * total energy  :  -108.2182133 Eh     change       -0.7186534E-06 Eh
 * total energy  :  -108.2182140 Eh     change       -0.7581788E-06 Eh
 * total energy  :  -108.2182147 Eh     change       -0.7056008E-06 Eh
 * total energy  :  -108.2182152 Eh     change       -0.5038719E-06 Eh
 * total energy  :  -108.2182155 Eh     change       -0.2764868E-06 Eh
 * total energy  :  -108.2182156 Eh     change       -0.4816864E-07 Eh
   *** GEOMETRY OPTIMIZATION CONVERGED AFTER 21 ITERATIONS ***

 final structure:
================
70
 xtb: 6.7.1 (edcfbbe)
C            9.59961876074763       -2.99435683267979        0.83395366085215
C            8.53492197392250       -3.58093404353765        0.17072064179235
C            7.35163816384137       -2.88624832479526        0.00321777459297
C            7.21368456409403       -1.58946419273699        0.49304252638898
C            5.95756612471654       -0.84685532719943        0.30975090883657
C            4.72745004046612       -1.49330516715813        0.49167140430456
C            3.52335911517841       -0.84008541904785        0.32658958077134
C            3.55297569474159        0.49566895308190       -0.04808480270471
C            4.78271523195100        1.17253811453695       -0.21154265856437
C            5.98077926843910        0.49873506061026       -0.03330442627107
C            4.45939491425500        2.53270677930886       -0.54281779277614
C            5.22771070406043        3.65162204192867       -0.83416744021016
C            4.58430988709464        4.83374988017336       -1.14188723831996
C            3.19365972474282        4.90315372413326       -1.17736079705883
C            2.40806537124145        3.80281857832761       -0.89111192775627
C            3.04856705879262        2.61906460841291       -0.55468385317635
N            2.51233763491094        1.38049732493202       -0.25551044875669
C            1.15038645670713        1.07404248109651       -0.18038797956890
C            0.64129994642757       -0.04127925586269       -0.84376183326312
C           -0.70151182146045       -0.33958162351047       -0.76243744166850
C           -1.57216877749687        0.47196171489919       -0.03505898914109
C           -2.99623572345531        0.12348261592320        0.01374363304136
C           -3.99746536288862        1.06290352341021        0.25825177570463
C           -5.31382078197406        0.60263143426054        0.27232775818357
C           -6.46037945686105        1.48648624477896        0.52060070060295
C           -7.62251646632429        0.94865710756036        1.07081173553384
C           -8.71592427990072        1.75413651143630        1.32232777941126
C           -8.66737468728790        3.10546887475314        1.01959854721568
C           -7.52148243190511        3.64548110167380        0.45939751747125
C           -6.42247222903331        2.84401025170788        0.21186361318704
N           -5.58965699441354       -0.68365031447213        0.07391479619024
C           -4.57706614974719       -1.50924608659477       -0.16492336179564
C           -4.89556696165182       -2.92092712773759       -0.39857735304771
C           -3.87431083395784       -3.86194290102897       -0.51101939330005
C           -4.17792434391179       -5.19137844510215       -0.73195507915726
C           -5.49946806800625       -5.59424060003704       -0.84311442009097
C           -6.51943337482712       -4.66233198471819       -0.73220184351895
C           -6.22215354748733       -3.33149403420209       -0.51070572301277
N           -3.29859599346536       -1.15367368292552       -0.20901764894250
C           -1.05645466446651        1.58303848215798        0.62932859598309
C            0.28960965498359        1.87854766892445        0.56343354865135
C            8.29212730708935       -1.00920608044941        1.15706833056469
C            9.47334642467211       -1.70661646035429        1.32734629062094
H           10.52328628308888       -3.53841329518134        0.96607812482422
H            8.62868463568937       -4.58402934037875       -0.22000625664952
H            6.53087400799330       -3.34338518112645       -0.53054196150407
H            4.72478232322142       -2.52953605655978        0.79610750466834
H            2.58988154525238       -1.35386073126115        0.49991534266096
H            6.91976429379068        1.01144684767845       -0.17767746668278
H            6.30554588283760        3.59179587507608       -0.82459682901958
H            5.16277785334895        5.71673076183517       -1.36927381300516
H            2.71801197551491        5.83694732728465       -1.43880867919196
H            1.33141179874105        3.86327960029214       -0.94195725019819
H            1.30320650783965       -0.65667734519944       -1.43432490006833
H           -1.10672546222472       -1.19893411602344       -1.27335513240698
H           -3.76581550397339        2.10047032527528        0.42914977823708
H           -7.64424705872590       -0.10574035497643        1.29890124832802
H           -9.61023404370617        1.32928857516300        1.75416669872890
H           -9.52224418498325        3.73616685526524        1.21454839119504
H           -7.48530690541606        4.69644369190925        0.21173808762193
H           -5.54315429179678        3.27313655673076       -0.24581198640243
H           -2.85153647006783       -3.53176568444836       -0.41782130959310
H           -3.38376058942841       -5.91891956595688       -0.81765338427535
H           -5.73442743864523       -6.63443850300037       -1.01650090167980
H           -7.54912711991409       -4.97735916361467       -0.82012346161891
H           -7.00322675557420       -2.59221006457401       -0.42574529268940
H           -1.70160490238559        2.20551623350032        1.23116876549254
H            0.68806443851687        2.72340392840932        1.10512455603642
H            8.19396521649516       -0.01128931910150        1.55959119623472
H           10.29901611205736       -1.24510265859465        1.84981531265919

          :  Hamiltonian                  GFN2-xTB          :
         :: gradient norm              0.000134402564 Eh/a0 ::
         :: HOMO-LUMO gap              2.151198440717 eV    ::
         :: SCC energy              -110.264449853829 Eh    ::
         :: -> dispersion             -0.091058559415 Eh    ::
         :: repulsion energy           2.046234293482 Eh    ::

    * Orbital Energies and Occupations

         #    Occupation            Energy/Eh            Energy/eV
      -------------------------------------------------------------
         1        2.0000           -0.6778077             -18.4441
       ...           ...                  ...                  ...
        89        2.0000           -0.4138013             -11.2601
        90        2.0000           -0.4105841             -11.1726
        91        2.0000           -0.4088420             -11.1252
        92        2.0000           -0.4078520             -11.0982
        93        2.0000           -0.4046141             -11.0101
        94        2.0000           -0.4038828             -10.9902
        95        2.0000           -0.3999840             -10.8841
        96        2.0000           -0.3937672             -10.7150
        97        2.0000           -0.3936649             -10.7122
        98        2.0000           -0.3912990             -10.6478
        99        2.0000           -0.3781062             -10.2888
       100        2.0000           -0.3605786              -9.8118
       101        2.0000           -0.3578323              -9.7371 (HOMO)
       102                         -0.2787772              -7.5859 (LUMO)
       103                         -0.2697295              -7.3397
       104                         -0.2460464              -6.6953
       105                         -0.2406922              -6.5496
       106                         -0.2365679              -6.4373
       107                         -0.2351422              -6.3985
       108                         -0.2280651              -6.2060
       109                         -0.2212652              -6.0209
       110                         -0.2179367              -5.9304
       111                         -0.2132105              -5.8018
       112                         -0.2029297              -5.5220
       ...                                ...                  ...
       199                          0.7475126              20.3409
      -------------------------------------------------------------
                  HL-Gap            0.0790551 Eh            2.1512 eV

     #   Z          covCN         q      C6AA      α(0)
     1   6 C        2.920    -0.032    28.802     8.801
     2   6 C        2.918    -0.030    28.751     8.793
     3   6 C        2.925    -0.035    28.866     8.811
     4   6 C        2.977     0.011    27.770     8.644
     5   6 C        2.977    -0.000    28.034     8.685
     6   6 C        2.929    -0.038    28.933     8.821
     7   6 C        2.908    -0.051    29.274     8.872
     8   6 C        3.075     0.045    26.913     8.506
     9   6 C        3.065    -0.017    28.368     8.734
    10   6 C        2.918    -0.038    28.934     8.821
    11   6 C        3.068    -0.016    28.343     8.730
    12   6 C        2.913    -0.032    28.808     8.801
    13   6 C        2.920    -0.040    29.002     8.831
    14   6 C        2.924    -0.033    28.828     8.805
    15   6 C        2.910    -0.051    29.256     8.869
    16   6 C        3.075     0.046    26.881     8.501
    17   7 N        2.802    -0.041    22.036     6.972
    18   6 C        2.913     0.067    26.505     8.442
    19   6 C        2.920    -0.042    29.054     8.839
    20   6 C        2.926    -0.024    28.608     8.771
    21   6 C        2.980     0.001    28.010     8.681
    22   6 C        2.968     0.109    25.581     8.296
    23   6 C        2.912    -0.067    29.658     8.930
    24   6 C        2.969     0.110    25.567     8.294
    25   6 C        2.980     0.005    27.916     8.667
    26   6 C        2.926    -0.024    28.602     8.771
    27   6 C        2.918    -0.027    28.686     8.783
    28   6 C        2.920    -0.027    28.665     8.780
    29   6 C        2.919    -0.029    28.720     8.788
    30   6 C        2.923    -0.031    28.773     8.796
    31   7 N        1.850    -0.271    27.877     7.825
    32   6 C        2.946     0.182    24.114     8.054
    33   6 C        2.985     0.002    27.982     8.677
    34   6 C        2.924    -0.027    28.668     8.780
    35   6 C        2.918    -0.029    28.715     8.787
    36   6 C        2.920    -0.026    28.655     8.778
    37   6 C        2.918    -0.028    28.712     8.787
    38   6 C        2.924    -0.027    28.665     8.780
    39   7 N        1.850    -0.272    27.909     7.830
    40   6 C        2.922    -0.031    28.772     8.796
    41   6 C        2.921    -0.044    29.082     8.843
    42   6 C        2.925    -0.035    28.864     8.811
    43   6 C        2.918    -0.030    28.750     8.793
    44   1 H        0.926     0.028     2.622     2.532
    45   1 H        0.926     0.028     2.618     2.530
    46   1 H        0.926     0.030     2.593     2.518
    47   1 H        0.926     0.033     2.545     2.495
    48   1 H        0.926     0.030     2.587     2.515
    49   1 H        0.926     0.034     2.531     2.488
    50   1 H        0.926     0.032     2.562     2.503
    51   1 H        0.926     0.029     2.604     2.524
    52   1 H        0.926     0.029     2.596     2.519
    53   1 H        0.926     0.027     2.626     2.534
    54   1 H        0.926     0.045     2.385     2.415
    55   1 H        0.926     0.059     2.206     2.323
    56   1 H        0.926     0.032     2.558     2.501
    57   1 H        0.926     0.053     2.284     2.363
    58   1 H        0.926     0.035     2.513     2.479
    59   1 H        0.926     0.034     2.531     2.488
    60   1 H        0.926     0.033     2.545     2.495
    61   1 H        0.926     0.032     2.560     2.502
    62   1 H        0.926     0.053     2.286     2.364
    63   1 H        0.926     0.034     2.536     2.491
    64   1 H        0.926     0.033     2.541     2.493
    65   1 H        0.926     0.034     2.534     2.489
    66   1 H        0.926     0.054     2.273     2.357
    67   1 H        0.926     0.038     2.479     2.462
    68   1 H        0.926     0.043     2.411     2.428
    69   1 H        0.926     0.030     2.589     2.516
    70   1 H        0.926     0.028     2.618     2.530

molecular dipole:
                 x           y           z       tot (Debye)
 q only:       -0.431       0.111       0.045
   full:       -0.413       0.528       0.119       1.730

 projected vibrational frequencies (cm⁻¹)
eigval :       -0.00    -0.00    -0.00     0.00     0.00     0.00
eigval :        8.00    13.32    18.99    28.51    33.42    38.53
eigval :       44.97    47.68    53.20    60.12    75.75    78.56
eigval :       92.33   101.08   113.06   127.60   144.72   151.33
eigval :      183.25   195.87   200.60   220.23   234.11   249.07
eigval :      261.59   272.30   280.10   302.06   324.93   352.61
eigval :      366.53   367.78   372.21   373.95   381.41   397.87
eigval :      400.61   409.63   418.32   434.18   441.42   455.36
eigval :      457.95   487.42   494.41   535.75   544.13   548.06
eigval :      579.82   585.17   587.25   587.35   600.92   602.26
eigval :      604.73   608.75   614.23   618.52   629.61   647.72
eigval :      664.76   669.19   673.36   682.83   686.67   700.78
eigval :      708.54   729.12   737.98   758.14   764.45   775.49
eigval :      779.70   815.50   820.57   826.95   832.49   840.92
eigval :      846.44   868.46   874.12   875.41   877.31   879.42
eigval :      882.01   901.01   902.75   904.58   904.86   910.57
eigval :      912.73   919.71   927.03   928.95   930.26   931.47
eigval :      931.96   933.18   933.54   934.72   936.97   971.77
eigval :      975.89   989.39  1015.46  1021.87  1026.58  1071.80
eigval :     1073.56  1076.20  1079.64  1087.02  1089.10  1104.63
eigval :     1111.31  1122.03  1123.43  1126.08  1137.01  1157.83
eigval :     1170.51  1178.97  1180.99  1181.62  1182.66  1183.63
eigval :     1196.11  1199.93  1202.07  1206.66  1221.04  1224.93
eigval :     1246.56  1251.76  1262.17  1266.45  1270.47  1279.60
eigval :     1282.25  1290.05  1314.26  1320.41  1321.75  1323.53
eigval :     1328.35  1349.24  1357.24  1361.31  1365.50  1378.96
eigval :     1399.07  1411.21  1419.15  1432.21  1432.99  1433.39
eigval :     1439.30  1464.08  1471.47  1478.41  1482.68  1495.54
eigval :     1497.06  1518.61  1532.95  1560.97  1569.51  1581.97
eigval :     1583.59  1585.69  1586.25  1593.64  1596.04  1596.50
eigval :     1597.57  1602.18  1615.15  3069.13  3070.57  3071.61
eigval :     3073.02  3076.87  3077.44  3077.55  3078.92  3080.75
eigval :     3081.98  3082.96  3083.28  3084.34  3087.53  3088.58
eigval :     3090.48  3090.70  3091.07  3091.97  3093.20  3094.96
eigval :     3096.74  3103.61  3105.20  3105.70  3107.35  3110.09

   temp. (K)  partition function   enthalpy   heat capacity  entropy
                                   cal/mol     cal/K/mol   cal/K/mol   J/K/mol
 298.15  VIB  0.441E+16            19524.714    123.321    122.238
         ROT  0.933E+08              888.752      2.981     39.449
         INT  0.411E+24            20413.466    126.302    161.687
         TR   0.125E+29             1481.254      4.968     44.777
         TOT                       21894.7202   131.2704   206.4647   863.8484

       T/K    H(0)-H(T)+PV         H(T)/Eh          T*S/Eh         G(T)/Eh
   ------------------------------------------------------------------------
    298.15    0.348915E-01    0.573401E+00    0.980981E-01    0.475303E+00
   ------------------------------------------------------------------------

         :::::::::::::::::::::::::::::::::::::::::::::::::::::
         ::                  THERMODYNAMIC                  ::
         :::::::::::::::::::::::::::::::::::::::::::::::::::::
         :: total free energy        -107.742912350443 Eh   ::
         ::.................................................::
         :: total energy             -108.218215560346 Eh   ::
         :: zero point energy           0.538509805340 Eh   ::
         :: G(RRHO) w/o ZPVE           -0.063206595437 Eh   ::
         :: G(RRHO) contrib.            0.475303209903 Eh   ::
         :::::::::::::::::::::::::::::::::::::::::::::::::::::

           -------------------------------------------------
          | TOTAL ENERGY             -108.218215560346 Eh   |
          | TOTAL ENTHALPY           -107.644814297352 Eh   |
          | TOTAL FREE ENERGY        -107.742912350443 Eh   |
          | GRADIENT NORM               0.000134391628 Eh/α |
          | HOMO-LUMO GAP               2.151198085790 eV   |
           -------------------------------------------------

 * finished run on 2025/09/09 at 08:18:51.545
