   * xtb version 6.7.1 (edcfbbe) compiled by 'albert@albert-system' on 2024-07-22

   ID    Z sym.   atoms
    1    6 C      1-6, 8-13, 15-22, 24-29, 31-37
    2    8 O      7, 30
    3    7 N      14, 23, 38
    4    1 H      39-59

          program call               : xtb data2507/gas/Fene/Fene_gas_S0_finalOpt.xtbopt.xyz --gfn 2 --spinpol --tblite --uhf 2 --ohess vtight --parallel 40 --molden --ceasefiles --namespace data2507/gas/Fene/Fene_gas_T1_preOpt
 * total energy  :   -98.2583386 Eh     change       -0.2153456E-07 Eh
 * total energy  :   -98.2626106 Eh     change       -0.4271950E-02 Eh
 * total energy  :   -98.2641087 Eh     change       -0.1498123E-02 Eh
 * total energy  :   -98.2643291 Eh     change       -0.2203692E-03 Eh
 * total energy  :   -98.2645643 Eh     change       -0.2352551E-03 Eh
 * total energy  :   -98.2646719 Eh     change       -0.1075616E-03 Eh
 * total energy  :   -98.2648106 Eh     change       -0.1386978E-03 Eh
 * total energy  :   -98.2649393 Eh     change       -0.1287189E-03 Eh
 * total energy  :   -98.2650341 Eh     change       -0.9481521E-04 Eh
 * total energy  :   -98.2651082 Eh     change       -0.7409548E-04 Eh
 * total energy  :   -98.2728475 Eh     change       -0.3084012E-06 Eh
 * total energy  :   -98.2728479 Eh     change       -0.3309309E-06 Eh
 * total energy  :   -98.2728482 Eh     change       -0.3185821E-06 Eh
 * total energy  :   -98.2728485 Eh     change       -0.2580725E-06 Eh
 * total energy  :   -98.2728486 Eh     change       -0.1918536E-06 Eh
 * total energy  :   -98.2728488 Eh     change       -0.1627307E-06 Eh
 * total energy  :   -98.2728489 Eh     change       -0.1267200E-06 Eh
 * total energy  :   -98.2728491 Eh     change       -0.1616531E-06 Eh
 * total energy  :   -98.2728491 Eh     change       -0.2244320E-09 Eh
   *** GEOMETRY OPTIMIZATION CONVERGED AFTER 460 ITERATIONS ***

 final structure:
================
59
 xtb: 6.7.1 (edcfbbe)
C            0.44542004608301        3.21688069114769       -2.12053131035364
C           -0.05985960560061        1.96386754402553       -2.41418102505881
C            0.54843865200530        0.82787306783283       -1.91022117857489
C            1.66160725356586        0.92524872590984       -1.07849860412738
C            2.19192559773815        2.19811785589076       -0.82647369093364
C            1.58387087082230        3.33057077470206       -1.33868712833063
O            3.32461394079153        2.37972537370396       -0.08062617905485
C            3.88122919782844        1.27199231025008        0.50048000509252
C            4.98838490322664        1.48080641624272        1.30475199038028
C            5.58410605117606        0.41814679776924        1.96440542411516
C            5.04998009298999       -0.84985678063660        1.83232231554615
C            3.94467088218938       -1.06547735660331        1.02689478634283
C            3.35389167198950       -0.01721425273618        0.32830432210061
N            2.25774399232827       -0.20207665752019       -0.51422182573070
C            1.48276519225771       -1.37483197258579       -0.45041361048980
C            1.92371450678475       -2.63792376028000       -0.78358533933228
C            1.05785488913688       -3.72073807269822       -0.63024562493041
C           -0.25904169950334       -3.52423284706424       -0.15360409195615
C           -1.18526013652727       -4.53939219974928        0.10104227375844
C           -2.46108656001791       -4.24066969465967        0.58189613788638
C           -2.85912392627176       -2.93668538482904        0.77208456285659
C           -1.96683851374713       -1.88706390082869        0.50554130540897
N           -2.35173219540196       -0.53091984446061        0.52117313711475
C           -3.27303337006766       -0.04728227649695       -0.40873489336634
C           -4.12962607345281       -0.88462645165298       -1.12092427568045
C           -5.04985998020309       -0.36770475431097       -2.01436679604680
C           -5.12900030060823        0.99727490741430       -2.23102131869276
C           -4.25952900755383        1.84340950052681       -1.56689749559922
C           -3.33297662018509        1.33226205363533       -0.67039031062315
O           -2.48032901698408        2.22850449062472       -0.09602367939322
C           -1.52863898148372        1.73787164510201        0.74915901961502
C           -0.60070828887923        2.63238342484643        1.25337841901840
C            0.37264240379129        2.19590508305181        2.13809479681171
C            0.37690537615862        0.87679510811853        2.56312718668674
C           -0.54749703085722       -0.02076123482304        2.06719241038400
C           -1.48971931510151        0.38069198992581        1.10939711968956
C           -0.63720144664518       -2.17254389088437        0.10602042699909
N            0.22443764222208       -1.17070966079358       -0.00742054824792
H           -0.03088007256700        4.10395846834004       -2.50739836568821
H           -0.93189834632444        1.86220990035108       -3.04266539773084
H            0.15769280817390       -0.14381136015194       -2.16392101244532
H            2.01783164363340        4.29135368602107       -1.11187421516016
H            5.36218563466496        2.48721817205547        1.40617409774515
H            6.44992924867964        0.58821025438279        2.58466175005812
H            5.49041718885570       -1.68323603724290        2.35773717489666
H            3.52423674786566       -2.05471521927574        0.94965732332323
H            2.91754537271096       -2.77705561754557       -1.18092643505303
H            1.38019359066139       -4.71497364219791       -0.89625909651827
H           -0.88784661489413       -5.56776042523887       -0.03872947536040
H           -3.14297048258766       -5.04639132705005        0.80959009338580
H           -3.83849037255766       -2.70737621996780        1.16493913857867
H           -4.06177860773820       -1.95094544648508       -0.98300096962625
H           -5.70379267476315       -1.04073005642358       -2.54689758468573
H           -5.84893778972992        1.40188857999216       -2.92473351510356
H           -4.26894939656878        2.90855477519546       -1.73451077643580
H           -0.65043991915172        3.65943156471218        0.93068258143205
H            1.11003269666078        2.89112419682121        2.50794633732039
H            1.11299878238206        0.54085397260205        3.27755481566444
H           -0.56611248577136       -1.03780548052610        2.42397881928747

 projected vibrational frequencies (cm⁻¹)
eigval :       -0.00    -0.00    -0.00    -0.00    -0.00     0.00
eigval :       15.64    16.75    31.48    37.66    48.63    59.72
eigval :       68.51    74.54   109.68   121.82   131.88   137.83
eigval :      165.80   183.15   207.73   217.54   236.30   252.20
eigval :      253.88   256.73   273.45   295.12   306.18   326.87
eigval :      348.71   368.85   381.08   393.29   400.70   420.24
eigval :      424.72   434.38   437.76   438.43   458.58   474.98
eigval :      495.72   500.88   501.94   504.18   506.65   522.67
eigval :      527.25   538.40   547.44   561.68   568.39   576.68
eigval :      596.71   609.05   616.21   629.76   660.50   664.32
eigval :      669.55   673.37   673.90   680.31   686.42   730.88
eigval :      760.21   771.63   776.62   778.68   778.95   780.02
eigval :      781.62   824.20   829.65   833.64   848.56   856.44
eigval :      858.08   860.10   861.19   867.17   869.10   873.23
eigval :      892.36   895.17   897.38   900.05   906.53   908.84
eigval :      913.07   915.72   916.57   917.07   919.89   983.33
eigval :     1049.26  1082.60  1088.08  1088.48  1089.00  1098.36
eigval :     1108.99  1113.21  1115.58  1129.37  1137.41  1171.59
eigval :     1173.11  1174.04  1175.99  1180.87  1189.75  1192.70
eigval :     1207.11  1210.70  1211.26  1222.34  1223.79  1240.12
eigval :     1240.43  1251.60  1255.89  1281.48  1285.59  1299.03
eigval :     1303.59  1314.04  1316.63  1323.55  1328.37  1347.24
eigval :     1348.75  1358.42  1368.82  1383.89  1411.62  1420.15
eigval :     1423.76  1437.34  1442.91  1443.37  1463.31  1469.18
eigval :     1478.29  1483.54  1504.53  1527.55  1545.75  1554.05
eigval :     1560.36  1567.94  1571.33  1581.85  1583.60  1592.68
eigval :     3074.45  3079.28  3081.18  3085.82  3089.07  3090.77
eigval :     3091.30  3093.38  3095.09  3098.96  3099.80  3100.77
eigval :     3102.62  3109.08  3110.95  3111.89  3113.33  3116.09
eigval :     3116.66  3117.87  3120.32

   temp. (K)  partition function   enthalpy   heat capacity  entropy
                                   cal/mol     cal/K/mol   cal/K/mol   J/K/mol
 298.15  VIB  0.186E+12            16149.318    108.641     96.887
         ROT  0.226E+08              888.752      2.981     36.635
         INT  0.422E+19            17038.070    111.622    133.523
         TR   0.105E+29             1481.254      4.968     44.444
         TOT                       18519.3240   116.5899   177.9670   744.6138

       T/K    H(0)-H(T)+PV         H(T)/Eh          T*S/Eh         G(T)/Eh
   ------------------------------------------------------------------------
    298.15    0.295124E-01    0.468451E+00    0.845578E-01    0.383893E+00
   ------------------------------------------------------------------------

         :::::::::::::::::::::::::::::::::::::::::::::::::::::
         ::                  THERMODYNAMIC                  ::
         :::::::::::::::::::::::::::::::::::::::::::::::::::::
         :: total free energy         -97.888956406249 Eh   ::
         ::.................................................::
         :: total energy              -98.272849073993 Eh   ::
         :: zero point energy           0.438938094949 Eh   ::
         :: G(RRHO) w/o ZPVE           -0.055045427205 Eh   ::
         :: G(RRHO) contrib.            0.383892667744 Eh   ::
         :::::::::::::::::::::::::::::::::::::::::::::::::::::

           -------------------------------------------------
          | TOTAL ENERGY              -98.272849073993 Eh   |
          | TOTAL ENTHALPY            -97.804398557761 Eh   |
          | TOTAL FREE ENERGY         -97.888956406249 Eh   |
          | GRADIENT NORM               0.000050488386 Eh/α |
           -------------------------------------------------

 * finished run on 2025/08/22 at 14:47:01.728
