   * xtb version 6.7.1 (edcfbbe) compiled by 'albert@albert-system' on 2024-07-22

   ID    Z sym.   atoms
    1    6 C      1-6, 8-13, 15-22, 24-29, 31-37
    2    8 O      7, 30
    3    7 N      14, 23, 38
    4    1 H      39-59

          program call               : xtb data2507/gas/Fene/Fene_gas_T1_crest.xyz --gfn 2 --spinpol --tblite --uhf 2 --ohess vtight --parallel 40 --molden --ceasefiles --namespace data2507/gas/Fene/Fene_gas_T1_finalOpt
 * total energy  :   -98.2728180 Eh     change        0.1390731E-08 Eh
 * total energy  :   -98.2728381 Eh     change       -0.2014860E-04 Eh
 * total energy  :   -98.2728455 Eh     change       -0.7329415E-05 Eh
 * total energy  :   -98.2728466 Eh     change       -0.1136377E-05 Eh
 * total energy  :   -98.2728473 Eh     change       -0.6671964E-06 Eh
 * total energy  :   -98.2728473 Eh     change       -0.2758900E-07 Eh
 * total energy  :   -98.2728478 Eh     change       -0.4902328E-06 Eh
 * total energy  :   -98.2728485 Eh     change       -0.6749303E-06 Eh
 * total energy  :   -98.2728489 Eh     change       -0.4505466E-06 Eh
 * total energy  :   -98.2728494 Eh     change       -0.4577576E-06 Eh
 * total energy  :   -98.2728505 Eh     change       -0.1129752E-06 Eh
 * total energy  :   -98.2728507 Eh     change       -0.1793668E-06 Eh
 * total energy  :   -98.2728509 Eh     change       -0.1689905E-06 Eh
 * total energy  :   -98.2728510 Eh     change       -0.1846049E-06 Eh
 * total energy  :   -98.2728512 Eh     change       -0.1421572E-06 Eh
 * total energy  :   -98.2728513 Eh     change       -0.1071482E-06 Eh
 * total energy  :   -98.2728515 Eh     change       -0.1836989E-06 Eh
 * total energy  :   -98.2728517 Eh     change       -0.1921230E-06 Eh
 * total energy  :   -98.2728517 Eh     change       -0.3041028E-07 Eh
   *** GEOMETRY OPTIMIZATION CONVERGED AFTER 22 ITERATIONS ***

 final structure:
================
59
 xtb: 6.7.1 (edcfbbe)
C            0.52868891828153        3.46270799285631       -1.60741219145687
C           -0.20772222877363        2.35637220498502       -1.98864509623709
C            0.29954705547718        1.08170799743002       -1.80884596707586
C            1.54586605188959        0.88788727213942       -1.21781354551272
C            2.30183188351397        2.01834504306547       -0.87784974806281
C            1.79289725582166        3.29109294152649       -1.06658271040176
O            3.56419486382587        1.92037020916935       -0.35902448413645
C            4.03683122048553        0.66516043638080       -0.08387638916846
C            5.28603284218781        0.58602694992085        0.50731959555816
C            5.81754065362614       -0.64452856548641        0.85727662728179
C            5.08066355736386       -1.79221461967908        0.63284519089414
C            3.83196807518585       -1.71967689852027        0.03918427425262
C            3.29597471968128       -0.49646264321414       -0.35107054549182
N            2.05372739929683       -0.38819093246824       -0.97651017101310
C            1.13261113152801       -1.45170181047179       -0.94549730702136
C            1.30927150402723       -2.67320254757173       -1.55992643911047
C            0.33276418456001       -3.65719311146411       -1.40563004344053
C           -0.82788215676640       -3.40174540736695       -0.63908537670542
C           -1.83131885659514       -4.33361310475024       -0.35960066262464
C           -2.93406780239195       -3.98555998706986        0.42195010085373
C           -3.08917010891664       -2.70293237726355        0.89700452976589
C           -2.11703759764048       -1.73042686795295        0.61670989188181
N           -2.28558766333985       -0.36635032495074        0.92915569552892
C           -3.29096303254961        0.38189694137913        0.31535062960254
C           -4.38586190880649       -0.20639638658996       -0.31499357773129
C           -5.37957831918279        0.56795323220711       -0.88526029537878
C           -5.29882157280336        1.94956432348227       -0.85448637181706
C           -4.19878399466277        2.55417525216301       -0.27369111160756
C           -3.19729389051836        1.78416830343174        0.29870200793938
O           -2.12360853183001        2.45664079495632        0.80370003242611
C           -1.10878851430933        1.71423552000731        1.33267707867466
C            0.02107778861250        2.39007886713584        1.75917625191393
C            1.07223465307834        1.69063058528013        2.33083261245059
C            0.96343700513402        0.32360464375499        2.53069735219255
C           -0.16192574602117       -0.35729338997216        2.11077638484864
C           -1.20187655303964        0.31798807960513        1.45551834718937
C           -0.94407574270005       -2.08729593156449       -0.09477507890759
N            0.02184563766574       -1.18788218254366       -0.22601085858483
H            0.13262397150678        4.45700529964448       -1.74144388443598
H           -1.18380831577045        2.47926248943489       -2.43349316440113
H           -0.27499629073923        0.22836965080613       -2.12967967322343
H            2.40288436310011        4.13351507476256       -0.78176800260978
H            5.82171714952661        1.50358873102776        0.69174385674072
H            6.79388994630877       -0.69818532104864        1.31243478464741
H            5.47297598624336       -2.75561373949837        0.92012524647164
H            3.25805042231033       -2.61946211934169       -0.11038554667125
H            2.18156053398560       -2.85093434400973       -2.17023266531513
H            0.44689037292535       -4.61517733621910       -1.88772041828194
H           -1.72271322830717       -5.34528261006883       -0.72048450960559
H           -3.67330995562210       -4.73626989031379        0.65847914338050
H           -3.93032061678465       -2.44094195491146        1.52142176884669
H           -4.44959928768800       -1.28036262919468       -0.37082369683766
H           -6.21841865383768        0.08360199134803       -1.36058133202894
H           -6.07564830318408        2.55458890637817       -1.29463881629490
H           -4.08427012328265        3.62628909551920       -0.26075204659579
H            0.06210558923146        3.45826304565436        1.62240952642284
H            1.96187662330365        2.21821298604625        2.63753426516562
H            1.76600852938342       -0.21932662291405        3.00636669308660
H           -0.26222085160489       -1.41386534167659        2.29939850487147

 projected vibrational frequencies (cm⁻¹)
eigval :       -0.00    -0.00     0.00     0.00     0.00     0.00
eigval :       15.50    17.02    32.04    37.62    48.69    59.75
eigval :       68.51    74.72   109.81   121.84   131.98   138.12
eigval :      166.08   182.43   207.95   218.03   236.69   251.90
eigval :      253.85   257.08   273.48   295.47   306.23   326.94
eigval :      348.60   368.51   381.28   393.27   400.66   420.24
eigval :      424.81   434.37   437.71   438.77   458.41   474.82
eigval :      495.75   501.00   502.07   504.10   506.60   522.65
eigval :      527.78   538.21   547.30   561.53   568.42   576.66
eigval :      596.65   609.00   616.19   629.75   660.34   664.27
eigval :      669.64   673.23   673.81   680.25   686.29   730.70
eigval :      760.40   770.97   776.61   778.73   778.88   780.01
eigval :      781.84   824.35   829.74   833.64   848.65   856.55
eigval :      858.14   859.97   861.22   867.02   869.02   873.19
eigval :      892.35   895.03   897.33   900.01   906.66   908.98
eigval :      913.06   915.37   916.46   917.01   919.91   983.95
eigval :     1049.78  1082.65  1088.28  1088.57  1089.18  1098.85
eigval :     1109.30  1113.23  1115.51  1129.41  1137.43  1171.16
eigval :     1172.58  1173.65  1175.58  1180.81  1189.32  1192.63
eigval :     1206.98  1210.45  1211.34  1221.92  1223.62  1239.85
eigval :     1240.14  1251.84  1256.12  1281.48  1285.13  1298.76
eigval :     1303.33  1314.34  1316.63  1323.61  1328.19  1347.50
eigval :     1348.93  1358.29  1368.61  1383.63  1411.00  1419.97
eigval :     1423.54  1436.80  1442.57  1442.96  1463.30  1469.09
eigval :     1478.44  1483.49  1504.77  1527.58  1545.36  1553.59
eigval :     1560.55  1568.07  1571.49  1582.05  1583.40  1592.53
eigval :     3074.04  3079.00  3080.93  3085.68  3088.43  3090.45
eigval :     3090.62  3092.97  3094.80  3098.62  3099.30  3100.39
eigval :     3102.30  3108.89  3110.35  3111.35  3113.22  3115.56
eigval :     3116.32  3117.87  3120.38

   temp. (K)  partition function   enthalpy   heat capacity  entropy
                                   cal/mol     cal/K/mol   cal/K/mol   J/K/mol
 298.15  VIB  0.181E+12            16146.877    108.653     96.858
         ROT  0.227E+08              888.752      2.981     36.638
         INT  0.410E+19            17035.629    111.634    133.497
         TR   0.105E+29             1481.254      4.968     44.444
         TOT                       18516.8832   116.6023   177.9413   744.5063

       T/K    H(0)-H(T)+PV         H(T)/Eh          T*S/Eh         G(T)/Eh
   ------------------------------------------------------------------------
    298.15    0.295085E-01    0.468423E+00    0.845456E-01    0.383877E+00
   ------------------------------------------------------------------------

         :::::::::::::::::::::::::::::::::::::::::::::::::::::
         ::                  THERMODYNAMIC                  ::
         :::::::::::::::::::::::::::::::::::::::::::::::::::::
         :: total free energy         -97.888974575417 Eh   ::
         ::.................................................::
         :: total energy              -98.272851693290 Eh   ::
         :: zero point energy           0.438914229381 Eh   ::
         :: G(RRHO) w/o ZPVE           -0.055037111508 Eh   ::
         :: G(RRHO) contrib.            0.383877117873 Eh   ::
         :::::::::::::::::::::::::::::::::::::::::::::::::::::

           -------------------------------------------------
          | TOTAL ENERGY              -98.272851693290 Eh   |
          | TOTAL ENTHALPY            -97.804428932261 Eh   |
          | TOTAL FREE ENERGY         -97.888974575417 Eh   |
          | GRADIENT NORM               0.000038427872 Eh/α |
           -------------------------------------------------

 * finished run on 2025/08/22 at 14:49:50.089
