   * xtb version 6.7.1 (edcfbbe) compiled by 'albert@albert-system' on 2024-07-22

   ID    Z sym.   atoms
    1    6 C      1-6, 8-13, 15-22, 24-29, 31-37
    2    8 O      7, 30
    3    7 N      14, 23, 38
    4    1 H      39-59

          program call               : xtb data2507/gas/Fene/Fene_gas_S0_crest.xyz --gfn 2 --ohess vtight --parallel 40 --molden --ceasefiles --namespace data2507/gas/Fene/Fene_gas_S0_finalOpt
          :  Hamiltonian                  GFN2-xTB          :
 * total energy  :   -98.3413243 Eh     change       -0.1597471E-08 Eh
 * total energy  :   -98.3413252 Eh     change       -0.8192064E-06 Eh
 * total energy  :   -98.3413259 Eh     change       -0.7566836E-06 Eh
 * total energy  :   -98.3413270 Eh     change       -0.1110600E-05 Eh
 * total energy  :   -98.3413281 Eh     change       -0.1131569E-05 Eh
 * total energy  :   -98.3413291 Eh     change       -0.9969617E-06 Eh
 * total energy  :   -98.3413298 Eh     change       -0.6812167E-06 Eh
 * total energy  :   -98.3413302 Eh     change       -0.4091635E-06 Eh
 * total energy  :   -98.3413305 Eh     change       -0.3090060E-06 Eh
 * total energy  :   -98.3413309 Eh     change       -0.3543051E-06 Eh
 * total energy  :   -98.3413324 Eh     change       -0.9416481E-06 Eh
 * total energy  :   -98.3413336 Eh     change       -0.1211391E-05 Eh
 * total energy  :   -98.3413346 Eh     change       -0.9476197E-06 Eh
 * total energy  :   -98.3413351 Eh     change       -0.5524351E-06 Eh
 * total energy  :   -98.3413355 Eh     change       -0.3666095E-06 Eh
 * total energy  :   -98.3413359 Eh     change       -0.4040228E-06 Eh
 * total energy  :   -98.3413363 Eh     change       -0.3652279E-06 Eh
 * total energy  :   -98.3413364 Eh     change       -0.1578410E-06 Eh
 * total energy  :   -98.3413364 Eh     change       -0.2985995E-07 Eh
   *** GEOMETRY OPTIMIZATION CONVERGED AFTER 20 ITERATIONS ***

 final structure:
================
59
 xtb: 6.7.1 (edcfbbe)
C            0.85197410092624        3.67222059649559       -0.28047841764996
C            0.06350107330514        2.73169143664417       -0.91824944512258
C            0.48478150887698        1.41679870027565       -1.02097207878136
C            1.70599054742668        1.03806328057088       -0.48537687229008
C            2.52657627782016        2.00533904337479        0.09852585762530
C            2.09323602827445        3.31551487017063        0.21576312050563
O            3.79432028275711        1.69527833540882        0.53884245161562
C            4.37225188482388        0.62493576024765       -0.08904078852628
C            5.75528722090261        0.56098046502335       -0.15916054641638
C            6.36299197861720       -0.48004583422527       -0.83944751469135
C            5.59215782866286       -1.42862446321489       -1.48854537717916
C            4.21053524715868       -1.37205934150274       -1.41704865554895
C            3.58948225838121       -0.37586940899946       -0.67485020946368
N            2.19135367145605       -0.29241429188742       -0.52440695864415
C            1.40387476624397       -1.34811940851435       -0.13688093209626
C            1.96314318167829       -2.62012106701484        0.17900352612871
C            1.12753959764825       -3.63560236935139        0.52989634242232
C           -0.26777103508510       -3.41490969948054        0.61829016771677
C           -1.20207389255943       -4.40764626838622        0.95618835123669
C           -2.53015570518349       -4.09241676111769        1.07763391685050
C           -2.96782326053715       -2.77465026237180        0.89803153406662
C           -2.08136593483595       -1.77852784716798        0.56522986447503
N           -2.50777274146695       -0.44163419512921        0.41205603942504
C           -3.24779267217150       -0.05843368575973       -0.70400953497316
C           -3.68920454615611       -0.97194430563568       -1.65284546542482
C           -4.43926430762518       -0.55846290105801       -2.74385493544058
C           -4.75216858244482        0.77481431441964       -2.91032882919017
C           -4.29799342254613        1.70376923129771       -1.98445108146829
C           -3.55257894704238        1.29666357500438       -0.89444458156413
O           -3.12726330897804        2.27524620998095       -0.02975915315626
C           -2.30323732128825        1.89011779465696        1.00105290474694
C           -1.80339652023326        2.89228942293026        1.80975104472771
C           -0.98019379159855        2.58050361861807        2.88112996085059
C           -0.68552867836127        1.25937179741336        3.14829448474777
C           -1.19167461385322        0.25089660655622        2.34351995622820
C           -1.98257569048987        0.54878714803446        1.24186890517502
C           -0.70830466906737       -2.08804156814268        0.38097979011299
N            0.11829413476396       -1.10837074388127       -0.01196498239633
H            0.51228743385590        4.69150173651344       -0.18328267249106
H           -0.88787362869325        3.01948391084222       -1.33714898656506
H           -0.13276644277182        0.67823518337109       -1.50241714579679
H            2.73974483051473        4.03434858901219        0.69342016160465
H            6.33366877288469        1.33142687103487        0.32497577539156
H            7.43963845258520       -0.53427879931336       -0.88101368203721
H            6.06370771792704       -2.21784059500635       -2.05349685292789
H            3.60659531094803       -2.10078645394149       -1.93600621037735
H            3.03120672578777       -2.76364317796958        0.17474378647521
H            1.52146063829078       -4.61336074876755        0.77123071832395
H           -0.85566454527384       -5.41798958306352        1.12041088596076
H           -3.24972150009636       -4.85500101175804        1.33502300636650
H           -4.01242582653723       -2.53200453031227        1.02809592364627
H           -3.43959969995129       -2.01544255113415       -1.53955630389023
H           -4.77387888104923       -1.29149815811323       -3.46210712524732
H           -5.33846552318963        1.10180827880916       -3.75467582122821
H           -4.51427847489799        2.75488867416890       -2.09275194293148
H           -2.06993613938401        3.91267513614418        1.58501496981557
H           -0.58644472225455        3.36907962426611        3.50287037672355
H           -0.06305904175928        0.99934666604760        3.99109810593671
H           -0.96921274893607       -0.77871307741492        2.57582714711434

          :  Hamiltonian                  GFN2-xTB          :
         :: gradient norm              0.000075790864 Eh/a0 ::
         :: HOMO-LUMO gap              1.598911110782 eV    ::
         :: SCC energy              -100.029868426133 Eh    ::
         :: -> dispersion             -0.091178075175 Eh    ::
         :: repulsion energy           1.688531981409 Eh    ::

    * Orbital Energies and Occupations

         #    Occupation            Energy/Eh            Energy/eV
      -------------------------------------------------------------
         1        2.0000           -0.7325176             -19.9328
       ...           ...                  ...                  ...
        78        2.0000           -0.4252453             -11.5715
        79        2.0000           -0.4188527             -11.3976
        80        2.0000           -0.4175258             -11.3615
        81        2.0000           -0.4141101             -11.2685
        82        2.0000           -0.4111941             -11.1892
        83        2.0000           -0.4051709             -11.0253
        84        2.0000           -0.4015823             -10.9276
        85        2.0000           -0.3971128             -10.8060
        86        2.0000           -0.3913936             -10.6504
        87        2.0000           -0.3799561             -10.3391
        88        2.0000           -0.3670345              -9.9875
        89        2.0000           -0.3567537              -9.7078
        90        2.0000           -0.3314932              -9.0204 (HOMO)
        91                         -0.2727345              -7.4215 (LUMO)
        92                         -0.2434060              -6.6234
        93                         -0.2386713              -6.4946
        94                         -0.2327535              -6.3335
        95                         -0.2274986              -6.1906
        96                         -0.2218501              -6.0368
        97                         -0.2188136              -5.9542
        98                         -0.2133083              -5.8044
        99                         -0.2063723              -5.6157
       100                         -0.1995674              -5.4305
       101                         -0.1843945              -5.0176
       ...                                ...                  ...
       173                          0.6942579              18.8917
      -------------------------------------------------------------
                  HL-Gap            0.0587587 Eh            1.5989 eV

     #   Z          covCN         q      C6AA      α(0)
     1   6 C        2.921    -0.033    28.818     8.803
     2   6 C        2.921    -0.034    28.855     8.809
     3   6 C        2.921    -0.039    28.975     8.827
     4   6 C        2.938     0.046    26.976     8.518
     5   6 C        2.901     0.126    25.230     8.236
     6   6 C        2.918    -0.053    29.323     8.880
     7   8 O        1.708    -0.252    18.167     5.755
     8   6 C        2.900     0.131    25.142     8.221
     9   6 C        2.918    -0.053    29.329     8.881
    10   6 C        2.920    -0.035    28.862     8.810
    11   6 C        2.919    -0.039    28.963     8.825
    12   6 C        2.921    -0.048    29.204     8.862
    13   6 C        2.934     0.040    27.113     8.540
    14   7 N        2.760    -0.063    22.465     7.040
    15   6 C        2.892     0.155    24.648     8.140
    16   6 C        2.911    -0.062    29.554     8.914
    17   6 C        2.923    -0.020    28.505     8.755
    18   6 C        2.984    -0.010    28.262     8.720
    19   6 C        2.916    -0.039    28.975     8.827
    20   6 C        2.916    -0.036    28.890     8.814
    21   6 C        2.919    -0.042    29.046     8.838
    22   6 C        2.924     0.051    26.847     8.497
    23   7 N        2.752    -0.057    22.343     7.020
    24   6 C        2.924     0.045    26.984     8.519
    25   6 C        2.924    -0.060    29.503     8.907
    26   6 C        2.919    -0.040    28.984     8.829
    27   6 C        2.919    -0.043    29.058     8.840
    28   6 C        2.920    -0.058    29.439     8.897
    29   6 C        2.884     0.124    25.272     8.242
    30   8 O        1.708    -0.257    18.264     5.770
    31   6 C        2.885     0.124    25.271     8.242
    32   6 C        2.920    -0.058    29.429     8.896
    33   6 C        2.920    -0.042    29.055     8.839
    34   6 C        2.920    -0.039    28.982     8.828
    35   6 C        2.925    -0.054    29.332     8.882
    36   6 C        2.926     0.050    26.886     8.503
    37   6 C        2.968     0.085    26.113     8.382
    38   7 N        1.855    -0.281    28.134     7.861
    39   1 H        0.926     0.046     2.376     2.410
    40   1 H        0.926     0.050     2.322     2.383
    41   1 H        0.926     0.062     2.177     2.307
    42   1 H        0.926     0.054     2.269     2.355
    43   1 H        0.926     0.056     2.252     2.347
    44   1 H        0.926     0.044     2.392     2.419
    45   1 H        0.926     0.042     2.423     2.434
    46   1 H        0.926     0.045     2.383     2.414
    47   1 H        0.926     0.037     2.494     2.470
    48   1 H        0.925     0.035     2.522     2.484
    49   1 H        0.926     0.034     2.526     2.485
    50   1 H        0.926     0.036     2.497     2.471
    51   1 H        0.926     0.042     2.417     2.431
    52   1 H        0.926     0.032     2.564     2.504
    53   1 H        0.926     0.033     2.549     2.497
    54   1 H        0.926     0.035     2.522     2.484
    55   1 H        0.926     0.047     2.362     2.404
    56   1 H        0.926     0.047     2.353     2.399
    57   1 H        0.926     0.035     2.517     2.481
    58   1 H        0.926     0.032     2.554     2.499
    59   1 H        0.926     0.030     2.593     2.518

molecular dipole:
                 x           y           z       tot (Debye)
 q only:        0.681      -0.448      -0.311
   full:        0.895      -1.015      -0.179       3.469

 projected vibrational frequencies (cm⁻¹)
eigval :       -0.00    -0.00    -0.00    -0.00     0.00     0.00
eigval :       12.21    14.85    29.04    40.80    48.83    62.96
eigval :       66.80    89.27   102.11   116.47   122.36   140.18
eigval :      177.06   179.23   188.90   214.74   221.44   237.73
eigval :      252.68   260.59   282.67   302.60   308.17   321.51
eigval :      348.68   375.05   390.41   397.51   399.96   406.88
eigval :      423.95   427.86   435.07   450.08   459.32   469.40
eigval :      493.77   504.97   506.65   510.51   519.11   532.15
eigval :      535.72   543.71   552.53   559.05   574.13   589.81
eigval :      597.00   618.77   634.30   656.86   660.05   662.20
eigval :      663.79   673.87   684.73   695.95   730.06   775.79
eigval :      777.08   779.57   782.84   784.17   788.41   795.42
eigval :      827.71   833.58   836.77   853.96   854.05   862.00
eigval :      862.91   871.47   880.15   882.68   892.78   893.72
eigval :      896.44   905.88   908.63   911.99   912.89   915.56
eigval :      916.87   919.62   920.64   926.64   939.58   994.69
eigval :     1059.27  1081.54  1083.31  1090.38  1092.50  1105.16
eigval :     1107.35  1108.63  1121.59  1134.69  1163.64  1172.58
eigval :     1175.06  1175.96  1176.64  1184.39  1186.27  1191.05
eigval :     1198.19  1201.28  1224.93  1227.84  1238.02  1240.82
eigval :     1244.08  1251.06  1262.35  1294.55  1302.83  1310.42
eigval :     1314.44  1321.65  1330.61  1337.65  1342.82  1356.17
eigval :     1363.34  1382.97  1424.29  1425.18  1429.72  1441.70
eigval :     1444.82  1456.62  1466.88  1490.02  1491.39  1494.30
eigval :     1506.64  1539.28  1567.86  1575.57  1576.97  1581.60
eigval :     1584.24  1590.83  1592.28  1594.11  1598.50  1605.88
eigval :     3063.87  3073.23  3083.37  3083.95  3085.16  3088.48
eigval :     3093.63  3094.96  3095.02  3095.61  3095.80  3102.65
eigval :     3103.18  3103.40  3104.10  3107.45  3109.14  3110.28
eigval :     3111.60  3113.26  3131.50

   temp. (K)  partition function   enthalpy   heat capacity  entropy
                                   cal/mol     cal/K/mol   cal/K/mol   J/K/mol
 298.15  VIB  0.249E+12            16041.529    107.495     96.855
         ROT  0.258E+08              888.752      2.981     36.897
         INT  0.644E+19            16930.281    110.476    133.751
         TR   0.105E+29             1481.254      4.968     44.444
         TOT                       18411.5352   115.4439   178.1958   745.5711

       T/K    H(0)-H(T)+PV         H(T)/Eh          T*S/Eh         G(T)/Eh
   ------------------------------------------------------------------------
    298.15    0.293406E-01    0.471455E+00    0.846666E-01    0.386789E+00
   ------------------------------------------------------------------------

         :::::::::::::::::::::::::::::::::::::::::::::::::::::
         ::                  THERMODYNAMIC                  ::
         :::::::::::::::::::::::::::::::::::::::::::::::::::::
         :: total free energy         -97.954547583130 Eh   ::
         ::.................................................::
         :: total energy              -98.341336444719 Eh   ::
         :: zero point energy           0.442114771000 Eh   ::
         :: G(RRHO) w/o ZPVE           -0.055325909412 Eh   ::
         :: G(RRHO) contrib.            0.386788861589 Eh   ::
         :::::::::::::::::::::::::::::::::::::::::::::::::::::

           -------------------------------------------------
          | TOTAL ENERGY              -98.341336444719 Eh   |
          | TOTAL ENTHALPY            -97.869881024720 Eh   |
          | TOTAL FREE ENERGY         -97.954547583130 Eh   |
          | GRADIENT NORM               0.000075745399 Eh/α |
          | HOMO-LUMO GAP               1.598905295006 eV   |
           -------------------------------------------------

 * finished run on 2025/08/22 at 14:46:28.635
