   * xtb version 6.7.1 (edcfbbe) compiled by 'albert@albert-system' on 2024-07-22

   ID    Z sym.   atoms
    1    6 C      1-6, 8-13, 15-22, 24-29, 31-37
    2    8 O      7, 30
    3    7 N      14, 23, 38
    4    1 H      39-59

          program call               : xtb data2507/gas/Fene/Fene.xyz --gfn 2 --ohess vtight --parallel 40 --molden --ceasefiles --namespace data2507/gas/Fene/Fene_gas_S0_preOpt
          :  Hamiltonian                  GFN2-xTB          :
 * total energy  :   -98.3144644 Eh     change       -0.3619931E-08 Eh
 * total energy  :   -98.3277510 Eh     change       -0.1328657E-01 Eh
 * total energy  :   -98.3328543 Eh     change       -0.5103340E-02 Eh
 * total energy  :   -98.3342330 Eh     change       -0.1378615E-02 Eh
 * total energy  :   -98.3350779 Eh     change       -0.8449839E-03 Eh
 * total energy  :   -98.3354708 Eh     change       -0.3928469E-03 Eh
 * total energy  :   -98.3357720 Eh     change       -0.3011723E-03 Eh
 * total energy  :   -98.3360440 Eh     change       -0.2720073E-03 Eh
 * total energy  :   -98.3363279 Eh     change       -0.2839707E-03 Eh
 * total energy  :   -98.3366861 Eh     change       -0.3582119E-03 Eh
 * total energy  :   -98.3401873 Eh     change       -0.9398003E-06 Eh
 * total energy  :   -98.3401883 Eh     change       -0.1012926E-05 Eh
 * total energy  :   -98.3401893 Eh     change       -0.1036501E-05 Eh
 * total energy  :   -98.3401904 Eh     change       -0.1036023E-05 Eh
 * total energy  :   -98.3401914 Eh     change       -0.1027276E-05 Eh
 * total energy  :   -98.3401925 Eh     change       -0.1138858E-05 Eh
 * total energy  :   -98.3401938 Eh     change       -0.1266047E-05 Eh
 * total energy  :   -98.3401953 Eh     change       -0.1492584E-05 Eh
 * total energy  :   -98.3401953 Eh     change       -0.3633616E-08 Eh
   *** GEOMETRY OPTIMIZATION CONVERGED AFTER 122 ITERATIONS ***

 final structure:
================
59
 xtb: 6.7.1 (edcfbbe)
C            1.20707672529903        3.76728539021343       -1.03448440255737
C            0.28447254652187        2.75994944075378       -1.24678340832057
C            0.59076936727432        1.44813689893285       -0.92359850157064
C            1.82057459661381        1.13592389960661       -0.36497879277777
C            2.77024979681236        2.15075540157623       -0.20639604749959
C            2.46038942964166        3.46033459885719       -0.53249449649053
O            4.04103229681287        1.88938554476191        0.25489817254516
C            4.46578180444485        0.59967044069236        0.08770706143058
C            5.82846445210377        0.35216072472171        0.02934374471414
C            6.28706205820021       -0.93671576983245       -0.18151048048200
C            5.38654753450663       -1.96969733718908       -0.37517224694018
C            4.02514092549921       -1.72736033046449       -0.31527775261865
C            3.55156769259042       -0.45053172554419       -0.03931505132763
N            2.17755622588586       -0.16437603678492        0.06350180236842
C            1.30702193226584       -0.99451856765766        0.73142166978769
C            1.80578216981908       -1.95318426770911        1.66265349195349
C            0.92450414855819       -2.73526951115671        2.34159270367799
C           -0.46723153108354       -2.59151402931880        2.12451824773252
C           -1.44463289943273       -3.34991563091245        2.78919373570244
C           -2.77530144736993       -3.12329991842242        2.55425422836299
C           -3.17582097893651       -2.13692818950949        1.64447567407916
C           -2.24559239703965       -1.38152563640775        0.97482486990631
N           -2.65165607264375       -0.38174202435380        0.05638368740496
C           -2.41234464919094       -0.56847792219056       -1.30244066532936
C           -2.01321344514711       -1.79470107277935       -1.81678583991273
C           -1.80199543791932       -1.95622353334543       -3.17792802860625
C           -1.99145969297982       -0.89838786354887       -4.04329129628886
C           -2.40326902235683        0.33044719065517       -3.54557881243974
C           -2.61885955711910        0.49545625770886       -2.19130845179682
O           -3.04207904061392        1.73299795577403       -1.76714989420012
C           -3.12671653266424        1.93657622772278       -0.40963017382679
C           -3.41994121346613        3.21650333662351        0.01869361222072
C           -3.51792983303824        3.49527615796129        1.37488415368590
C           -3.30861544643788        2.48817213627948        2.29409233030851
C           -3.00935167227309        1.20232865233617        1.86908007580958
C           -2.92215798597395        0.90519497580523        0.51610641449673
C           -0.86102710427751       -1.58993291170103        1.20103998885435
N            0.01980995330345       -0.82778966075040        0.53219587848027
H            0.96427311970332        4.79102598820909       -1.27350710624985
H           -0.68178207922048        2.99002643343619       -1.66660198265307
H           -0.12064777511950        0.65934981635395       -1.08608050550650
H            3.21035885232135        4.22022947375170       -0.38010003748552
H            6.50900296501850        1.17895870765655        0.15484814620256
H            7.34831951367157       -1.12746353680216       -0.21403321995820
H            5.74046779333781       -2.96942328893805       -0.57402920043268
H            3.31916025158330       -2.52850794431479       -0.47450474633186
H            2.86482621616142       -2.02039714145416        1.85437161664432
H            1.27272887699346       -3.45750330125378        3.06710521366187
H           -1.12831238558106       -4.10892474889404        3.49044216460530
H           -3.52670196021274       -3.70397320751615        3.06761139414139
H           -4.22631455725144       -1.96164885051110        1.46486287533189
H           -1.86849589635760       -2.62704419812846       -1.14528767064012
H           -1.49023384776347       -2.91903554742060       -3.55362061754672
H           -1.82684804492092       -1.01848741737236       -5.10261568556316
H           -2.56532698195595        1.17360442984987       -4.19812827603266
H           -3.57110733940341        3.98465627134108       -0.72328272304448
H           -3.75262649487438        4.49670467049925        1.69998744022545
H           -3.37520431937880        2.69251701636836        3.35192621161886
H           -2.84014360289827        0.42087508378185        2.59389950843647

          :  Hamiltonian                  GFN2-xTB          :
         :: gradient norm              0.000046130244 Eh/a0 ::
         :: HOMO-LUMO gap              1.535520022700 eV    ::
         :: SCC energy              -100.027804714719 Eh    ::
         :: -> dispersion             -0.088251026541 Eh    ::
         :: repulsion energy           1.687609412156 Eh    ::

    * Orbital Energies and Occupations

         #    Occupation            Energy/Eh            Energy/eV
      -------------------------------------------------------------
         1        2.0000           -0.7328396             -19.9416
       ...           ...                  ...                  ...
        78        2.0000           -0.4259728             -11.5913
        79        2.0000           -0.4188737             -11.3981
        80        2.0000           -0.4174881             -11.3604
        81        2.0000           -0.4156252             -11.3097
        82        2.0000           -0.4118820             -11.2079
        83        2.0000           -0.4052144             -11.0264
        84        2.0000           -0.4024325             -10.9507
        85        2.0000           -0.3983504             -10.8397
        86        2.0000           -0.3927306             -10.6867
        87        2.0000           -0.3810109             -10.3678
        88        2.0000           -0.3701039             -10.0710
        89        2.0000           -0.3561511              -9.6914
        90        2.0000           -0.3324687              -9.0469 (HOMO)
        91                         -0.2760393              -7.5114 (LUMO)
        92                         -0.2456701              -6.6850
        93                         -0.2388578              -6.4997
        94                         -0.2332488              -6.3470
        95                         -0.2275511              -6.1920
        96                         -0.2207579              -6.0071
        97                         -0.2194232              -5.9708
        98                         -0.2126848              -5.7874
        99                         -0.2060185              -5.6060
       100                         -0.2026012              -5.5131
       101                         -0.1863855              -5.0718
       ...                                ...                  ...
       173                          0.6896686              18.7668
      -------------------------------------------------------------
                  HL-Gap            0.0564294 Eh            1.5355 eV

     #   Z          covCN         q      C6AA      α(0)
     1   6 C        2.920    -0.034    28.856     8.809
     2   6 C        2.920    -0.036    28.887     8.814
     3   6 C        2.922    -0.047    29.160     8.855
     4   6 C        2.931     0.044    27.019     8.525
     5   6 C        2.898     0.125    25.250     8.239
     6   6 C        2.919    -0.054    29.345     8.883
     7   8 O        1.708    -0.252    18.175     5.756
     8   6 C        2.897     0.130    25.153     8.223
     9   6 C        2.918    -0.054    29.340     8.882
    10   6 C        2.920    -0.035    28.874     8.812
    11   6 C        2.919    -0.038    28.955     8.824
    12   6 C        2.922    -0.049    29.209     8.863
    13   6 C        2.934     0.040    27.106     8.539
    14   7 N        2.757    -0.062    22.430     7.034
    15   6 C        2.891     0.155    24.651     8.140
    16   6 C        2.912    -0.059    29.467     8.901
    17   6 C        2.922    -0.020    28.501     8.755
    18   6 C        2.984    -0.009    28.225     8.715
    19   6 C        2.916    -0.037    28.932     8.820
    20   6 C        2.916    -0.035    28.867     8.811
    21   6 C        2.919    -0.040    28.992     8.830
    22   6 C        2.926     0.054    26.785     8.487
    23   7 N        2.752    -0.065    22.502     7.045
    24   6 C        2.927     0.050    26.888     8.504
    25   6 C        2.924    -0.056    29.399     8.892
    26   6 C        2.919    -0.039    28.975     8.827
    27   6 C        2.919    -0.042    29.054     8.839
    28   6 C        2.919    -0.057    29.425     8.895
    29   6 C        2.884     0.124    25.269     8.241
    30   8 O        1.708    -0.260    18.301     5.776
    31   6 C        2.884     0.125    25.266     8.241
    32   6 C        2.920    -0.057    29.423     8.895
    33   6 C        2.919    -0.043    29.057     8.840
    34   6 C        2.919    -0.039    28.974     8.827
    35   6 C        2.924    -0.059    29.470     8.902
    36   6 C        2.927     0.047    26.938     8.512
    37   6 C        2.967     0.085    26.105     8.381
    38   7 N        1.850    -0.277    28.035     7.847
    39   1 H        0.926     0.043     2.403     2.424
    40   1 H        0.926     0.050     2.316     2.380
    41   1 H        0.926     0.071     2.075     2.253
    42   1 H        0.926     0.053     2.286     2.364
    43   1 H        0.926     0.055     2.257     2.349
    44   1 H        0.926     0.044     2.397     2.421
    45   1 H        0.926     0.042     2.425     2.435
    46   1 H        0.926     0.043     2.412     2.429
    47   1 H        0.926     0.037     2.492     2.469
    48   1 H        0.925     0.036     2.504     2.474
    49   1 H        0.926     0.036     2.500     2.473
    50   1 H        0.926     0.038     2.471     2.458
    51   1 H        0.926     0.045     2.383     2.414
    52   1 H        0.926     0.028     2.614     2.528
    53   1 H        0.926     0.032     2.564     2.504
    54   1 H        0.926     0.034     2.527     2.486
    55   1 H        0.926     0.047     2.359     2.402
    56   1 H        0.926     0.047     2.362     2.403
    57   1 H        0.926     0.035     2.520     2.482
    58   1 H        0.926     0.032     2.551     2.498
    59   1 H        0.926     0.029     2.602     2.523

molecular dipole:
                 x           y           z       tot (Debye)
 q only:        0.566      -0.570       0.224
   full:        0.778      -0.989       0.643       3.593

 projected vibrational frequencies (cm⁻¹)
eigval :       -0.00    -0.00     0.00     0.00     0.00     0.00
eigval :       -3.14    16.30    23.31    34.48    43.83    62.34
eigval :       67.37    75.84    94.91   111.26   120.57   141.83
eigval :      163.04   168.75   195.11   216.53   222.72   234.71
eigval :      251.16   259.23   279.79   302.02   309.26   319.34
eigval :      346.77   370.30   391.24   397.90   400.84   410.29
eigval :      422.66   426.37   433.78   446.05   457.52   474.74
eigval :      492.77   505.07   508.01   510.61   516.22   529.41
eigval :      534.35   541.41   551.54   561.55   573.87   588.55
eigval :      597.29   618.69   634.25   658.48   662.20   662.78
eigval :      663.55   674.15   685.16   692.27   732.80   775.78
eigval :      776.59   778.70   780.39   783.64   787.76   792.40
eigval :      828.39   835.27   837.41   853.04   855.19   859.62
eigval :      859.93   865.70   878.65   883.80   892.62   893.93
eigval :      894.97   902.59   908.36   912.25   912.64   915.81
eigval :      917.30   919.94   920.24   920.69   934.78   993.07
eigval :     1057.87  1082.93  1085.36  1088.76  1091.08  1103.34
eigval :     1106.85  1107.55  1121.65  1134.64  1164.22  1172.27
eigval :     1175.19  1175.67  1176.59  1182.62  1186.16  1191.65
eigval :     1198.23  1200.04  1223.73  1226.08  1235.20  1241.47
eigval :     1243.14  1252.25  1261.14  1295.07  1302.51  1308.67
eigval :     1313.63  1321.25  1331.50  1335.24  1343.34  1356.64
eigval :     1361.26  1379.68  1421.59  1425.71  1428.64  1441.91
eigval :     1444.56  1457.87  1467.85  1488.98  1491.75  1494.08
eigval :     1506.75  1541.47  1567.80  1574.71  1576.59  1581.81
eigval :     1585.28  1590.61  1592.62  1594.96  1598.98  1605.87
eigval :     3064.36  3073.40  3083.67  3084.49  3085.93  3087.75
eigval :     3093.11  3093.89  3094.18  3094.59  3096.68  3100.36
eigval :     3100.96  3101.06  3103.59  3107.06  3108.48  3110.23
eigval :     3112.23  3113.68  3158.35

   temp. (K)  partition function   enthalpy   heat capacity  entropy
                                   cal/mol     cal/K/mol   cal/K/mol   J/K/mol
 298.15  VIB  0.189E+13            16144.149    107.254     99.034
         ROT  0.266E+08              888.752      2.981     36.954
         INT  0.502E+20            17032.901    110.235    135.988
         TR   0.105E+29             1481.254      4.968     44.444
         TOT                       18514.1550   115.2029   180.4322   754.9282

       T/K    H(0)-H(T)+PV         H(T)/Eh          T*S/Eh         G(T)/Eh
   ------------------------------------------------------------------------
    298.15    0.295042E-01    0.471343E+00    0.857291E-01    0.385613E+00
   ------------------------------------------------------------------------

         :::::::::::::::::::::::::::::::::::::::::::::::::::::
         ::                  THERMODYNAMIC                  ::
         :::::::::::::::::::::::::::::::::::::::::::::::::::::
         :: total free energy         -97.954581893824 Eh   ::
         ::.................................................::
         :: total energy              -98.340195302562 Eh   ::
         :: zero point energy           0.441838369231 Eh   ::
         :: G(RRHO) w/o ZPVE           -0.056224960492 Eh   ::
         :: G(RRHO) contrib.            0.385613408739 Eh   ::
         :::::::::::::::::::::::::::::::::::::::::::::::::::::

           -------------------------------------------------
          | TOTAL ENERGY              -98.340195302562 Eh   |
          | TOTAL ENTHALPY            -97.868852749300 Eh   |
          | TOTAL FREE ENERGY         -97.954581893824 Eh   |
          | GRADIENT NORM               0.000046126396 Eh/α |
          | HOMO-LUMO GAP               1.535521067995 eV   |
           -------------------------------------------------

 * finished run on 2025/08/22 at 14:43:39.316
