   * xtb version 6.7.1 (edcfbbe) compiled by 'albert@albert-system' on 2024-07-22

   ID    Z sym.   atoms
    1    6 C      1-23, 25, 26, 28, 30-32, 34, 36, 38-61, 63, 65, 67
    2    7 N      24, 37
    3    9 F      27, 29, 33, 35, 62, 64, 66, 68
    4    1 H      69-128

          program call               : xtb data2507/toluene/PFBP-2b/PFBP-2b_toluene_S0_crest.xyz --gfn 2 --gbsa toluene --ohess vtight --parallel 40 --molden --ceasefiles --namespace data2507/toluene/PFBP-2b/PFBP-2b_toluene_S0_finalOpt
      * Solvation model:               GBSA
        Solvent                        toluene
        Solvent mass                       9.2140E+01 g/mol
          :  Hamiltonian                  GFN2-xTB          :
 * total energy  :  -198.6911756 Eh     change       -0.1712380E-08 Eh
 * total energy  :  -198.6913181 Eh     change       -0.1424398E-03 Eh
 * total energy  :  -198.6913891 Eh     change       -0.7107372E-04 Eh
 * total energy  :  -198.6914215 Eh     change       -0.3234604E-04 Eh
 * total energy  :  -198.6914413 Eh     change       -0.1986343E-04 Eh
 * total energy  :  -198.6914622 Eh     change       -0.2085992E-04 Eh
 * total energy  :  -198.6914673 Eh     change       -0.5064888E-05 Eh
 * total energy  :  -198.6914736 Eh     change       -0.6297124E-05 Eh
 * total energy  :  -198.6914766 Eh     change       -0.3000720E-05 Eh
 * total energy  :  -198.6914790 Eh     change       -0.2456281E-05 Eh
 * total energy  :  -198.6914819 Eh     change       -0.9789850E-06 Eh
 * total energy  :  -198.6914831 Eh     change       -0.1192494E-05 Eh
 * total energy  :  -198.6914843 Eh     change       -0.1199928E-05 Eh
 * total energy  :  -198.6914853 Eh     change       -0.9939974E-06 Eh
 * total energy  :  -198.6914862 Eh     change       -0.9580638E-06 Eh
 * total energy  :  -198.6914872 Eh     change       -0.1016151E-05 Eh
 * total energy  :  -198.6914881 Eh     change       -0.8693760E-06 Eh
 * total energy  :  -198.6914886 Eh     change       -0.5106521E-06 Eh
 * total energy  :  -198.6914887 Eh     change       -0.4321353E-07 Eh
   *** GEOMETRY OPTIMIZATION CONVERGED AFTER 21 ITERATIONS ***

 final structure:
================
128
 xtb: 6.7.1 (edcfbbe)
C           -7.15427255446768        5.66395903428827        1.91121514435426
C           -7.68292501486798        4.37144706993980        2.55094495791978
C           -9.20498636755959        4.34282156741232        2.38158903442617
C           -7.36644677636257        4.36875817306000        4.05390795265468
C           -6.99508968461495        3.18401297630150        1.89641709149375
C           -5.60956232364676        3.06841143415001        1.94979739046727
C           -4.95855372374534        2.01955242245170        1.33991650986921
C           -5.66188081443264        1.04515017933503        0.63056187152189
C           -7.05433570729132        1.09518261358128        0.62769993110582
C           -7.68217838380785        2.16888999776375        1.25010794639188
C           -7.91003986928597        0.00230988562883        0.01797870790564
C           -8.79741571033017        0.61765992005268       -1.08036789387555
C           -8.77912256947112       -0.61169891232773        1.13159672527052
C           -7.06734320371023       -1.09231884806289       -0.60631662156964
C           -7.70085623021383       -2.16284023937928       -1.22109226960156
C           -7.02528384673490       -3.18134617869072       -1.88183522946840
C           -7.80722236692802       -4.32919647300270       -2.50049266239347
C           -8.77137225399620       -3.77322153609244       -3.55906458806361
C           -6.89641061470968       -5.35838928895976       -3.17642325494296
C           -8.60150859307033       -5.04432016862960       -1.39730707977082
C           -5.64375291840923       -3.07118979110784       -1.95569214291810
C           -4.98426567400491       -2.02072161102349       -1.35040069459710
C           -5.67299747040855       -1.04661068205881       -0.63039816097605
N           -4.97686794478976       -0.00198168155259       -0.00407470679515
C           -3.58788171723617       -0.00484073292827       -0.01161397478045
C           -2.84824606105725        1.04066553756104       -0.58778862338446
F           -3.50010246965104        2.05111867698562       -1.18316661936891
C           -1.46460861960455        1.04488856003769       -0.57773354961552
F           -0.80856378868348        2.05627396901510       -1.16697268769160
C           -0.73550518674826       -0.00744760732058       -0.02143850010419
C            0.73530799053506       -0.00740400414391       -0.02196161186397
C            1.46384844216749       -1.05971301186437       -0.57909087235439
F            0.80727251505485       -2.07051787935922       -1.16861734741786
C            2.84749310659091       -1.05605297146506       -0.58938573333457
F            3.49884282889728       -2.06645391498990       -1.18540259915217
C            3.58765625302181       -0.01122852195695       -0.01272012910688
N            4.97665131677779       -0.01516893053989       -0.00442371839081
C            5.66041717079666       -1.06166985095182        0.63256549403489
C            4.95858938665322       -2.03665554014961        1.33860088285568
C            5.60658280494812       -3.08861202780944        1.95364519263026
C            6.98909576610450       -3.19945765217538        1.90434315857945
C            7.75911596766928       -4.34918917476313        2.53428267976075
C            8.70537193380434       -3.79625172556100        3.61043163426115
C            8.57153278853442       -5.06292681310396        1.44348528682046
C            6.83574720693721       -5.37881642905631        3.19228550588595
C            7.67683576540400       -2.18011260932769        1.25764596548011
C            7.05500848860144       -1.10827316669013        0.63330805171355
C            7.90973393412840       -0.01307592003189        0.02655981391575
C            8.77309134791816        0.60332352043733        1.14332139819177
C            8.80279121512225       -0.62658253247106       -1.06819634865100
C            7.06612064623639        1.07917019857849       -0.60077042932082
C            7.70563829782078        2.15184673695010       -1.21292898996899
C            7.03074641379211        3.16654768578977       -1.87265210354104
C            7.73122850216373        4.35269659251645       -2.51603181511215
C            7.44286571863986        4.34793834593882       -4.02462857521031
C            7.19154730562143        5.64644528467885       -1.88813633887803
C            9.24986646809660        4.32350269725590       -2.31835376767286
C            5.64627866586137        3.05170657045930       -1.95076114642278
C            4.98382553392339        2.00406812166721       -1.35114369645148
C            5.67396460813800        1.03018852606420       -0.62823750878610
C            2.84667261449937        1.03691080279848        0.55684063401266
F            3.49674651724309        2.04609933925477        1.15624616068517
C            1.46317562805973        1.04404047404948        0.53780332687340
F            0.80559799276592        2.05650004438966        1.12352461808193
C           -1.46282696839339       -1.05927035622639        0.53837213657758
F           -0.80473246891100       -2.07160981887799        1.12360540874532
C           -2.84632369058175       -1.05268810861996        0.55770728523512
F           -3.49583918892944       -2.06223840788730        1.15712021263455
H           -6.08224822837278        5.76795081087808        2.05479353569864
H           -7.64266894168765        6.52884280109384        2.35534932986023
H           -7.35543256912928        5.66429498352572        0.84165865898557
H           -9.63671175837472        5.22449602375500        2.85113841474762
H           -9.48158556616478        4.35438505562123        1.32978968901082
H           -9.63659559622277        3.46586555506082        2.85864752227295
H           -7.71185809678306        3.44304349280677        4.51017975436603
H           -7.86581689276989        5.20267884361476        4.54272168746902
H           -6.29874980665486        4.45952424370224        4.23384648388103
H           -5.01457772592745        3.79830127179876        2.47619850524394
H           -3.88449457783358        1.95983462789212        1.43337940338382
H           -8.75713214125454        2.20108905736146        1.22496197920875
H           -9.43447818828458        1.39654053316658       -0.67206397128575
H           -9.43267126503181       -0.13649799620772       -1.53499660431509
H           -8.17355059333791        1.05551588694330       -1.85760586104123
H           -8.14259751683455       -1.05275945504690        1.89666100922943
H           -9.42521733684434       -1.38859247394777        0.73382581629963
H           -9.40423684001736        0.14364883656261        1.59829999254028
H           -8.77717166642580       -2.20089155197740       -1.18439566703109
H           -9.31174296200586       -4.58798419939862       -4.03645721675996
H           -8.21875634536999       -3.23057939609086       -4.32356871654079
H           -9.49817324486400       -3.09667189540234       -3.11851352820269
H           -6.19873484571848       -5.79116769950039       -2.46287159242846
H           -6.33729926243659       -4.90958540049406       -3.99437113465448
H           -7.50151623140390       -6.16454630680526       -3.58648166837374
H           -9.31681131889890       -4.37635522939777       -0.92585591900247
H           -9.14776603037656       -5.88674936863116       -1.81638715547914
H           -7.92633916767265       -5.41767391391359       -0.62976422481734
H           -5.05169297703044       -3.79596081701958       -2.48883755161949
H           -3.91135345415823       -1.96359418272997       -1.45845762942541
H            3.88399985099725       -1.97960683697890        1.42801254661679
H            5.00459816370178       -3.81401210125890        2.47467515556668
H            9.23572826738156       -4.61261004783678        4.09622833299170
H            9.44109698267504       -3.12046612552433        3.18371727955940
H            8.14027629275419       -3.25358229984290        4.36573424993622
H            9.10950481597930       -5.90690391366466        1.87008645491776
H            9.29558161784966       -4.39474781219574        0.98589829785966
H            7.90927812010592       -5.43377305971248        0.66357104224892
H            7.43288362999917       -6.18642123652330        3.61109792715542
H            6.26306687550996       -4.93104367402293        4.00136912858214
H            6.15003348489631       -5.80945757576541        2.46595788811960
H            8.75362455488619       -2.21838678447995        1.24066347426045
H            9.41894369284111        1.38167852584683        0.74799506070932
H            8.13253189718362        1.04216957989695        1.90628798687241
H            9.39799644596676       -0.15052972043894        1.61260031570019
H            9.44394130295491       -1.39997651270462       -0.65591827477828
H            9.43429647445201        0.12983008877252       -1.52439993507679
H            8.18304186246085       -1.07187237809969       -1.84450028751460
H            8.77995270941184        2.18383897861824       -1.16800167641613
H            6.37884203227891        4.43990297789137       -4.22458856127192
H            7.79540033605601        3.42096470235080       -4.47280943330226
H            7.95250363485715        5.18031053448585       -4.50542431311205
H            7.37230191533901        5.64807412250384       -0.81493120147696
H            7.68894503352084        6.51038098330611       -2.32406462770149
H            6.12253587259455        5.75101059984624       -2.05223830788089
H            9.50682024844078        4.33604744933225       -1.26159164762093
H            9.68985751362089        3.44581368573062       -2.78633785656401
H            9.69066456747701        5.20448068593482       -2.78070635931540
H            5.06134739445023        3.78134142673034       -2.48867751243308
H            3.91148303325058        1.94444159859699       -1.46308015180509

          :  Hamiltonian                  GFN2-xTB          :
         :: gradient norm              0.000139253122 Eh/a0 ::
         :: HOMO-LUMO gap              1.303695581734 eV    ::
         :: SCC energy              -201.473180031221 Eh    ::
         :: -> dispersion             -0.167628762376 Eh    ::
         :: -> Gsolv                  -0.063338356956 Eh    ::
         :: repulsion energy           2.781691363023 Eh    ::

    * Orbital Energies and Occupations

         #    Occupation            Energy/Eh            Energy/eV
      -------------------------------------------------------------
         1        2.0000           -0.8663046             -23.5733
       ...           ...                  ...                  ...
       167        2.0000           -0.4168840             -11.3440
       168        2.0000           -0.4091704             -11.1341
       169        2.0000           -0.4090590             -11.1311
       170        2.0000           -0.4086147             -11.1190
       171        2.0000           -0.4085351             -11.1168
       172        2.0000           -0.4022408             -10.9455
       173        2.0000           -0.4022332             -10.9453
       174        2.0000           -0.4005027             -10.8982
       175        2.0000           -0.4005007             -10.8982
       176        2.0000           -0.3963489             -10.7852
       177        2.0000           -0.3963323             -10.7847
       178        2.0000           -0.3607463              -9.8164
       179        2.0000           -0.3588505              -9.7648 (HOMO)
       180                         -0.3109406              -8.4611 (LUMO)
       181                         -0.2855390              -7.7699
       182                         -0.2850333              -7.7562
       183                         -0.2786553              -7.5826
       184                         -0.2295834              -6.2473
       185                         -0.2295769              -6.2471
       186                         -0.2241446              -6.0993
       187                         -0.2240671              -6.0972
       188                         -0.2233832              -6.0786
       189                         -0.2233788              -6.0784
       190                         -0.2014740              -5.4824
       ...                                ...                  ...
       332                          0.6657249              18.1153
      -------------------------------------------------------------
                  HL-Gap            0.0479100 Eh            1.3037 eV

     #   Z          covCN         q      C6AA      α(0)
     1   6 C        3.762    -0.106    22.574     6.773
     2   6 C        3.902     0.026    20.079     6.370
     3   6 C        3.761    -0.109    22.630     6.781
     4   6 C        3.761    -0.106    22.576     6.773
     5   6 C        2.971     0.003    27.947     8.671
     6   6 C        2.928    -0.037    28.919     8.819
     7   6 C        2.922    -0.055    29.370     8.887
     8   6 C        2.926     0.052    26.839     8.496
     9   6 C        2.979    -0.008    28.208     8.712
    10   6 C        2.936    -0.046    29.146     8.854
    11   6 C        3.910     0.022    20.145     6.380
    12   6 C        3.761    -0.106    22.581     6.774
    13   6 C        3.761    -0.106    22.577     6.773
    14   6 C        2.979    -0.007    28.199     8.711
    15   6 C        2.938    -0.042    29.038     8.838
    16   6 C        2.971     0.003    27.949     8.672
    17   6 C        3.902     0.026    20.081     6.370
    18   6 C        3.761    -0.106    22.578     6.774
    19   6 C        3.761    -0.108    22.616     6.779
    20   6 C        3.761    -0.106    22.580     6.774
    21   6 C        2.926    -0.041    29.024     8.835
    22   6 C        2.922    -0.056    29.381     8.889
    23   6 C        2.927     0.052    26.839     8.496
    24   7 N        2.749    -0.040    22.006     6.967
    25   6 C        2.921     0.046    26.979     8.518
    26   6 C        2.781     0.137    25.000     8.190
    27   9 F        0.787    -0.182    11.055     3.927
    28   6 C        2.781     0.150    24.738     8.147
    29   9 F        0.787    -0.188    11.117     3.939
    30   6 C        2.973    -0.012    28.309     8.728
    31   6 C        2.973    -0.012    28.309     8.727
    32   6 C        2.781     0.150    24.737     8.146
    33   9 F        0.787    -0.188    11.116     3.938
    34   6 C        2.781     0.137    24.999     8.189
    35   9 F        0.787    -0.182    11.055     3.927
    36   6 C        2.921     0.046    26.979     8.518
    37   7 N        2.749    -0.040    22.006     6.967
    38   6 C        2.927     0.052    26.839     8.496
    39   6 C        2.922    -0.056    29.383     8.889
    40   6 C        2.926    -0.041    29.024     8.835
    41   6 C        2.971     0.003    27.949     8.672
    42   6 C        3.902     0.026    20.081     6.370
    43   6 C        3.761    -0.106    22.578     6.774
    44   6 C        3.761    -0.106    22.580     6.774
    45   6 C        3.761    -0.108    22.616     6.779
    46   6 C        2.938    -0.042    29.038     8.838
    47   6 C        2.979    -0.007    28.199     8.711
    48   6 C        3.910     0.022    20.145     6.380
    49   6 C        3.761    -0.106    22.580     6.774
    50   6 C        3.761    -0.106    22.578     6.774
    51   6 C        2.979    -0.008    28.208     8.712
    52   6 C        2.936    -0.046    29.146     8.854
    53   6 C        2.971     0.003    27.947     8.671
    54   6 C        3.902     0.026    20.079     6.370
    55   6 C        3.761    -0.106    22.576     6.773
    56   6 C        3.762    -0.106    22.574     6.773
    57   6 C        3.761    -0.109    22.630     6.781
    58   6 C        2.928    -0.037    28.919     8.819
    59   6 C        2.922    -0.055    29.368     8.887
    60   6 C        2.926     0.052    26.839     8.496
    61   6 C        2.781     0.137    25.000     8.190
    62   9 F        0.787    -0.182    11.055     3.927
    63   6 C        2.781     0.150    24.739     8.147
    64   9 F        0.787    -0.189    11.118     3.939
    65   6 C        2.781     0.150    24.738     8.147
    66   9 F        0.787    -0.188    11.116     3.938
    67   6 C        2.781     0.137    24.999     8.189
    68   9 F        0.787    -0.182    11.055     3.927
    69   1 H        0.925     0.036     2.508     2.476
    70   1 H        0.925     0.040     2.446     2.446
    71   1 H        0.925     0.034     2.527     2.486
    72   1 H        0.925     0.039     2.459     2.452
    73   1 H        0.925     0.038     2.472     2.458
    74   1 H        0.925     0.038     2.473     2.459
    75   1 H        0.925     0.034     2.524     2.484
    76   1 H        0.925     0.040     2.442     2.444
    77   1 H        0.925     0.036     2.507     2.476
    78   1 H        0.926     0.035     2.520     2.482
    79   1 H        0.926     0.016     2.800     2.617
    80   1 H        0.926     0.055     2.262     2.352
    81   1 H        0.925     0.048     2.345     2.395
    82   1 H        0.925     0.047     2.360     2.402
    83   1 H        0.925     0.033     2.544     2.494
    84   1 H        0.925     0.033     2.544     2.494
    85   1 H        0.925     0.047     2.359     2.402
    86   1 H        0.925     0.048     2.351     2.398
    87   1 H        0.926     0.048     2.351     2.398
    88   1 H        0.925     0.040     2.443     2.444
    89   1 H        0.925     0.034     2.535     2.490
    90   1 H        0.925     0.039     2.465     2.455
    91   1 H        0.925     0.036     2.508     2.477
    92   1 H        0.925     0.036     2.508     2.476
    93   1 H        0.925     0.039     2.462     2.454
    94   1 H        0.925     0.039     2.462     2.454
    95   1 H        0.925     0.040     2.445     2.445
    96   1 H        0.925     0.034     2.536     2.490
    97   1 H        0.926     0.042     2.428     2.437
    98   1 H        0.926     0.016     2.800     2.617
    99   1 H        0.926     0.016     2.800     2.617
   100   1 H        0.926     0.042     2.428     2.437
   101   1 H        0.925     0.040     2.443     2.444
   102   1 H        0.925     0.039     2.465     2.455
   103   1 H        0.925     0.034     2.535     2.490
   104   1 H        0.925     0.040     2.445     2.445
   105   1 H        0.925     0.039     2.462     2.454
   106   1 H        0.925     0.034     2.536     2.490
   107   1 H        0.925     0.039     2.462     2.454
   108   1 H        0.925     0.036     2.508     2.477
   109   1 H        0.925     0.036     2.508     2.477
   110   1 H        0.926     0.048     2.351     2.398
   111   1 H        0.925     0.048     2.345     2.395
   112   1 H        0.925     0.033     2.545     2.495
   113   1 H        0.925     0.047     2.360     2.403
   114   1 H        0.925     0.047     2.359     2.402
   115   1 H        0.925     0.048     2.350     2.397
   116   1 H        0.925     0.033     2.544     2.494
   117   1 H        0.926     0.055     2.262     2.352
   118   1 H        0.925     0.036     2.507     2.476
   119   1 H        0.925     0.034     2.523     2.484
   120   1 H        0.925     0.041     2.442     2.444
   121   1 H        0.925     0.034     2.527     2.486
   122   1 H        0.925     0.040     2.446     2.446
   123   1 H        0.925     0.036     2.508     2.476
   124   1 H        0.925     0.038     2.472     2.459
   125   1 H        0.925     0.038     2.473     2.459
   126   1 H        0.925     0.039     2.459     2.452
   127   1 H        0.926     0.035     2.520     2.482
   128   1 H        0.926     0.016     2.801     2.617

molecular dipole:
                 x           y           z       tot (Debye)
 q only:       -0.001       0.021       0.031
   full:       -0.001       0.030       0.026       0.102

 projected vibrational frequencies (cm⁻¹)
eigval :       -0.00    -0.00     0.00     0.00     0.00     0.00
eigval :        6.12     7.26     8.01    13.94    15.23    24.29
eigval :       25.77    26.48    26.68    32.37    34.48    35.64
eigval :       43.89    49.98    52.54    54.64    65.66    77.69
eigval :       87.51    87.60    89.91   100.27   104.05   113.35
eigval :      113.66   115.89   121.44   127.42   129.78   131.29
eigval :      139.82   141.02   153.83   154.00   163.64   163.91
eigval :      169.79   172.23   173.59   175.14   176.78   188.71
eigval :      189.48   204.45   205.97   206.27   206.65   215.10
eigval :      217.39   222.60   224.78   226.05   232.06   233.32
eigval :      243.79   244.23   255.45   256.69   257.37   266.42
eigval :      274.41   274.46   276.84   277.28   293.80   296.12
eigval :      308.70   309.57   311.47   311.63   313.08   313.66
eigval :      334.84   335.58   340.21   340.44   341.06   341.67
eigval :      348.55   349.99   350.57   356.64   356.97   365.65
eigval :      370.80   372.98   387.69   398.59   398.67   409.58
eigval :      410.32   411.94   418.70   420.14   420.95   423.18
eigval :      430.21   435.69   442.52   444.28   444.79   460.33
eigval :      460.80   461.41   462.79   476.47   481.80   482.43
eigval :      483.64   496.44   497.99   498.61   523.30   536.25
eigval :      571.04   571.23   576.08   576.59   582.05   583.52
eigval :      585.34   585.51   595.87   612.11   612.21   619.13
eigval :      631.77   631.83   641.01   644.43   669.19   671.24
eigval :      683.96   689.59   689.76   692.19   696.32   696.90
eigval :      697.32   713.44   738.54   742.51   767.24   817.18
eigval :      822.11   822.57   825.58   827.94   828.42   848.65
eigval :      848.74   885.38   885.75   892.55   893.22   896.60
eigval :      900.35   904.61   906.54   913.34   913.77   919.58
eigval :      919.99   931.20   936.03   947.99   951.00   951.57
eigval :      957.71   957.96   958.19   958.54   958.61   958.64
eigval :      960.20   961.16   961.56   961.81   962.20   962.22
eigval :      962.36   963.47   963.82   966.52  1013.11  1013.19
eigval :     1033.20  1033.30  1033.33  1033.81  1034.40  1034.65
eigval :     1035.47  1036.04  1042.09  1071.40  1078.99  1086.62
eigval :     1094.50  1094.66  1104.02  1147.47  1152.91  1152.93
eigval :     1158.87  1158.96  1163.21  1163.39  1180.80  1180.83
eigval :     1181.29  1203.26  1208.39  1217.07  1225.01  1225.15
eigval :     1225.42  1225.48  1228.87  1230.50  1233.66  1233.75
eigval :     1235.62  1238.38  1258.10  1259.07  1259.75  1260.76
eigval :     1264.15  1264.17  1280.44  1280.62  1288.37  1288.65
eigval :     1302.62  1303.23  1305.66  1306.12  1321.62  1321.90
eigval :     1328.01  1328.17  1340.78  1340.83  1367.29  1397.51
eigval :     1397.99  1399.54  1399.56  1399.66  1399.78  1402.00
eigval :     1402.06  1402.44  1402.46  1410.75  1411.41  1414.78
eigval :     1414.93  1418.47  1418.58  1425.41  1425.63  1426.48
eigval :     1426.56  1439.86  1441.57  1446.59  1449.59  1472.48
eigval :     1479.91  1479.95  1483.03  1483.13  1484.56  1484.59
eigval :     1487.67  1487.67  1487.83  1488.13  1490.47  1490.59
eigval :     1490.70  1491.28  1491.58  1491.73  1493.35  1493.37
eigval :     1498.61  1498.63  1499.13  1499.22  1500.36  1500.45
eigval :     1501.78  1501.83  1504.14  1504.59  1506.94  1510.62
eigval :     1510.68  1510.81  1511.23  1515.64  1515.67  1516.86
eigval :     1516.93  1519.47  1547.37  1560.16  1567.51  1567.54
eigval :     1582.22  1582.24  1596.97  1596.98  1602.85  1602.86
eigval :     3019.64  3020.02  3020.63  3020.74  3021.61  3021.67
eigval :     3022.23  3022.31  3024.52  3024.62  3024.64  3024.69
eigval :     3024.73  3024.80  3026.26  3026.35  3026.78  3026.86
eigval :     3027.25  3027.34  3028.20  3028.43  3028.96  3028.97
eigval :     3031.45  3031.46  3031.62  3032.09  3036.25  3036.58
eigval :     3036.64  3036.79  3044.31  3044.37  3045.24  3045.36
eigval :     3046.41  3046.61  3047.58  3047.62  3047.88  3047.88
eigval :     3049.71  3049.92  3054.31  3054.38  3058.85  3058.91
eigval :     3077.97  3078.50  3079.32  3080.23  3096.13  3096.42
eigval :     3105.65  3105.79  3119.04  3119.09  3133.25  3133.34

   temp. (K)  partition function   enthalpy   heat capacity  entropy
                                   cal/mol     cal/K/mol   cal/K/mol   J/K/mol
 298.15  VIB  0.630E+33            41583.059    246.307    260.423
         ROT  0.315E+09              888.752      2.981     41.867
         INT  0.198E+42            42471.812    249.288    302.289
         TR   0.278E+29             1481.254      4.968     46.367
         TOT                       43953.0657   254.2561   348.6562  1458.7776

       T/K    H(0)-H(T)+PV         H(T)/Eh          T*S/Eh         G(T)/Eh
   ------------------------------------------------------------------------
    298.15    0.700437E-01    0.109338E+01    0.165658E+00    0.927722E+00
   ------------------------------------------------------------------------

         :::::::::::::::::::::::::::::::::::::::::::::::::::::
         ::                  THERMODYNAMIC                  ::
         :::::::::::::::::::::::::::::::::::::::::::::::::::::
         :: total free energy        -197.763766335515 Eh   ::
         ::.................................................::
         :: total energy             -198.691488667904 Eh   ::
         :: zero point energy           1.023336478829 Eh   ::
         :: G(RRHO) w/o ZPVE           -0.095614146440 Eh   ::
         :: G(RRHO) contrib.            0.927722332389 Eh   ::
         :::::::::::::::::::::::::::::::::::::::::::::::::::::

           -------------------------------------------------
          | TOTAL ENERGY             -198.691488667904 Eh   |
          | TOTAL ENTHALPY           -197.598108520333 Eh   |
          | TOTAL FREE ENERGY        -197.763766335515 Eh   |
          | GRADIENT NORM               0.000139268030 Eh/α |
          | HOMO-LUMO GAP               1.303697169098 eV   |
           -------------------------------------------------

 * finished run on 2025/09/04 at 08:27:00.512
