   * xtb version 6.7.1 (edcfbbe) compiled by 'albert@albert-system' on 2024-07-22

   ID    Z sym.   atoms
    1    6 C      1-23, 25, 26, 28, 30-32, 34, 36, 38-61, 63, 65, 67
    2    7 N      24, 37
    3    9 F      27, 29, 33, 35, 62, 64, 66, 68
    4    1 H      69-128

          program call               : xtb data2507/toluene/PFBP-2b/PFBP-2b.xyz --gfn 2 --gbsa toluene --ohess vtight --parallel 40 --molden --ceasefiles --namespace data2507/toluene/PFBP-2b/PFBP-2b_toluene_S0_preOpt
      * Solvation model:               GBSA
        Solvent                        toluene
        Solvent mass                       9.2140E+01 g/mol
          :  Hamiltonian                  GFN2-xTB          :
 * total energy  :  -198.6560336 Eh     change       -0.2588934E-08 Eh
 * total energy  :  -198.6731660 Eh     change       -0.1713243E-01 Eh
 * total energy  :  -198.6800943 Eh     change       -0.6928288E-02 Eh
 * total energy  :  -198.6827353 Eh     change       -0.2641006E-02 Eh
 * total energy  :  -198.6842005 Eh     change       -0.1465158E-02 Eh
 * total energy  :  -198.6847503 Eh     change       -0.5498617E-03 Eh
 * total energy  :  -198.6850111 Eh     change       -0.2607639E-03 Eh
 * total energy  :  -198.6852527 Eh     change       -0.2415977E-03 Eh
 * total energy  :  -198.6854839 Eh     change       -0.2312179E-03 Eh
 * total energy  :  -198.6856354 Eh     change       -0.1514788E-03 Eh
 * total energy  :  -198.6907448 Eh     change       -0.6979798E-06 Eh
 * total energy  :  -198.6907455 Eh     change       -0.6966373E-06 Eh
 * total energy  :  -198.6907462 Eh     change       -0.6928383E-06 Eh
 * total energy  :  -198.6907469 Eh     change       -0.6914710E-06 Eh
 * total energy  :  -198.6907476 Eh     change       -0.6902106E-06 Eh
 * total energy  :  -198.6907483 Eh     change       -0.6860310E-06 Eh
 * total energy  :  -198.6907490 Eh     change       -0.6848336E-06 Eh
 * total energy  :  -198.6907496 Eh     change       -0.6835140E-06 Eh
 * total energy  :  -198.6907496 Eh     change       -0.6718864E-08 Eh
   *** GEOMETRY OPTIMIZATION CONVERGED AFTER 500 ITERATIONS ***

 final structure:
================
128
 xtb: 6.7.1 (edcfbbe)
C           -8.63032035776685       -2.37736568287298        4.67403288206612
C           -7.77609945511130       -3.29026991412815        3.78185154156476
C           -8.68352558205066       -4.25805662782179        3.00741650209090
C           -6.85705795732100       -4.11693213350788        4.68624744649067
C           -6.99996884861943       -2.43511185239347        2.79252240640663
C           -5.61470680001447       -2.43395970414066        2.70698669539527
C           -4.96276436774923       -1.63250811962100        1.79165506907031
C           -5.66524150925298       -0.78804974081930        0.93460794300514
C           -7.06000929947254       -0.80275804718261        0.96892207005954
C           -7.68508615976248       -1.61833507555058        1.90112000258059
C           -7.90943934595264        0.00561602225310        0.00733136679360
C           -8.78661319884270        0.97563382491150        0.82089802569339
C           -8.78864539546161       -0.96361502202458       -0.80497852182735
C           -7.06067896916294        0.81323938847157       -0.95547579160984
C           -7.68634255052946        1.62942352407040       -1.88674729883848
C           -7.00174331617110        2.44555631318560       -2.77913753507449
C           -7.77850174935949        3.30137160383216       -3.76740421723508
C           -8.63488605487914        2.38921021115195       -4.65827182169029
C           -8.68388456162414        4.27007402181310       -2.99172419635313
C           -6.85998833669600        4.12707273154436       -4.67321227416268
C           -5.61636138941240        2.44316833366270       -2.69555776828166
C           -4.96384553519605        1.64109073639649       -1.78118344637675
C           -5.66588014630739        0.79720454691804       -0.92320728808279
N           -4.97917005488170        0.00420567545789        0.00514364700484
C           -3.58654241766774        0.00320255798785        0.00375588060526
C           -2.84784348858140        0.50133216568866        1.08670812628352
F           -3.50172530962386        1.01347401159270        2.13907697462946
C           -1.46362007647963        0.50279221368777        1.08275862079426
F           -0.81184590487714        1.05275063736374        2.11751822128047
C           -0.73478314680754        0.00101310307844        0.00089625242257
C            0.73478102073210       -0.00019621625061       -0.00052490101615
C            1.46447236033491        0.50016127620986       -1.08247227835613
F            0.81362877366278        1.05091830239591       -2.11739198254337
C            2.84869068728001        0.49648234178517       -1.08635141820238
F            3.50345025066704        1.00732972976180       -2.13880260177361
C            3.58653938695948       -0.00256015535110       -0.00323915584449
N            4.97916775239894       -0.00368206843332       -0.00456451823884
C            5.66403148153006       -0.79704319829348       -0.93397135982040
C            4.96028356797310       -1.64091717246609       -1.79055402488255
C            5.61099976871470       -2.44340308256331       -2.70585203838586
C            6.99623441079545       -2.44622263671477       -2.79180960181171
C            7.77104841009622       -3.30257154262987       -3.78114076929895
C            6.85074850923020       -4.12825383943799       -4.68515220067682
C            8.67742070416682       -4.27133758879605       -3.00669666274332
C            8.62623112637858       -2.39095980209253       -4.67372138370050
C            7.68259636401124       -1.63003006262068       -1.90082979797733
C            7.05876891996240       -0.81344161512385       -0.96868109982928
C            7.90943548380589       -0.00578509795812       -0.00758277598194
C            8.78782527470786       -0.97579924919803        0.80467473522214
C            8.78742778690348        0.96303574586920       -0.82169261444238
C            7.06191286164389        0.80303873413728        0.95530843114123
C            7.68882817052087        1.61869776740437        1.88619872520804
C            7.00547404200261        2.43581418164100        2.77864291248084
C            7.78355613929362        3.29098559964055        3.76642532040968
C            8.68959668303467        4.25860606950358        2.99016255432152
C            6.86629736201207        4.11779574153045        4.67249352643669
C            8.63939140865664        2.37810168956467        4.65707960733290
C            5.62006280439286        2.43499495652667        2.69554062317663
C            4.96631940150110        1.63350185825482        1.78152970187745
C            5.66708434095142        0.78865125327631        0.92346686301298
C            2.84992751125595       -0.50039690920962        1.08126958796473
F            3.50583431120358       -1.01234057202079        2.13247322279504
C            1.46570042561509       -0.50176594468282        1.08003084397306
F            0.81591661021676       -1.05148173380736        2.11617045891507
C           -1.46655785718579       -0.49961127465626       -1.07952086879026
F           -0.81770503732163       -1.05057037669404       -2.11558317525984
C           -2.85077970945677       -0.49601992360881       -1.08069358304367
F           -3.50756279746983       -1.00712260208678       -2.13175863720333
H           -9.17256837421614       -2.97187911146865        5.40632448541376
H           -9.35386586299687       -1.81515001942034        4.09058609593717
H           -7.99617091854143       -1.66982533149044        5.20461634918940
H           -9.21691307393328       -4.90529882211030        3.70042117016281
H           -9.41659912693009       -3.72338078725108        2.41007777900375
H           -8.08895869762156       -4.88039590012810        2.34141248314927
H           -6.25604604329520       -4.81196542585236        4.10414228549780
H           -7.45952507632775       -4.69682484641118        5.38265658929908
H           -6.19810658841849       -3.47454798114638        5.26612536642172
H           -5.01399419040913       -3.06129963923473        3.34401486104643
H           -3.88510228270113       -1.68372188323283        1.74309670772581
H           -8.76242186895215       -1.61954877218344        1.92855048116608
H           -9.41812301317033        0.43309165260776        1.51821023482460
H           -9.42722273426532        1.56195686920928        0.16911013536779
H           -8.15587596577261        1.65769684013405        1.38822133603095
H           -8.15934387619044       -1.64615006035524       -1.37333046849165
H           -9.42076943033419       -0.42048788559264       -1.50127910591240
H           -9.42874308289380       -1.54946898836747       -0.15226682314076
H           -8.76371463197365        1.63163870540023       -1.91262942762591
H           -9.17767917237922        2.98419027931369       -5.38978072896645
H           -9.35807899690531        1.82768752733988       -4.07372394642737
H           -8.00218037737045        1.68106367656918       -5.18977001131443
H           -8.08776694261388        4.89185797033715       -2.32658988915026
H           -9.41663120211572        3.73613504697097       -2.39332386722631
H           -9.21762228160806        4.91780650394363       -3.68399931010691
H           -6.20242740119625        3.48400273359151       -5.25390892349655
H           -7.46290625530168        4.70739684957769       -5.36887221625773
H           -6.25753457987808        4.82165486444945       -4.09206053541536
H           -5.01599469006535        3.06999865233433       -3.33341457963135
H           -3.88606681207248        1.69131142456514       -1.73412161903654
H            3.88257274158878       -1.69082825655566       -1.74164892125351
H            5.00935705486892       -3.07021211109401       -3.34252363433525
H            6.19244560404255       -3.48515671641576       -5.26497832245707
H            7.45231751318685       -4.70901982000454       -5.38160956557707
H            6.24902462955198       -4.82243646588827       -4.10276939974525
H            9.41127942393318       -3.73745809392175       -2.40960747139099
H            9.20985960641894       -4.91938387836521       -3.69967870267064
H            8.08220548568781       -4.89279726639390       -2.34045293929255
H            9.16756341606814       -2.98633408821814       -5.40599262959741
H            7.99286558160976       -1.68273923843090       -5.20433301554115
H            9.35062127539273       -1.82952840993825       -4.09056843644187
H            8.75992165295042       -1.63253999346761       -1.92857944449834
H            8.15794369802741       -1.65749676397569        1.37338794107160
H            9.42706115927443       -1.56251916683079        0.15189694133190
H            9.42077860930100       -0.43321352864799        1.50064384365325
H            8.15727576295644        1.64574374247213       -1.38889094214676
H            9.41800387921456        0.41960847319493       -1.51916132741722
H            9.42900214874655        1.54871624930326       -0.17027585415502
H            8.76621068378155        1.61968572938546        1.91171186563501
H            9.22434138404232        4.90589231242204        3.68207805295847
H            8.09382606510290        4.88090887953032        2.32520142932621
H            9.42149455512058        3.72379038798347        2.39150575788355
H            6.20829564904156        3.47550321468306        5.25355102058297
H            7.47011880824658        4.69758029815889        5.36782008768265
H            6.26433782294230        4.81293416895661        4.09149509422126
H            8.00619478465677        1.67065963790927        5.18892998192806
H            9.36179964738157        1.81578093923612        4.07232915255389
H            9.18306434484933        2.97264703686823        5.38828803627580
H            5.02062661032529        3.06262561891862        3.33348681339475
H            3.88858752682872        1.68497068178703        1.73482250019691

          :  Hamiltonian                  GFN2-xTB          :
         :: gradient norm              0.000066680122 Eh/a0 ::
         :: HOMO-LUMO gap              1.151046280441 eV    ::
         :: SCC energy              -201.472483578125 Eh    ::
         :: -> dispersion             -0.167615591669 Eh    ::
         :: -> Gsolv                  -0.062885691429 Eh    ::
         :: repulsion energy           2.781733935722 Eh    ::

    * Orbital Energies and Occupations

         #    Occupation            Energy/Eh            Energy/eV
      -------------------------------------------------------------
         1        2.0000           -0.8676419             -23.6097
       ...           ...                  ...                  ...
       167        2.0000           -0.4156840             -11.3113
       168        2.0000           -0.4095953             -11.1457
       169        2.0000           -0.4093994             -11.1403
       170        2.0000           -0.4082902             -11.1101
       171        2.0000           -0.4082700             -11.1096
       172        2.0000           -0.4024063             -10.9500
       173        2.0000           -0.4024049             -10.9500
       174        2.0000           -0.3999925             -10.8843
       175        2.0000           -0.3999924             -10.8843
       176        2.0000           -0.3960938             -10.7783
       177        2.0000           -0.3960878             -10.7781
       178        2.0000           -0.3596693              -9.7871
       179        2.0000           -0.3579685              -9.7408 (HOMO)
       180                         -0.3156683              -8.5898 (LUMO)
       181                         -0.2871681              -7.8142
       182                         -0.2868612              -7.8059
       183                         -0.2780449              -7.5660
       184                         -0.2289888              -6.2311
       185                         -0.2289886              -6.2311
       186                         -0.2240786              -6.0975
       187                         -0.2239778              -6.0947
       188                         -0.2232138              -6.0740
       189                         -0.2232137              -6.0740
       190                         -0.2005383              -5.4569
       ...                                ...                  ...
       332                          0.6635276              18.0555
      -------------------------------------------------------------
                  HL-Gap            0.0423002 Eh            1.1510 eV

     #   Z          covCN         q      C6AA      α(0)
     1   6 C        3.761    -0.106    22.577     6.773
     2   6 C        3.902     0.026    20.082     6.370
     3   6 C        3.761    -0.106    22.576     6.773
     4   6 C        3.761    -0.108    22.614     6.779
     5   6 C        2.971     0.002    27.967     8.675
     6   6 C        2.926    -0.041    29.027     8.835
     7   6 C        2.922    -0.057    29.420     8.895
     8   6 C        2.927     0.052    26.825     8.494
     9   6 C        2.979    -0.008    28.213     8.713
    10   6 C        2.938    -0.042    29.035     8.837
    11   6 C        3.909     0.022    20.145     6.379
    12   6 C        3.761    -0.106    22.565     6.772
    13   6 C        3.761    -0.106    22.565     6.772
    14   6 C        2.979    -0.008    28.213     8.713
    15   6 C        2.938    -0.042    29.035     8.837
    16   6 C        2.971     0.002    27.967     8.675
    17   6 C        3.902     0.026    20.082     6.370
    18   6 C        3.761    -0.106    22.577     6.773
    19   6 C        3.761    -0.106    22.576     6.773
    20   6 C        3.761    -0.108    22.614     6.779
    21   6 C        2.926    -0.041    29.027     8.835
    22   6 C        2.922    -0.057    29.420     8.895
    23   6 C        2.927     0.052    26.825     8.494
    24   7 N        2.750    -0.043    22.079     6.979
    25   6 C        2.922     0.047    26.943     8.512
    26   6 C        2.781     0.139    24.961     8.183
    27   9 F        0.787    -0.180    11.034     3.924
    28   6 C        2.781     0.150    24.722     8.144
    29   9 F        0.787    -0.185    11.086     3.933
    30   6 C        2.972    -0.011    28.275     8.722
    31   6 C        2.972    -0.011    28.275     8.722
    32   6 C        2.781     0.150    24.722     8.144
    33   9 F        0.787    -0.185    11.086     3.933
    34   6 C        2.781     0.139    24.961     8.183
    35   9 F        0.787    -0.180    11.034     3.924
    36   6 C        2.922     0.047    26.943     8.512
    37   7 N        2.750    -0.043    22.079     6.979
    38   6 C        2.927     0.052    26.825     8.494
    39   6 C        2.922    -0.057    29.420     8.895
    40   6 C        2.926    -0.041    29.027     8.835
    41   6 C        2.971     0.002    27.967     8.675
    42   6 C        3.902     0.026    20.082     6.370
    43   6 C        3.761    -0.108    22.614     6.779
    44   6 C        3.761    -0.106    22.576     6.773
    45   6 C        3.761    -0.106    22.577     6.773
    46   6 C        2.938    -0.042    29.035     8.837
    47   6 C        2.979    -0.008    28.213     8.713
    48   6 C        3.909     0.022    20.145     6.379
    49   6 C        3.761    -0.106    22.565     6.772
    50   6 C        3.761    -0.106    22.565     6.772
    51   6 C        2.979    -0.008    28.213     8.713
    52   6 C        2.938    -0.042    29.035     8.837
    53   6 C        2.971     0.002    27.967     8.675
    54   6 C        3.902     0.026    20.082     6.370
    55   6 C        3.761    -0.106    22.576     6.773
    56   6 C        3.761    -0.108    22.614     6.779
    57   6 C        3.761    -0.106    22.577     6.773
    58   6 C        2.926    -0.041    29.027     8.835
    59   6 C        2.922    -0.057    29.420     8.895
    60   6 C        2.927     0.052    26.825     8.494
    61   6 C        2.781     0.139    24.961     8.183
    62   9 F        0.787    -0.180    11.034     3.924
    63   6 C        2.781     0.150    24.722     8.144
    64   9 F        0.787    -0.185    11.086     3.933
    65   6 C        2.781     0.150    24.722     8.144
    66   9 F        0.787    -0.185    11.086     3.933
    67   6 C        2.781     0.139    24.961     8.183
    68   9 F        0.787    -0.180    11.034     3.924
    69   1 H        0.925     0.040     2.447     2.446
    70   1 H        0.925     0.039     2.467     2.456
    71   1 H        0.925     0.034     2.536     2.490
    72   1 H        0.925     0.040     2.445     2.445
    73   1 H        0.925     0.039     2.467     2.456
    74   1 H        0.925     0.033     2.539     2.492
    75   1 H        0.925     0.036     2.509     2.477
    76   1 H        0.925     0.039     2.464     2.455
    77   1 H        0.925     0.036     2.508     2.477
    78   1 H        0.926     0.041     2.433     2.439
    79   1 H        0.926     0.014     2.823     2.628
    80   1 H        0.926     0.047     2.361     2.403
    81   1 H        0.925     0.046     2.367     2.406
    82   1 H        0.925     0.046     2.366     2.406
    83   1 H        0.925     0.033     2.541     2.493
    84   1 H        0.925     0.033     2.541     2.493
    85   1 H        0.925     0.046     2.367     2.406
    86   1 H        0.925     0.046     2.366     2.406
    87   1 H        0.926     0.047     2.361     2.403
    88   1 H        0.925     0.040     2.447     2.446
    89   1 H        0.925     0.039     2.467     2.456
    90   1 H        0.925     0.034     2.536     2.490
    91   1 H        0.925     0.033     2.539     2.492
    92   1 H        0.925     0.039     2.467     2.456
    93   1 H        0.925     0.040     2.445     2.445
    94   1 H        0.925     0.036     2.508     2.477
    95   1 H        0.925     0.039     2.464     2.455
    96   1 H        0.925     0.036     2.509     2.477
    97   1 H        0.926     0.041     2.433     2.439
    98   1 H        0.926     0.014     2.823     2.628
    99   1 H        0.926     0.014     2.823     2.628
   100   1 H        0.926     0.041     2.433     2.439
   101   1 H        0.925     0.036     2.508     2.477
   102   1 H        0.925     0.039     2.464     2.455
   103   1 H        0.925     0.036     2.509     2.477
   104   1 H        0.925     0.039     2.467     2.456
   105   1 H        0.925     0.040     2.445     2.445
   106   1 H        0.925     0.033     2.539     2.492
   107   1 H        0.925     0.040     2.447     2.446
   108   1 H        0.925     0.034     2.536     2.490
   109   1 H        0.925     0.039     2.467     2.456
   110   1 H        0.926     0.047     2.361     2.403
   111   1 H        0.925     0.033     2.541     2.493
   112   1 H        0.925     0.046     2.366     2.406
   113   1 H        0.925     0.046     2.367     2.406
   114   1 H        0.925     0.033     2.541     2.493
   115   1 H        0.925     0.046     2.367     2.406
   116   1 H        0.925     0.046     2.366     2.406
   117   1 H        0.926     0.047     2.361     2.403
   118   1 H        0.925     0.040     2.445     2.445
   119   1 H        0.925     0.033     2.539     2.492
   120   1 H        0.925     0.039     2.467     2.456
   121   1 H        0.925     0.036     2.508     2.477
   122   1 H        0.925     0.039     2.464     2.455
   123   1 H        0.925     0.036     2.509     2.477
   124   1 H        0.925     0.034     2.536     2.490
   125   1 H        0.925     0.039     2.467     2.456
   126   1 H        0.925     0.040     2.447     2.446
   127   1 H        0.926     0.041     2.433     2.439
   128   1 H        0.926     0.014     2.823     2.628

molecular dipole:
                 x           y           z       tot (Debye)
 q only:       -0.000      -0.000      -0.000
   full:       -0.000      -0.000      -0.000       0.001

 projected vibrational frequencies (cm⁻¹)
eigval :       -0.00    -0.00     0.00     0.00     0.00     0.00
eigval :        7.99     8.07     8.14    14.33    16.72    19.49
eigval :       25.97    26.97    28.98    30.63    35.35    35.85
eigval :       46.49    50.41    53.52    57.15    66.61    74.42
eigval :       83.99    85.61    85.93   102.80   106.86   110.00
eigval :      111.41   113.50   118.77   123.35   125.64   130.27
eigval :      131.70   135.04   154.78   156.22   165.39   165.74
eigval :      168.75   169.49   172.92   177.39   177.56   183.59
eigval :      183.85   203.43   203.59   203.95   207.01   219.34
eigval :      221.39   221.50   222.32   228.18   233.46   233.94
eigval :      249.30   251.02   255.38   260.61   262.38   267.32
eigval :      272.97   275.29   276.90   277.36   296.86   296.96
eigval :      306.61   308.18   314.31   314.54   315.30   315.83
eigval :      325.71   327.79   343.32   343.77   343.79   344.31
eigval :      347.55   354.09   354.25   354.60   354.64   365.28
eigval :      367.35   369.29   387.33   397.74   400.84   406.66
eigval :      408.58   408.77   419.07   420.04   420.94   423.64
eigval :      431.51   438.41   442.88   443.01   445.10   457.70
eigval :      458.78   462.93   463.79   476.02   482.43   482.66
eigval :      483.10   494.45   495.12   497.28   521.33   535.94
eigval :      570.52   570.71   577.89   578.04   582.61   584.01
eigval :      585.88   586.04   596.21   611.47   611.58   623.40
eigval :      631.33   631.37   644.89   647.96   668.53   670.32
eigval :      684.00   689.19   689.37   692.31   696.42   696.72
eigval :      697.22   710.34   738.71   743.87   767.42   817.25
eigval :      821.23   821.41   821.49   822.16   826.21   849.13
eigval :      849.21   892.16   892.92   894.32   894.34   897.98
eigval :      900.96   904.32   906.40   915.02   915.04   915.58
eigval :      915.63   931.39   936.87   946.07   951.03   951.57
eigval :      958.48   958.51   959.18   959.19   959.26   959.28
eigval :      961.09   961.26   961.67   961.83   962.44   962.56
eigval :      962.57   962.81   962.91   966.98  1013.40  1013.40
eigval :     1033.80  1033.83  1033.84  1033.85  1035.22  1035.78
eigval :     1035.80  1036.23  1042.81  1072.40  1081.08  1089.65
eigval :     1095.74  1095.95  1104.40  1146.98  1154.19  1154.21
eigval :     1159.26  1159.27  1163.06  1163.13  1181.08  1181.09
eigval :     1181.62  1205.31  1211.89  1220.11  1225.70  1225.70
eigval :     1225.72  1225.72  1232.56  1233.63  1233.64  1233.86
eigval :     1234.00  1236.80  1259.21  1259.34  1260.64  1262.39
eigval :     1264.35  1264.36  1279.77  1279.98  1287.83  1289.09
eigval :     1301.38  1302.76  1306.88  1307.11  1322.54  1322.68
eigval :     1328.66  1328.93  1336.53  1336.64  1364.06  1398.78
eigval :     1398.94  1400.38  1400.40  1400.42  1400.43  1402.17
eigval :     1402.21  1402.33  1402.34  1410.93  1411.49  1415.27
eigval :     1415.43  1419.40  1419.41  1426.60  1426.66  1426.67
eigval :     1426.69  1437.66  1440.15  1443.96  1449.42  1468.95
eigval :     1481.23  1481.24  1483.18  1483.22  1484.59  1484.60
eigval :     1488.46  1488.47  1488.84  1488.84  1491.15  1491.18
eigval :     1491.48  1491.50  1492.50  1492.67  1494.33  1494.83
eigval :     1498.29  1498.31  1500.19  1500.22  1500.57  1500.69
eigval :     1502.45  1502.46  1504.40  1504.88  1507.04  1511.30
eigval :     1511.34  1511.35  1511.36  1517.40  1517.45  1517.49
eigval :     1517.55  1519.73  1541.55  1559.45  1568.24  1568.25
eigval :     1582.51  1582.51  1596.27  1596.27  1602.21  1602.24
eigval :     3020.68  3020.69  3020.72  3020.74  3022.29  3022.30
eigval :     3022.31  3022.32  3025.11  3025.12  3025.12  3025.13
eigval :     3025.97  3025.97  3027.10  3027.12  3027.13  3027.13
eigval :     3028.24  3028.26  3029.23  3029.24  3029.29  3029.31
eigval :     3031.89  3031.92  3031.93  3031.94  3037.01  3037.03
eigval :     3037.07  3037.08  3044.54  3044.54  3046.04  3046.05
eigval :     3046.28  3046.29  3046.79  3046.79  3049.59  3049.61
eigval :     3049.61  3049.64  3053.61  3053.61  3058.00  3058.02
eigval :     3078.91  3078.91  3079.07  3079.24  3104.98  3104.98
eigval :     3105.34  3105.35  3118.93  3118.94  3119.22  3119.29

   temp. (K)  partition function   enthalpy   heat capacity  entropy
                                   cal/mol     cal/K/mol   cal/K/mol   J/K/mol
 298.15  VIB  0.490E+33            41601.981    246.343    260.518
         ROT  0.788E+08              888.752      2.981     39.115
         INT  0.386E+41            42490.733    249.324    299.632
         TR   0.278E+29             1481.254      4.968     46.367
         TOT                       43971.9870   254.2921   345.9993  1447.6610

       T/K    H(0)-H(T)+PV         H(T)/Eh          T*S/Eh         G(T)/Eh
   ------------------------------------------------------------------------
    298.15    0.700738E-01    0.109350E+01    0.164395E+00    0.929103E+00
   ------------------------------------------------------------------------

         :::::::::::::::::::::::::::::::::::::::::::::::::::::
         ::                  THERMODYNAMIC                  ::
         :::::::::::::::::::::::::::::::::::::::::::::::::::::
         :: total free energy        -197.761646701215 Eh   ::
         ::.................................................::
         :: total energy             -198.690749642439 Eh   ::
         :: zero point energy           1.023424545598 Eh   ::
         :: G(RRHO) w/o ZPVE           -0.094321604374 Eh   ::
         :: G(RRHO) contrib.            0.929102941224 Eh   ::
         :::::::::::::::::::::::::::::::::::::::::::::::::::::

           -------------------------------------------------
          | TOTAL ENERGY             -198.690749642439 Eh   |
          | TOTAL ENTHALPY           -197.597251275199 Eh   |
          | TOTAL FREE ENERGY        -197.761646701215 Eh   |
          | GRADIENT NORM               0.000066680319 Eh/α |
          | HOMO-LUMO GAP               1.151046318108 eV   |
           -------------------------------------------------

 * finished run on 2025/09/04 at 07:55:05.390
