   * xtb version 6.7.1 (edcfbbe) compiled by 'albert@albert-system' on 2024-07-22

   ID    Z sym.   atoms
    1    6 C      1-23, 25, 26, 28, 30-32, 34, 36, 38-61, 63, 65, 67
    2    7 N      24, 37
    3    9 F      27, 29, 33, 35, 62, 64, 66, 68
    4    1 H      69-128

          program call               : xtb data2507/toluene/PFBP-2b/PFBP-2b_toluene_T1_crest.xyz --gfn 2 --uhf 2 --gbsa toluene --ohess vtight --parallel 40 --molden --ceasefiles --namespace data2507/toluene/PFBP-2b/PFBP-2b_toluene_T1_finalOpt
      * Solvation model:               GBSA
        Solvent                        toluene
        Solvent mass                       9.2140E+01 g/mol
          :  Hamiltonian                  GFN2-xTB          :
 * total energy  :  -198.6385481 Eh     change       -0.5283897E-07 Eh
 * total energy  :  -198.6389006 Eh     change       -0.3525099E-03 Eh
 * total energy  :  -198.6390481 Eh     change       -0.1474933E-03 Eh
 * total energy  :  -198.6390912 Eh     change       -0.4311658E-04 Eh
 * total energy  :  -198.6391372 Eh     change       -0.4591379E-04 Eh
 * total energy  :  -198.6391672 Eh     change       -0.3000200E-04 Eh
 * total energy  :  -198.6391847 Eh     change       -0.1758583E-04 Eh
 * total energy  :  -198.6391934 Eh     change       -0.8651431E-05 Eh
 * total energy  :  -198.6392006 Eh     change       -0.7205927E-05 Eh
 * total energy  :  -198.6392055 Eh     change       -0.4932731E-05 Eh
 * total energy  :  -198.6392200 Eh     change       -0.2123398E-05 Eh
 * total energy  :  -198.6392210 Eh     change       -0.1036848E-05 Eh
 * total energy  :  -198.6392218 Eh     change       -0.7135863E-06 Eh
 * total energy  :  -198.6392224 Eh     change       -0.6713401E-06 Eh
 * total energy  :  -198.6392231 Eh     change       -0.6405004E-06 Eh
 * total energy  :  -198.6392239 Eh     change       -0.8682550E-06 Eh
 * total energy  :  -198.6392250 Eh     change       -0.1020793E-05 Eh
 * total energy  :  -198.6392256 Eh     change       -0.5980354E-06 Eh
 * total energy  :  -198.6392256 Eh     change       -0.1820410E-09 Eh
   *** GEOMETRY OPTIMIZATION CONVERGED AFTER 22 ITERATIONS ***

 final structure:
================
128
 xtb: 6.7.1 (edcfbbe)
C           -7.39471320660946        5.79911340792988       -1.07378735061303
C           -7.81329601363046        4.58983359418138       -1.92449216145961
C           -7.41126174940848        4.82075744845625       -3.38952105336665
C           -9.33830038754787        4.46288912233691       -1.86019003771990
C           -7.09614796378570        3.35560333487718       -1.40811029902463
C           -5.69956784440226        3.31621360945801       -1.40250042832586
C           -5.02150158052818        2.21417108817460       -0.94254431989289
C           -5.71106235891033        1.09205340253633       -0.46437684749919
C           -7.11256609231112        1.10627574576360       -0.45649582544914
C           -7.76439362456315        2.23699655004560       -0.92870337003795
C           -7.92525409526455       -0.06604140971021        0.05010663420785
C           -8.81880110573419       -0.57850140413686       -1.09725497128161
C           -8.79329058597264        0.40984774718727        1.23207833275082
C           -7.04527300740619       -1.20359059224165        0.52237930345124
C           -7.63041413083315       -2.35912193874041        1.02130577803582
C           -6.89786385075712       -3.44960394854909        1.47064480936724
C           -7.54121002593290       -4.71127554948816        2.01684215960049
C           -7.12268337976890       -5.90082837744841        1.13872509424682
C           -7.05545112919955       -4.93296321714072        3.45775569447328
C           -9.07101870150408       -4.64040184966464        2.03269895773120
C           -5.50568965825926       -3.35494077954976        1.40296413495371
C           -4.89267726077703       -2.22636622060612        0.91693715180890
C           -5.64637786248619       -1.13213825726670        0.47194302354802
N           -5.00911458581888       -0.00561755514507       -0.00871581214543
C           -3.59366786724368        0.02635364103758       -0.02441242034087
C           -2.85429609425984       -0.38811343929771       -1.14723327999803
F           -3.53200877633261       -0.84193239566606       -2.22541304192505
C           -1.48417797275136       -0.37530517735558       -1.15601679098403
F           -0.84591099491556       -0.88858398837998       -2.23419057491833
C           -0.71470411857973        0.05593563154686       -0.03869825072106
C            0.71423299631872        0.05532831657176       -0.03745166192367
C            1.47894998084830       -0.35771421560424        1.09021933871359
F            0.83616608003266       -0.86153236783614        2.17025032613827
C            2.84885008772507       -0.36190222004932        1.09092041888735
F            3.52239200188179       -0.79560715101497        2.17996157513772
C            3.59339749680453        0.04193215634207       -0.03238976786995
N            5.00919165963939        0.02848656521613       -0.02815269274769
C            5.68836542415714        1.13196858627263        0.44797802132423
C            4.97604042479528        2.25376837732203        0.89241271767251
C            5.63094986323775        3.35980773890669        1.37558498590627
C            7.02587689026485        3.40365271538784        1.43975689476471
C            7.71634095940774        4.64070038249845        1.98483815839329
C            7.24568401114626        4.87549408153051        3.42871578239627
C            7.33596116175753        5.84666644831658        1.11185318858848
C            9.24282548493334        4.51598384554236        1.99276001837320
C            7.71715166953661        2.28697658227064        0.98940235040617
C            7.08905928292666        1.15270858712671        0.49400847846502
C            7.92578101073050       -0.01715049845619        0.02206990772037
C            8.83680116902138        0.46045845476332       -1.12651718820238
C            8.77651403410255       -0.52337813107313        1.20407427073334
C            7.06969454542489       -1.15932569165483       -0.48190039012858
C            7.67886061760731       -2.31359803486240       -0.95423748681910
C            6.96919346236873       -3.40786430775558       -1.43028069020516
C            7.63912077909522       -4.66788403004319       -1.94767574895029
C            7.17127124635085       -5.86263932892312       -1.10216334496698
C            7.23254027271365       -4.87809182088827       -3.41456898888489
C            9.16764027718627       -4.60106554314097       -1.87783791624135
C            5.57506951569943       -3.31765134094865       -1.42114815561487
C            4.93863477158392       -2.19159076388787       -0.95994852633416
C            5.66958817643064       -1.09437309801846       -0.48537545044117
C            2.85691522547922        0.45429674253264       -1.15779140130027
F            3.53803461840407        0.88030971369200       -2.24512895780922
C            1.48673385228436        0.46322638623546       -1.16159801579839
F            0.85201776608734        0.97181073766257       -2.24412441926869
C           -1.48245983391470        0.48053078009246        1.08279204372611
F           -0.84331660098240        1.01295465762861        2.15125714601974
C           -2.85225628622937        0.46292946047225        1.08856474380331
F           -3.52927603792287        0.90359449912350        2.17263435671998
H           -7.65383785954808        5.63381517559128       -0.02990633262789
H           -7.90832207330108        6.69312320332973       -1.42036382494172
H           -6.32467606974549        5.97673947260376       -1.13466438519579
H           -7.92544470067427        5.69500191786811       -3.78263107220061
H           -6.34156334497458        4.98297590186011       -3.48794060300467
H           -7.68210219787987        3.95836351892356       -3.99539828149809
H           -9.68861760375441        3.63420724522105       -2.47102019767493
H           -9.79101876176157        5.37476843752996       -2.24368541314307
H           -9.67744039751648        4.32727968514001       -0.83590111044706
H           -5.12559501817883        4.15560696235086       -1.76176607052233
H           -3.94189730693161        2.21115198097854       -0.94937787154464
H           -8.83991511332072        2.23758958496779       -0.91882215437306
H           -9.42942808830822       -1.41282194942056       -0.76653704503974
H           -8.19872865733644       -0.91122570839409       -1.92757256341568
H           -9.47781050335374        0.20764209545263       -1.45222119778977
H           -8.15521215728256        0.76455177424203        2.03933759714071
H           -9.40808969681744       -0.40135798749598        1.60921822830952
H           -9.44721482202487        1.22095049462111        0.92748138253054
H           -8.70447427914971       -2.40258124518937        1.05801046491572
H           -7.58171049241260       -6.81518578202968        1.50805998427436
H           -6.04475626791194       -6.03637055630057        1.14124679770025
H           -7.44376833648935       -5.74280426780473        0.11107420790045
H           -7.31839164183631       -4.07977455875291        4.07985453800709
H           -5.97784967746403       -5.06452803031203        3.49914792857251
H           -7.52261886035669       -5.82240662645313        3.87467142787369
H           -9.46854366962829       -4.51703965129379        1.02806944204938
H           -9.46920849199569       -5.56844933114649        2.43726873922983
H           -9.41874835394638       -3.82516488428666        2.66286800511451
H           -4.88352337918390       -4.17133771568677        1.73377197858119
H           -3.81479486542472       -2.18154848830770        0.87694144288241
H            3.89712437798381        2.24779992428613        0.85422127294029
H            5.03987948216044        4.19872422291001        1.70707971447370
H            7.74636693079958        5.74637040911290        3.84595173929716
H            6.17367154163346        5.04537152327213        3.47539133853522
H            7.48062600491889        4.01156358026413        4.04721644517637
H            7.82809446165517        6.74333260698494        1.48190465174426
H            6.26348878887272        6.01992255400928        1.11920168434761
H            7.64724858017694        5.68061675386921        0.08245747978478
H            9.67548598367481        5.42930777429230        2.39549107889375
H            9.56504297300861        3.68881894359910        2.62093470003997
H            9.63060881140637        4.37919178920550        0.98605697674153
H            8.79219529457603        2.29171066288339        1.02279299023723
H            9.46668998407214       -0.34965611299166       -1.48041499601337
H            8.22892812847168        0.81424926606141       -1.95714869208083
H            9.47733055475679        1.27270647444937       -0.79741519634334
H            9.41903898925181        0.26593182537503        1.58149844216296
H            9.40204220195889       -1.35654892036249        0.89944048185125
H            8.12627912552171       -0.85563017016034        2.01118177061723
H            8.75368533431786       -2.35319157592608       -0.94699669700881
H            6.09575266470409       -6.00055430528950       -1.16868259945486
H            7.43123345549632       -5.70947484981321       -0.05665376415804
H            7.65303599028006       -6.77427528889095       -1.44853549674925
H            7.71153172997906       -5.77157619953583       -3.80885422666813
H            6.15730382786534       -4.99581567557638       -3.51629476523840
H            7.54024781151793       -4.02577860013017       -4.01710314465197
H            9.55287219230774       -3.78692180348968       -2.48712701564836
H            9.50766910160717       -4.47889090956113       -0.85214291145283
H            9.58552447543685       -5.53010311895655       -2.25968115188022
H            4.96990113137550       -4.13577638410090       -1.77826404114396
H            3.85983202226416       -2.15078224608954       -0.96301943308319

          :  Hamiltonian                  GFN2-xTB          :
         :: gradient norm              0.000058750896 Eh/a0 ::
         :: HOMO-LUMO gap              1.122239721838 eV    ::
         :: SCC energy              -201.404102433475 Eh    ::
         :: -> dispersion             -0.165803371900 Eh    ::
         :: -> Gsolv                  -0.081362240650 Eh    ::
         :: repulsion energy           2.764876865964 Eh    ::

    * Orbital Energies and Occupations

         #    Occupation            Energy/Eh            Energy/eV
      -------------------------------------------------------------
         1        2.0000           -0.8428042             -22.9339
       ...           ...                  ...                  ...
       168        2.0000           -0.4153248             -11.3016
       169        2.0000           -0.4153014             -11.3009
       170        2.0000           -0.4152528             -11.2996
       171        2.0000           -0.4131577             -11.2426
       172        2.0000           -0.4131501             -11.2424
       173        2.0000           -0.4091633             -11.1339
       174        2.0000           -0.4084543             -11.1146
       175        2.0000           -0.4084429             -11.1143
       176        2.0000           -0.4069845             -11.0746
       177        2.0000           -0.4069752             -11.0744
       178        1.5002           -0.3639501              -9.9036
       179        1.4998           -0.3639484              -9.9035
       180        1.0000           -0.2968300              -8.0772 (HOMO)
       181                         -0.2555884              -6.9549 (LUMO)
       182                         -0.2554722              -6.9518
       183                         -0.2462586              -6.7010
       184                         -0.2414931              -6.5714
       185                         -0.2414863              -6.5712
       186                         -0.2329061              -6.3377
       187                         -0.2328988              -6.3375
       188                         -0.2319268              -6.3110
       189                         -0.2319209              -6.3109
       190                         -0.2087107              -5.6793
       191                         -0.2086885              -5.6787
       ...                                ...                  ...
       332                          0.6592837              17.9400
      -------------------------------------------------------------
                  HL-Gap            0.0412415 Eh            1.1222 eV

     #   Z          covCN         q      C6AA      α(0)
     1   6 C        3.761    -0.108    22.606     6.778
     2   6 C        3.902     0.028    20.046     6.364
     3   6 C        3.761    -0.108    22.605     6.778
     4   6 C        3.761    -0.112    22.693     6.791
     5   6 C        2.971     0.015    27.667     8.628
     6   6 C        2.925    -0.032    28.789     8.799
     7   6 C        2.919    -0.048    29.199     8.861
     8   6 C        2.931     0.060    26.649     8.466
     9   6 C        2.977    -0.001    28.042     8.686
    10   6 C        2.931    -0.044    29.083     8.844
    11   6 C        3.909     0.024    20.107     6.374
    12   6 C        3.761    -0.109    22.637     6.782
    13   6 C        3.761    -0.109    22.638     6.783
    14   6 C        2.977    -0.001    28.041     8.686
    15   6 C        2.931    -0.044    29.083     8.844
    16   6 C        2.971     0.015    27.667     8.628
    17   6 C        3.903     0.028    20.046     6.364
    18   6 C        3.762    -0.108    22.605     6.778
    19   6 C        3.762    -0.108    22.605     6.778
    20   6 C        3.761    -0.112    22.693     6.791
    21   6 C        2.925    -0.032    28.789     8.799
    22   6 C        2.919    -0.048    29.203     8.862
    23   6 C        2.931     0.060    26.653     8.467
    24   7 N        2.752    -0.004    21.335     6.860
    25   6 C        2.924    -0.007    28.189     8.707
    26   6 C        2.775     0.128    25.184     8.219
    27   9 F        0.786    -0.213    11.369     3.983
    28   6 C        2.778     0.124    25.271     8.234
    29   9 F        0.786    -0.220    11.448     3.997
    30   6 C        2.965    -0.038    28.939     8.824
    31   6 C        2.965    -0.038    28.939     8.824
    32   6 C        2.778     0.124    25.270     8.234
    33   9 F        0.786    -0.220    11.449     3.997
    34   6 C        2.775     0.128    25.184     8.219
    35   9 F        0.786    -0.213    11.370     3.983
    36   6 C        2.924    -0.007    28.189     8.707
    37   7 N        2.752    -0.004    21.335     6.860
    38   6 C        2.931     0.060    26.651     8.466
    39   6 C        2.919    -0.048    29.201     8.861
    40   6 C        2.925    -0.032    28.789     8.799
    41   6 C        2.971     0.015    27.667     8.628
    42   6 C        3.902     0.028    20.046     6.364
    43   6 C        3.762    -0.108    22.605     6.778
    44   6 C        3.761    -0.108    22.606     6.778
    45   6 C        3.761    -0.112    22.693     6.791
    46   6 C        2.931    -0.044    29.083     8.844
    47   6 C        2.977    -0.001    28.042     8.686
    48   6 C        3.909     0.024    20.107     6.374
    49   6 C        3.761    -0.109    22.638     6.783
    50   6 C        3.761    -0.109    22.637     6.782
    51   6 C        2.977    -0.001    28.042     8.686
    52   6 C        2.931    -0.044    29.083     8.844
    53   6 C        2.971     0.015    27.667     8.628
    54   6 C        3.902     0.028    20.046     6.364
    55   6 C        3.761    -0.108    22.606     6.778
    56   6 C        3.762    -0.108    22.604     6.777
    57   6 C        3.761    -0.112    22.693     6.791
    58   6 C        2.925    -0.032    28.789     8.799
    59   6 C        2.919    -0.048    29.202     8.862
    60   6 C        2.931     0.060    26.652     8.466
    61   6 C        2.775     0.128    25.182     8.219
    62   9 F        0.786    -0.213    11.369     3.983
    63   6 C        2.778     0.124    25.272     8.234
    64   9 F        0.786    -0.220    11.448     3.997
    65   6 C        2.778     0.124    25.272     8.234
    66   9 F        0.786    -0.221    11.449     3.997
    67   6 C        2.775     0.128    25.182     8.219
    68   9 F        0.786    -0.213    11.370     3.983
    69   1 H        0.925     0.037     2.487     2.466
    70   1 H        0.925     0.045     2.385     2.415
    71   1 H        0.925     0.038     2.479     2.462
    72   1 H        0.925     0.045     2.385     2.415
    73   1 H        0.925     0.038     2.479     2.462
    74   1 H        0.925     0.037     2.488     2.467
    75   1 H        0.925     0.042     2.427     2.436
    76   1 H        0.925     0.043     2.409     2.427
    77   1 H        0.925     0.042     2.427     2.436
    78   1 H        0.926     0.045     2.387     2.416
    79   1 H        0.926     0.027     2.626     2.534
    80   1 H        0.926     0.066     2.127     2.281
    81   1 H        0.925     0.055     2.254     2.348
    82   1 H        0.925     0.037     2.486     2.465
    83   1 H        0.925     0.055     2.252     2.347
    84   1 H        0.925     0.037     2.486     2.466
    85   1 H        0.925     0.055     2.253     2.347
    86   1 H        0.925     0.055     2.253     2.347
    87   1 H        0.926     0.066     2.127     2.280
    88   1 H        0.925     0.045     2.383     2.414
    89   1 H        0.925     0.038     2.480     2.463
    90   1 H        0.925     0.037     2.486     2.466
    91   1 H        0.925     0.037     2.490     2.468
    92   1 H        0.925     0.038     2.480     2.463
    93   1 H        0.925     0.045     2.385     2.415
    94   1 H        0.925     0.042     2.426     2.436
    95   1 H        0.925     0.043     2.409     2.427
    96   1 H        0.925     0.042     2.427     2.436
    97   1 H        0.926     0.045     2.388     2.417
    98   1 H        0.926     0.027     2.633     2.537
    99   1 H        0.926     0.027     2.629     2.535
   100   1 H        0.926     0.045     2.388     2.416
   101   1 H        0.925     0.045     2.385     2.415
   102   1 H        0.925     0.038     2.479     2.462
   103   1 H        0.925     0.037     2.490     2.468
   104   1 H        0.925     0.045     2.384     2.415
   105   1 H        0.925     0.038     2.479     2.462
   106   1 H        0.925     0.037     2.486     2.466
   107   1 H        0.925     0.043     2.409     2.427
   108   1 H        0.925     0.042     2.428     2.437
   109   1 H        0.925     0.042     2.427     2.436
   110   1 H        0.926     0.066     2.127     2.281
   111   1 H        0.925     0.055     2.253     2.347
   112   1 H        0.925     0.037     2.485     2.465
   113   1 H        0.925     0.055     2.253     2.347
   114   1 H        0.925     0.055     2.253     2.347
   115   1 H        0.925     0.055     2.253     2.348
   116   1 H        0.925     0.037     2.486     2.466
   117   1 H        0.926     0.066     2.127     2.281
   118   1 H        0.925     0.038     2.479     2.462
   119   1 H        0.925     0.037     2.488     2.467
   120   1 H        0.925     0.045     2.385     2.415
   121   1 H        0.925     0.045     2.384     2.415
   122   1 H        0.925     0.038     2.480     2.463
   123   1 H        0.925     0.037     2.488     2.467
   124   1 H        0.925     0.042     2.427     2.436
   125   1 H        0.925     0.042     2.427     2.436
   126   1 H        0.925     0.043     2.409     2.427
   127   1 H        0.926     0.045     2.388     2.417
   128   1 H        0.926     0.027     2.630     2.536

molecular dipole:
                 x           y           z       tot (Debye)
 q only:        0.000      -0.137       0.108
   full:        0.000      -0.121       0.096       0.393

 projected vibrational frequencies (cm⁻¹)
eigval :       -0.00    -0.00     0.00     0.00     0.00     0.00
eigval :        4.66     5.96     7.15    10.33    17.88    19.48
eigval :       25.45    27.34    31.96    34.52    39.57    41.45
eigval :       42.59    48.77    52.41    57.34    57.76    61.85
eigval :       80.38    81.26    84.27   101.90   102.69   105.14
eigval :      110.51   115.66   116.95   117.74   119.53   141.42
eigval :      143.05   144.66   150.20   161.03   163.55   164.01
eigval :      170.25   171.06   172.01   176.87   179.49   201.70
eigval :      202.93   204.01   204.26   205.88   206.06   218.83
eigval :      219.59   222.56   224.81   226.13   226.80   230.02
eigval :      242.05   245.71   248.78   249.13   253.67   261.40
eigval :      262.53   270.91   275.45   281.71   311.69   313.07
eigval :      316.59   317.37   318.27   319.05   319.90   320.95
eigval :      321.76   322.17   338.75   340.05   341.61   344.05
eigval :      344.52   345.19   346.42   354.60   354.78   361.12
eigval :      372.43   373.37   384.07   386.32   392.47   395.45
eigval :      398.95   399.13   409.77   409.95   413.47   418.82
eigval :      430.48   434.64   439.56   441.02   445.77   445.94
eigval :      449.14   452.68   452.73   477.46   478.81   484.85
eigval :      485.00   489.68   500.27   501.38   504.25   518.54
eigval :      532.61   533.41   549.01   566.16   568.16   573.96
eigval :      577.89   579.37   586.53   587.05   602.81   603.08
eigval :      611.70   611.91   632.11   632.32   666.20   669.87
eigval :      675.69   676.63   694.50   694.51   694.79   694.90
eigval :      702.47   702.81   737.08   739.48   764.64   816.65
eigval :      821.73   821.82   824.14   824.50   824.61   847.81
eigval :      847.96   881.13   881.27   882.49   884.55   899.18
eigval :      899.41   903.35   905.32   907.35   917.64   917.89
eigval :      918.87   919.13   936.58   936.73   939.74   949.09
eigval :      949.92   957.13   957.34   959.94   960.12   960.21
eigval :      960.51   960.75   962.27   962.36   962.40   962.98
eigval :      963.24   963.30   964.26   964.31  1011.25  1011.76
eigval :     1023.85  1025.43  1032.01  1032.72  1033.04  1033.14
eigval :     1034.38  1034.68  1035.06  1035.68  1035.88  1072.55
eigval :     1092.80  1094.17  1094.33  1136.09  1142.34  1142.49
eigval :     1146.48  1146.50  1151.22  1155.37  1163.58  1170.81
eigval :     1171.17  1192.80  1197.33  1208.01  1220.77  1220.77
eigval :     1221.71  1221.78  1222.13  1222.90  1227.56  1227.72
eigval :     1231.54  1233.11  1251.27  1251.62  1252.68  1261.31
eigval :     1261.42  1262.34  1272.85  1273.85  1291.32  1291.43
eigval :     1299.00  1305.72  1305.91  1312.14  1318.41  1318.55
eigval :     1320.50  1338.66  1338.75  1342.83  1343.08  1365.38
eigval :     1379.91  1395.96  1396.37  1396.78  1396.90  1399.27
eigval :     1400.07  1401.87  1402.31  1402.40  1402.77  1408.67
eigval :     1408.83  1414.63  1415.05  1416.38  1416.42  1423.49
eigval :     1424.04  1425.63  1425.69  1426.24  1426.84  1454.14
eigval :     1454.16  1471.95  1473.88  1478.70  1479.06  1480.24
eigval :     1481.88  1482.22  1482.81  1484.45  1485.89  1486.11
eigval :     1486.27  1486.70  1489.64  1489.86  1490.37  1490.92
eigval :     1490.97  1491.01  1495.58  1495.81  1497.08  1497.13
eigval :     1497.89  1498.18  1498.87  1499.12  1499.50  1500.62
eigval :     1511.23  1511.45  1511.75  1511.88  1515.27  1515.29
eigval :     1515.55  1516.21  1533.97  1534.01  1545.99  1549.95
eigval :     1550.92  1577.60  1577.64  1586.50  1596.08  1627.73
eigval :     3024.30  3024.60  3025.14  3025.25  3025.30  3025.39
eigval :     3025.43  3025.72  3028.13  3028.30  3028.36  3028.40
eigval :     3028.96  3029.13  3029.25  3029.49  3029.57  3029.69
eigval :     3031.47  3031.57  3031.63  3031.85  3031.89  3032.03
eigval :     3035.20  3035.25  3035.32  3035.37  3039.95  3040.02
eigval :     3040.31  3040.43  3046.69  3046.91  3046.93  3047.45
eigval :     3050.00  3050.06  3050.19  3050.60  3052.34  3052.44
eigval :     3054.49  3054.56  3058.95  3059.08  3062.89  3063.09
eigval :     3087.11  3087.95  3088.11  3088.38  3101.49  3101.63
eigval :     3101.82  3102.31  3136.89  3136.92  3137.13  3137.29

   temp. (K)  partition function   enthalpy   heat capacity  entropy
                                   cal/mol     cal/K/mol   cal/K/mol   J/K/mol
 298.15  VIB  0.207E+34            41867.309    247.828    263.229
         ROT  0.314E+09              888.752      2.981     41.861
         INT  0.650E+42            42756.061    250.809    305.090
         TR   0.278E+29             1481.254      4.968     46.367
         TOT                       44237.3153   255.7772   351.4567  1470.4947

       T/K    H(0)-H(T)+PV         H(T)/Eh          T*S/Eh         G(T)/Eh
   ------------------------------------------------------------------------
    298.15    0.704966E-01    0.109097E+01    0.166988E+00    0.923977E+00
   ------------------------------------------------------------------------

         :::::::::::::::::::::::::::::::::::::::::::::::::::::
         ::                  THERMODYNAMIC                  ::
         :::::::::::::::::::::::::::::::::::::::::::::::::::::
         :: total free energy        -197.715248967611 Eh   ::
         ::.................................................::
         :: total energy             -198.639225565812 Eh   ::
         :: zero point energy           1.020468351815 Eh   ::
         :: G(RRHO) w/o ZPVE           -0.096491753614 Eh   ::
         :: G(RRHO) contrib.            0.923976598201 Eh   ::
         :::::::::::::::::::::::::::::::::::::::::::::::::::::

           -------------------------------------------------
          | TOTAL ENERGY             -198.639225565812 Eh   |
          | TOTAL ENTHALPY           -197.548260564828 Eh   |
          | TOTAL FREE ENERGY        -197.715248967611 Eh   |
          | GRADIENT NORM               0.000059816086 Eh/α |
          | HOMO-LUMO GAP               1.122239263532 eV   |
           -------------------------------------------------

 * finished run on 2025/09/04 at 09:06:22.610
