   * xtb version 6.7.1 (edcfbbe) compiled by 'albert@albert-system' on 2024-07-22

   ID    Z sym.   atoms
    1    6 C      1-23, 25, 26, 28, 30-32, 34, 36, 38-61, 63, 65, 67
    2    7 N      24, 37
    3    9 F      27, 29, 33, 35, 62, 64, 66, 68
    4    1 H      69-128

          program call               : xtb data2507/toluene/PFBP-2b/PFBP-2b_toluene_S0_finalOpt.xtbopt.xyz --gfn 2 --uhf 2 --gbsa toluene --ohess vtight --parallel 40 --molden --ceasefiles --namespace data2507/toluene/PFBP-2b/PFBP-2b_toluene_T1_preOpt
      * Solvation model:               GBSA
        Solvent                        toluene
        Solvent mass                       9.2140E+01 g/mol
          :  Hamiltonian                  GFN2-xTB          :
 * total energy  :  -198.6264319 Eh     change       -0.1562938E-08 Eh
 * total energy  :  -198.6315380 Eh     change       -0.5106072E-02 Eh
 * total energy  :  -198.6329930 Eh     change       -0.1455030E-02 Eh
 * total energy  :  -198.6332273 Eh     change       -0.2342695E-03 Eh
 * total energy  :  -198.6334889 Eh     change       -0.2615684E-03 Eh
 * total energy  :  -198.6336771 Eh     change       -0.1882737E-03 Eh
 * total energy  :  -198.6338828 Eh     change       -0.2056374E-03 Eh
 * total energy  :  -198.6340251 Eh     change       -0.1423258E-03 Eh
 * total energy  :  -198.6340998 Eh     change       -0.7466071E-04 Eh
 * total energy  :  -198.6341643 Eh     change       -0.6452858E-04 Eh
 * total energy  :  -198.6380337 Eh     change       -0.7571223E-06 Eh
 * total energy  :  -198.6380342 Eh     change       -0.4982497E-06 Eh
 * total energy  :  -198.6380352 Eh     change       -0.1004791E-05 Eh
 * total energy  :  -198.6380359 Eh     change       -0.7498097E-06 Eh
 * total energy  :  -198.6380367 Eh     change       -0.7470161E-06 Eh
 * total energy  :  -198.6380374 Eh     change       -0.7456485E-06 Eh
 * total energy  :  -198.6380382 Eh     change       -0.7439189E-06 Eh
 * total energy  :  -198.6380389 Eh     change       -0.7422074E-06 Eh
 * total energy  :  -198.6380389 Eh     change       -0.6991115E-08 Eh
   *** GEOMETRY OPTIMIZATION CONVERGED AFTER 860 ITERATIONS ***

 final structure:
================
128
 xtb: 6.7.1 (edcfbbe)
C           -7.16498643488063        4.96821992680450        3.25691295574911
C           -7.70153919630567        3.55818485260079        3.54916151881247
C           -9.22318460643256        3.58034880841694        3.37659039980806
C           -7.38628036995948        3.17316225995692        5.00280887382805
C           -7.01677028445593        2.57425617776762        2.61827031173656
C           -5.62577421394276        2.44922426304203        2.64157920108025
C           -4.97420913189099        1.59149399669523        1.78988643659010
C           -5.68382513162877        0.81807037624961        0.86103212620389
C           -7.08425122004931        0.88227997533090        0.85811877121454
C           -7.70944206283667        1.76316073851740        1.72969863437301
C           -7.92755132742964        0.00740248276493       -0.04397504767932
C           -8.80308373819603        0.90777499495311       -0.93827725282894
C           -8.81531484537658       -0.89037634402367        0.84087141062039
C           -7.07700212499785       -0.87018751630394       -0.93672573211958
C           -7.68813331624950       -1.74815814965181       -1.81607347731703
C           -6.98617379007085       -2.56435156303392       -2.69850415124762
C           -7.74321525303485       -3.51960799534878       -3.60337725002740
C           -8.68607394922178       -2.71475933308230       -4.51124306297859
C           -6.81057385426939       -4.34742040349145       -4.49221268892485
C           -8.56001956050483       -4.48717518678106       -2.73247300325322
C           -5.59808803834997       -2.44541375686755       -2.70518600708344
C           -4.95760010705486       -1.58599659944170       -1.84187104439298
C           -5.67476195839204       -0.81095815681727       -0.92290934582403
N           -5.00678099295345        0.00248221606114       -0.02648470050636
C           -3.59432253443686       -0.00010094871698       -0.01698198205153
C           -2.84610815632823        1.10733574628667       -0.46141638390201
F           -3.51538656590407        2.17770031588946       -0.94562466125505
C           -1.47672100429094        1.11173009869642       -0.43991556288993
F           -0.82776689904508        2.18041299487639       -0.95994452913252
C           -0.71458802447540       -0.00477626807857        0.00418317060973
C            0.71459460786892       -0.00655166069661        0.01539947138440
C            1.48398863588826       -1.12273397045605       -0.41675941879738
F            0.84367201020071       -2.19213462384351       -0.94579009011386
C            2.85355470280583       -1.11738634146224       -0.41776522000535
F            3.53070418833656       -2.18753835556529       -0.89139249640990
C            3.59432855547728       -0.00923615787564        0.03730292573020
N            5.00678226801742       -0.01026790836949        0.04736872445028
C            5.67234022492377       -0.82544754971351        0.94401244836239
C            4.95285029345806       -1.59885579921844        1.86252757171533
C            5.59082594271226       -2.46002455980986        2.72595781351437
C            6.97860932579827       -2.58245717803958        2.71982201178851
C            7.73285463612661       -3.53992786217965        3.62469222007513
C            8.67744478516135       -2.73782023411390        4.53317951057410
C            8.54748604483107       -4.50930633221026        2.75376701927915
C            6.79776890174074       -4.36563425050404        4.51292171277673
C            7.68298711008170       -1.76775260747322        1.83793757176531
C            7.07442807556562       -0.88805781646212        0.95852576978202
C            7.92754333860047       -0.01215028733609        0.06656406637356
C            8.80440233472114        0.88608882629188        0.96171893304826
C            8.81398408985733       -0.91163543093335       -0.81786747818186
C            7.08681429264056        0.86479934263480       -0.83591741243352
C            7.71454265249108        1.74442428671729       -1.70694543795993
C            7.02425813382853        2.55721451157292       -2.59582998715685
C            7.71181595717494        3.53977353605070       -3.52611128485084
C            7.39686922219522        3.15550544760362       -4.98002653534914
C            7.17799890508536        4.95091464091617       -3.23417761475235
C            9.23337440270093        3.55872963773631       -3.35236573195796
C            5.63300245544577        2.43527602054985       -2.62008484550948
C            4.97896512354164        1.57891751966646       -1.76890949988447
C            5.68624767537834        0.80379265724572       -0.83969459405070
C            2.84882717267567        1.10012537210353        0.48150154806327
F            3.52070415065211        2.16877962649454        0.96588901744999
C            1.47946253774365        1.10802512452167        0.45963306378034
F            0.83310976489817        2.17836029772604        0.97950248071481
C           -1.48671849086161       -1.11903252905424        0.43642768119083
F           -0.84900142687791       -2.19008676458914        0.96525246838260
C           -2.85626200840255       -1.11017831664357        0.43779931040199
F           -3.53601852535815       -2.17862536471620        0.91154466501035
H           -6.09439932558256        5.03123993423491        3.43058587419984
H           -7.65739207309599        5.69414746725411        3.90016516355014
H           -7.35753107922402        5.23776385540214        2.22033181477316
H           -9.65108538219686        4.31291582920066        4.05763582088543
H           -9.49779863070050        3.86549929716497        2.36372985502069
H           -9.65930721736062        2.61233865630819        3.61160986616983
H           -7.74023695400648        2.16551990270063        5.21130479415705
H           -7.88026418282763        3.86164114290228        5.68477884415998
H           -6.31848527883026        3.20703632229651        5.20017595836322
H           -5.03409616614602        3.02858609101941        3.33241636141482
H           -3.89905426032768        1.51368214725888        1.84125848297253
H           -8.78365807120883        1.81279311885441        1.70862674577691
H           -9.46647577610393        1.52086224664899       -0.33641561269469
H           -9.40871299776497        0.30863128139467       -1.61100336927820
H           -8.17164617933351        1.56353072714966       -1.53467168784902
H           -8.19244714603484       -1.54986817581766        1.44217871825611
H           -9.47493546879594       -1.50017766513581        0.23162106535198
H           -9.42546792818005       -0.28964748648615        1.50818126339822
H           -8.76418635020481       -1.80030617917063       -1.81496803913326
H           -9.20959521891959       -3.38559176325446       -5.18868166170231
H           -8.11900721095557       -1.99946324748734       -5.10346721039488
H           -9.42683705517895       -2.16983729207405       -3.93343957564612
H           -6.12947954683411       -4.94765368152459       -3.89305000670647
H           -6.23297093088091       -3.70934506146968       -5.15716818257719
H           -7.40162618999539       -5.02338118941320       -5.10663206682154
H           -9.29734637664990       -3.96031739868697       -2.13392706229578
H           -9.08248733546489       -5.20278477802394       -3.36333030100293
H           -7.90218874604493       -5.03493811570737       -2.06068269149193
H           -4.99345382875323       -3.02251977180570       -3.38402332680613
H           -3.88156569494491       -1.51162718925498       -1.87967125653608
H            3.87698936648461       -1.52181564972843        1.89989126581081
H            4.98446157040660       -3.03571674624928        3.40444832964298
H            9.19901474402772       -3.41023960704723        5.21054915748811
H            9.41980434163508       -2.19457776253226        3.95584386362768
H            8.11199148285146       -2.02130829525445        5.12547394488558
H            9.06787082162415       -5.22647300602625        3.38457647990320
H            9.28638636946793       -3.98414882261250        2.15566733560876
H            7.88848907229683       -5.05514525901610        2.08155355163780
H            7.38687977986380       -5.04318630387045        5.12745371474565
H            6.22145564259543       -3.72628142812818        5.17776783430784
H            6.11545989205132       -4.96406481067110        3.91333445499057
H            8.75890992328718       -1.82252118640389        1.83735230305995
H            9.46967066881814        1.49775057711820        0.36047821582357
H            8.17399197408434        1.54320001640951        1.55771269019612
H            9.40811307629962        0.28545000653803        1.63483682707728
H            9.47185233979286       -1.52302153821290       -0.20831164337013
H            9.42592159564014       -0.31207119301594       -1.48459049187611
H            8.19010765862187       -1.56961121204586       -1.41978470551674
H            8.78885208247444        1.79166691822900       -1.68516596237420
H            6.32929126997706        3.19154839533063       -5.17818238664316
H            7.74894228140250        2.14716407409277       -5.18833249158140
H            7.89275243355994        3.84303416602903       -5.66157490452505
H            7.37009488007671        5.21988484321555       -2.19736475091185
H            7.67259971709968        5.67587627233514       -3.87683294363550
H            6.10772264571541        5.01628479937518       -3.40889792192056
H            9.50781588220311        3.84316204768933       -2.33925561729180
H            9.66765626749102        2.58984605517853       -3.58719068290011
H            9.66332285862845        4.29049881713095       -4.03298084295035
H            5.04307859332852        3.01602391317580       -3.31125640770833
H            3.90367250612476        1.50351422244902       -1.82096188478170

          :  Hamiltonian                  GFN2-xTB          :
         :: gradient norm              0.000070068141 Eh/a0 ::
         :: HOMO-LUMO gap              1.090527871272 eV    ::
         :: SCC energy              -201.402514078716 Eh    ::
         :: -> dispersion             -0.166418242959 Eh    ::
         :: -> Gsolv                  -0.080500967324 Eh    ::
         :: repulsion energy           2.764475154276 Eh    ::

    * Orbital Energies and Occupations

         #    Occupation            Energy/Eh            Energy/eV
      -------------------------------------------------------------
         1        2.0000           -0.8427817             -22.9333
       ...           ...                  ...                  ...
       168        2.0000           -0.4160430             -11.3211
       169        2.0000           -0.4144683             -11.2783
       170        2.0000           -0.4144390             -11.2775
       171        2.0000           -0.4122460             -11.2178
       172        2.0000           -0.4122304             -11.2174
       173        2.0000           -0.4099131             -11.1543
       174        2.0000           -0.4084307             -11.1140
       175        2.0000           -0.4083985             -11.1131
       176        2.0000           -0.4057271             -11.0404
       177        2.0000           -0.4056038             -11.0370
       178        1.6389           -0.3646434              -9.9225
       179        1.3611           -0.3635596              -9.8930
       180        1.0000           -0.2954469              -8.0395 (HOMO)
       181                         -0.2553708              -6.9490 (LUMO)
       182                         -0.2552264              -6.9451
       183                         -0.2476809              -6.7397
       184                         -0.2411973              -6.5633
       185                         -0.2411968              -6.5633
       186                         -0.2324381              -6.3250
       187                         -0.2323521              -6.3226
       188                         -0.2316255              -6.3029
       189                         -0.2316246              -6.3028
       190                         -0.2084941              -5.6734
       191                         -0.2072135              -5.6386
       ...                                ...                  ...
       332                          0.6562313              17.8570
      -------------------------------------------------------------
                  HL-Gap            0.0400762 Eh            1.0905 eV

     #   Z          covCN         q      C6AA      α(0)
     1   6 C        3.762    -0.108    22.602     6.777
     2   6 C        3.902     0.028    20.046     6.364
     3   6 C        3.761    -0.112    22.692     6.791
     4   6 C        3.761    -0.108    22.606     6.778
     5   6 C        2.971     0.015    27.667     8.628
     6   6 C        2.925    -0.032    28.790     8.799
     7   6 C        2.919    -0.047    29.174     8.857
     8   6 C        2.930     0.060    26.662     8.468
     9   6 C        2.978    -0.001    28.043     8.686
    10   6 C        2.932    -0.044    29.088     8.845
    11   6 C        3.909     0.024    20.109     6.374
    12   6 C        3.761    -0.109    22.630     6.781
    13   6 C        3.761    -0.109    22.627     6.781
    14   6 C        2.977    -0.001    28.048     8.687
    15   6 C        2.934    -0.039    28.981     8.829
    16   6 C        2.971     0.015    27.669     8.628
    17   6 C        3.903     0.028    20.049     6.365
    18   6 C        3.761    -0.108    22.618     6.780
    19   6 C        3.761    -0.110    22.659     6.786
    20   6 C        3.762    -0.108    22.618     6.780
    21   6 C        2.923    -0.036    28.897     8.815
    22   6 C        2.920    -0.047    29.173     8.857
    23   6 C        2.930     0.060    26.665     8.469
    24   7 N        2.751    -0.002    21.298     6.854
    25   6 C        2.923    -0.007    28.200     8.709
    26   6 C        2.775     0.128    25.185     8.219
    27   9 F        0.786    -0.212    11.365     3.982
    28   6 C        2.778     0.124    25.267     8.233
    29   9 F        0.786    -0.221    11.451     3.997
    30   6 C        2.965    -0.038    28.937     8.824
    31   6 C        2.965    -0.038    28.937     8.824
    32   6 C        2.778     0.124    25.266     8.233
    33   9 F        0.786    -0.221    11.450     3.997
    34   6 C        2.775     0.128    25.185     8.219
    35   9 F        0.786    -0.212    11.365     3.982
    36   6 C        2.923    -0.007    28.200     8.709
    37   7 N        2.751    -0.002    21.298     6.854
    38   6 C        2.930     0.060    26.665     8.469
    39   6 C        2.920    -0.047    29.173     8.857
    40   6 C        2.923    -0.036    28.897     8.815
    41   6 C        2.971     0.015    27.669     8.628
    42   6 C        3.903     0.028    20.049     6.365
    43   6 C        3.761    -0.108    22.618     6.780
    44   6 C        3.762    -0.108    22.618     6.780
    45   6 C        3.761    -0.110    22.659     6.786
    46   6 C        2.934    -0.039    28.981     8.829
    47   6 C        2.977    -0.001    28.048     8.687
    48   6 C        3.909     0.024    20.109     6.374
    49   6 C        3.761    -0.109    22.630     6.781
    50   6 C        3.761    -0.109    22.627     6.781
    51   6 C        2.978    -0.001    28.043     8.686
    52   6 C        2.932    -0.044    29.088     8.845
    53   6 C        2.971     0.015    27.667     8.628
    54   6 C        3.902     0.028    20.046     6.364
    55   6 C        3.761    -0.108    22.606     6.778
    56   6 C        3.762    -0.108    22.602     6.777
    57   6 C        3.761    -0.112    22.692     6.791
    58   6 C        2.925    -0.032    28.790     8.799
    59   6 C        2.919    -0.047    29.174     8.857
    60   6 C        2.930     0.060    26.662     8.468
    61   6 C        2.775     0.128    25.185     8.219
    62   9 F        0.786    -0.212    11.365     3.982
    63   6 C        2.778     0.124    25.267     8.233
    64   9 F        0.786    -0.221    11.451     3.997
    65   6 C        2.778     0.124    25.266     8.233
    66   9 F        0.786    -0.221    11.450     3.997
    67   6 C        2.775     0.128    25.185     8.219
    68   9 F        0.786    -0.212    11.365     3.982
    69   1 H        0.925     0.038     2.481     2.463
    70   1 H        0.925     0.045     2.387     2.416
    71   1 H        0.925     0.037     2.494     2.470
    72   1 H        0.925     0.043     2.410     2.428
    73   1 H        0.925     0.042     2.428     2.437
    74   1 H        0.925     0.042     2.427     2.436
    75   1 H        0.925     0.037     2.483     2.464
    76   1 H        0.925     0.045     2.384     2.415
    77   1 H        0.925     0.038     2.478     2.462
    78   1 H        0.926     0.044     2.392     2.419
    79   1 H        0.926     0.028     2.617     2.530
    80   1 H        0.926     0.066     2.129     2.282
    81   1 H        0.925     0.056     2.252     2.347
    82   1 H        0.925     0.054     2.270     2.356
    83   1 H        0.925     0.037     2.484     2.465
    84   1 H        0.925     0.037     2.483     2.464
    85   1 H        0.925     0.054     2.264     2.353
    86   1 H        0.925     0.055     2.262     2.352
    87   1 H        0.926     0.059     2.211     2.325
    88   1 H        0.925     0.045     2.383     2.414
    89   1 H        0.925     0.036     2.500     2.472
    90   1 H        0.925     0.043     2.413     2.429
    91   1 H        0.925     0.037     2.487     2.466
    92   1 H        0.925     0.038     2.481     2.463
    93   1 H        0.925     0.042     2.416     2.431
    94   1 H        0.925     0.043     2.410     2.428
    95   1 H        0.925     0.045     2.385     2.415
    96   1 H        0.925     0.036     2.507     2.476
    97   1 H        0.926     0.051     2.308     2.376
    98   1 H        0.926     0.028     2.616     2.529
    99   1 H        0.926     0.028     2.616     2.529
   100   1 H        0.926     0.051     2.308     2.376
   101   1 H        0.925     0.045     2.383     2.414
   102   1 H        0.925     0.043     2.414     2.429
   103   1 H        0.925     0.036     2.500     2.472
   104   1 H        0.925     0.045     2.385     2.415
   105   1 H        0.925     0.043     2.410     2.428
   106   1 H        0.925     0.036     2.507     2.476
   107   1 H        0.925     0.042     2.416     2.431
   108   1 H        0.925     0.038     2.481     2.463
   109   1 H        0.925     0.037     2.487     2.466
   110   1 H        0.926     0.059     2.211     2.325
   111   1 H        0.925     0.056     2.252     2.347
   112   1 H        0.925     0.037     2.484     2.465
   113   1 H        0.925     0.054     2.270     2.356
   114   1 H        0.925     0.054     2.264     2.353
   115   1 H        0.925     0.055     2.262     2.352
   116   1 H        0.925     0.037     2.483     2.464
   117   1 H        0.926     0.066     2.129     2.282
   118   1 H        0.925     0.038     2.478     2.462
   119   1 H        0.925     0.037     2.483     2.464
   120   1 H        0.925     0.045     2.384     2.415
   121   1 H        0.925     0.037     2.494     2.470
   122   1 H        0.925     0.045     2.387     2.416
   123   1 H        0.925     0.038     2.481     2.463
   124   1 H        0.925     0.042     2.428     2.437
   125   1 H        0.925     0.042     2.427     2.436
   126   1 H        0.925     0.043     2.410     2.428
   127   1 H        0.926     0.044     2.392     2.419
   128   1 H        0.926     0.028     2.617     2.530

molecular dipole:
                 x           y           z       tot (Debye)
 q only:        0.000       0.040       0.002
   full:        0.000       0.044       0.002       0.112

 projected vibrational frequencies (cm⁻¹)
eigval :       -0.00    -0.00    -0.00    -0.00     0.00     0.00
eigval :        7.12     7.19     9.26    17.86    19.71    20.77
eigval :       25.47    26.42    30.10    30.51    37.11    37.35
eigval :       43.15    51.53    53.58    53.82    60.40    71.31
eigval :       82.27    84.31    86.04   100.76   104.71   111.81
eigval :      113.30   114.95   115.60   117.40   122.88   138.29
eigval :      139.10   141.37   149.50   156.63   164.01   164.41
eigval :      165.71   169.31   170.41   178.26   178.50   193.33
eigval :      194.25   203.28   203.36   205.59   206.64   217.11
eigval :      218.49   225.84   227.57   227.80   230.51   231.52
eigval :      240.66   240.74   250.11   252.33   254.24   268.37
eigval :      274.74   276.03   277.17   279.13   299.61   304.67
eigval :      306.91   308.41   313.71   314.42   316.06   316.39
eigval :      328.78   330.63   336.62   336.80   337.94   338.77
eigval :      343.32   346.75   347.37   353.18   353.51   362.76
eigval :      371.93   374.09   383.44   387.07   391.09   392.27
eigval :      396.06   397.30   410.27   410.40   413.90   417.98
eigval :      430.55   436.26   439.19   444.26   446.98   447.26
eigval :      450.76   455.69   456.05   475.98   477.37   484.24
eigval :      484.38   489.22   499.82   501.32   509.00   521.53
eigval :      530.72   531.63   548.71   565.78   567.96   570.20
eigval :      578.06   579.37   586.91   587.39   595.49   596.40
eigval :      611.78   611.85   632.16   632.19   665.98   669.48
eigval :      675.32   676.02   692.96   695.25   695.34   696.21
eigval :      703.63   703.97   737.89   738.65   764.27   816.85
eigval :      820.25   820.65   823.97   826.60   826.66   848.38
eigval :      848.45   884.65   884.78   891.92   893.01   893.91
eigval :      898.35   903.19   905.35   913.26   915.31   915.96
eigval :      920.97   921.23   934.50   937.77   943.14   948.46
eigval :      949.44   958.63   958.66   958.98   959.32   959.36
eigval :      959.86   959.93   961.16   962.11   962.90   962.92
eigval :      963.80   963.99   965.47   965.49  1010.45  1010.55
eigval :     1023.76  1025.29  1031.83  1031.85  1034.89  1035.10
eigval :     1035.13  1035.20  1035.32  1036.25  1036.41  1071.74
eigval :     1091.91  1093.78  1093.81  1135.51  1143.85  1143.87
eigval :     1146.82  1146.83  1152.53  1156.61  1163.90  1172.67
eigval :     1172.89  1195.04  1199.93  1208.45  1221.39  1221.40
eigval :     1221.63  1221.64  1223.52  1224.29  1229.74  1230.08
eigval :     1231.25  1231.82  1248.76  1251.98  1252.07  1260.82
eigval :     1260.83  1261.19  1271.29  1272.13  1289.87  1289.93
eigval :     1298.63  1305.42  1308.17  1312.19  1316.09  1318.02
eigval :     1324.71  1332.58  1332.89  1341.11  1341.20  1363.49
eigval :     1377.30  1396.26  1396.30  1397.69  1398.10  1399.81
eigval :     1399.84  1400.43  1400.47  1402.34  1402.38  1406.14
eigval :     1407.71  1413.96  1414.40  1415.85  1415.91  1421.52
eigval :     1422.32  1425.52  1425.56  1426.38  1426.39  1454.05
eigval :     1454.07  1471.65  1473.60  1478.73  1478.92  1480.83
eigval :     1481.70  1481.75  1484.41  1485.61  1485.66  1486.84
eigval :     1486.86  1487.14  1488.14  1488.15  1489.24  1489.41
eigval :     1490.69  1490.79  1494.17  1494.32  1496.48  1496.51
eigval :     1497.33  1497.65  1499.14  1499.25  1500.12  1500.70
eigval :     1509.63  1509.67  1510.95  1510.96  1514.71  1514.79
eigval :     1515.23  1515.38  1533.90  1533.95  1544.72  1549.09
eigval :     1550.62  1576.24  1576.26  1585.08  1594.44  1623.35
eigval :     3023.82  3023.85  3024.73  3024.75  3025.64  3025.67
eigval :     3025.69  3025.71  3027.89  3027.90  3028.36  3028.37
eigval :     3029.48  3029.49  3029.67  3029.69  3029.69  3029.70
eigval :     3031.22  3031.24  3031.90  3031.99  3032.47  3032.56
eigval :     3033.96  3033.97  3035.01  3035.02  3038.51  3038.60
eigval :     3039.55  3039.62  3047.45  3047.49  3048.87  3048.88
eigval :     3050.61  3050.65  3051.76  3051.78  3052.29  3052.31
eigval :     3053.59  3053.62  3058.39  3058.43  3061.90  3062.11
eigval :     3090.66  3090.97  3092.32  3092.38  3103.51  3103.94
eigval :     3111.32  3111.43  3124.18  3124.37  3137.18  3137.24

   temp. (K)  partition function   enthalpy   heat capacity  entropy
                                   cal/mol     cal/K/mol   cal/K/mol   J/K/mol
 298.15  VIB  0.539E+33            41879.804    247.912    261.851
         ROT  0.158E+09              888.752      2.981     40.492
         INT  0.850E+41            42768.556    250.893    302.342
         TR   0.278E+29             1481.254      4.968     46.367
         TOT                       44249.8102   255.8611   348.7091  1458.9990

       T/K    H(0)-H(T)+PV         H(T)/Eh          T*S/Eh         G(T)/Eh
   ------------------------------------------------------------------------
    298.15    0.705166E-01    0.109088E+01    0.165683E+00    0.925197E+00
   ------------------------------------------------------------------------

         :::::::::::::::::::::::::::::::::::::::::::::::::::::
         ::                  THERMODYNAMIC                  ::
         :::::::::::::::::::::::::::::::::::::::::::::::::::::
         :: total free energy        -197.712842046075 Eh   ::
         ::.................................................::
         :: total energy             -198.638038919147 Eh   ::
         :: zero point energy           1.020363274645 Eh   ::
         :: G(RRHO) w/o ZPVE           -0.095166401572 Eh   ::
         :: G(RRHO) contrib.            0.925196873072 Eh   ::
         :::::::::::::::::::::::::::::::::::::::::::::::::::::

           -------------------------------------------------
          | TOTAL ENERGY             -198.638038919147 Eh   |
          | TOTAL ENTHALPY           -197.547159083426 Eh   |
          | TOTAL FREE ENERGY        -197.712842046075 Eh   |
          | GRADIENT NORM               0.000071803332 Eh/α |
          | HOMO-LUMO GAP               1.090527898104 eV   |
           -------------------------------------------------

 * finished run on 2025/09/04 at 08:28:50.947
