   * xtb version 6.7.1 (edcfbbe) compiled by 'albert@albert-system' on 2024-07-22

   ID    Z sym.   atoms
    1    6 C      1-6, 8-13, 15-21, 23-28, 30-35, 37
    2    8 O      7, 29
    3    7 N      14, 22, 36, 38
    4    1 H      39-58

          program call               : xtb data2507/gas/PXZ-ND/PXZ-ND.xyz --gfn 2 --ohess vtight --parallel 40 --molden --ceasefiles --namespace data2507/gas/PXZ-ND/PXZ-ND_gas_S0_preOpt
          :  Hamiltonian                  GFN2-xTB          :
 * total energy  :   -98.5852374 Eh     change       -0.1365990E-08 Eh
 * total energy  :   -98.5982912 Eh     change       -0.1305385E-01 Eh
 * total energy  :   -98.6037745 Eh     change       -0.5483285E-02 Eh
 * total energy  :   -98.6058532 Eh     change       -0.2078680E-02 Eh
 * total energy  :   -98.6074251 Eh     change       -0.1571976E-02 Eh
 * total energy  :   -98.6083160 Eh     change       -0.8908722E-03 Eh
 * total energy  :   -98.6089101 Eh     change       -0.5940483E-03 Eh
 * total energy  :   -98.6093089 Eh     change       -0.3988549E-03 Eh
 * total energy  :   -98.6096563 Eh     change       -0.3473371E-03 Eh
 * total energy  :   -98.6100081 Eh     change       -0.3518980E-03 Eh
 * total energy  :   -98.6158485 Eh     change       -0.1040774E-05 Eh
 * total energy  :   -98.6158495 Eh     change       -0.9935620E-06 Eh
 * total energy  :   -98.6158504 Eh     change       -0.9441050E-06 Eh
 * total energy  :   -98.6158513 Eh     change       -0.8926185E-06 Eh
 * total energy  :   -98.6158522 Eh     change       -0.8460808E-06 Eh
 * total energy  :   -98.6158530 Eh     change       -0.8022125E-06 Eh
 * total energy  :   -98.6158538 Eh     change       -0.7675732E-06 Eh
 * total energy  :   -98.6158545 Eh     change       -0.7357648E-06 Eh
 * total energy  :   -98.6158545 Eh     change       -0.8314274E-08 Eh
   *** GEOMETRY OPTIMIZATION CONVERGED AFTER 185 ITERATIONS ***

 final structure:
================
58
 xtb: 6.7.1 (edcfbbe)
C            6.97130060991913       -2.33257303154686       -0.49755084650593
C            5.74497742085868       -2.94162826275854       -0.69391800882121
C            4.57511332487149       -2.21546792695036       -0.55199141380913
C            4.61567113398355       -0.87444343542132       -0.18766946970046
C            5.86091676884751       -0.25250508957735       -0.05449242322020
C            7.03008253460989       -0.98206201121870       -0.19792276440878
O            5.96219275076656        1.08623754037254        0.20637394410294
C            4.84922958737925        1.83892746516980       -0.09189064655983
C            5.03629180335825        3.20209483280484       -0.24445754108137
C            3.95983733781804        4.02099073144324       -0.54066188844154
C            2.70515751078085        3.46580240922847       -0.70479869523671
C            2.51282029593018        2.10070740901528       -0.56447534151637
C            3.57694253103278        1.27158813275963       -0.23696445681897
N            3.44707733636248       -0.11558365866342       -0.00841872104505
C            2.29147498953150       -0.70915742287404        0.46580111351378
C            2.39420944382361       -1.78814120635317        1.38658040914273
C            1.25010678476565       -2.35356549758047        1.86826515513321
C           -0.00004689722003       -1.86507474032835        1.44232129948298
C           -1.25022494527214       -2.35349467321258        1.86827410082532
C           -2.39429903007074       -1.78800930090217        1.38659297480328
C           -2.29151010148866       -0.70903232285445        0.46581177166169
N           -3.44708258348180       -0.11539061940554       -0.00839587509867
C           -4.61572491559525       -0.87417995337444       -0.18762908356612
C           -4.57525303620422       -2.21520474074203       -0.55195915293741
C           -5.74516284079070       -2.94129470523731       -0.69387011115037
C           -6.97144609198434       -2.33216868595822       -0.49747386315726
C           -7.03014267382454       -0.98165579358338       -0.19783745414736
C           -5.86093117190751       -0.25216827300219       -0.05442619507163
O           -5.96212331836522        1.08657950025241        0.20644618923063
C           -4.84911999563912        1.83920483030371       -0.09183171056670
C           -5.03610302998084        3.20238463054449       -0.24438608323442
C           -3.95960483955369        4.02121781585093       -0.54060473948439
C           -2.70496156651213        3.46595523967016       -0.70476944824832
C           -2.51270334328579        2.10084803795708       -0.56445625525895
C           -3.57686916922629        1.27179061932931       -0.23693069079536
N           -1.13432221132102       -0.22121315008958        0.07958149515140
C           -0.00001914416186       -0.76520570956173        0.53994487338225
N            1.13431163639569       -0.22127399125889        0.07957856918880
H            7.88384936816188       -2.89938129256079       -0.59554501537897
H            5.69220222193203       -3.98570522645117       -0.96128963957157
H            3.61882305511993       -2.68825988659264       -0.71703389371949
H            7.97229210304149       -0.47449028268202       -0.06694265195039
H            6.03045674180641        3.59975787013547       -0.11572230075248
H            4.11010799101113        5.08412392786224       -0.64761291308539
H            1.86111931661427        4.09354243418585       -0.94553732625451
H            1.53568563898900        1.66480818248450       -0.68152514813507
H            3.36397250110961       -2.12039617970937        1.72228605041042
H            1.28864069926876       -3.16215454869611        2.58578906774036
H           -1.28879988302090       -3.16208884094049        2.58578997530651
H           -3.36407853167198       -2.12021314066244        1.72230139706683
H           -3.61899346535703       -2.68805440909337       -0.71701406214693
H           -5.69245375939703       -3.98537708635670       -0.96123380314118
H           -7.88403014563492       -2.89892360315120       -0.59544893305666
H           -7.97231984168720       -0.47402827506543       -0.06684032474887
H           -6.03024212291069        3.60010616387048       -0.11563123395582
H           -4.10981302061326        5.08436126501962       -0.64754269652522
H           -1.86088855929057        4.09364735968834       -0.94551135960160
H           -1.53559620261927        1.66489157646548       -0.68152320421086

          :  Hamiltonian                  GFN2-xTB          :
         :: gradient norm              0.000068401057 Eh/a0 ::
         :: HOMO-LUMO gap              1.897821065186 eV    ::
         :: SCC energy              -100.273445030777 Eh    ::
         :: -> dispersion             -0.080811990975 Eh    ::
         :: repulsion energy           1.657590529162 Eh    ::

    * Orbital Energies and Occupations

         #    Occupation            Energy/Eh            Energy/eV
      -------------------------------------------------------------
         1        2.0000           -0.7297992             -19.8588
       ...           ...                  ...                  ...
        78        2.0000           -0.4244432             -11.5497
        79        2.0000           -0.4175213             -11.3613
        80        2.0000           -0.4151684             -11.2973
        81        2.0000           -0.4151036             -11.2955
        82        2.0000           -0.4118616             -11.2073
        83        2.0000           -0.4106321             -11.1739
        84        2.0000           -0.4095064             -11.1432
        85        2.0000           -0.3923445             -10.6762
        86        2.0000           -0.3897100             -10.6046
        87        2.0000           -0.3818229             -10.3899
        88        2.0000           -0.3569619              -9.7134
        89        2.0000           -0.3542441              -9.6395
        90        2.0000           -0.3477499              -9.4628 (HOMO)
        91                         -0.2780062              -7.5649 (LUMO)
        92                         -0.2465581              -6.7092
        93                         -0.2373661              -6.4591
        94                         -0.2367668              -6.4428
        95                         -0.2320332              -6.3139
        96                         -0.2298124              -6.2535
        97                         -0.2186479              -5.9497
        98                         -0.2158727              -5.8742
        99                         -0.2120459              -5.7701
       100                         -0.2053386              -5.5875
       101                         -0.1966138              -5.3501
       ...                                ...                  ...
       172                          0.6806532              18.5215
      -------------------------------------------------------------
                  HL-Gap            0.0697436 Eh            1.8978 eV

     #   Z          covCN         q      C6AA      α(0)
     1   6 C        2.920    -0.036    28.904     8.816
     2   6 C        2.919    -0.038    28.956     8.824
     3   6 C        2.923    -0.050    29.254     8.870
     4   6 C        2.931     0.041    27.086     8.535
     5   6 C        2.894     0.129    25.171     8.226
     6   6 C        2.919    -0.055    29.363     8.886
     7   8 O        1.708    -0.253    18.184     5.757
     8   6 C        2.895     0.125    25.260     8.240
     9   6 C        2.919    -0.055    29.362     8.886
    10   6 C        2.919    -0.037    28.912     8.817
    11   6 C        2.920    -0.036    28.898     8.815
    12   6 C        2.921    -0.056    29.392     8.890
    13   6 C        2.925     0.044    27.012     8.523
    14   7 N        2.756    -0.059    22.382     7.027
    15   6 C        2.895     0.153    24.688     8.147
    16   6 C        2.914    -0.062    29.543     8.913
    17   6 C        2.920    -0.022    28.554     8.763
    18   6 C        2.984    -0.026    28.643     8.779
    19   6 C        2.920    -0.022    28.554     8.763
    20   6 C        2.914    -0.062    29.543     8.913
    21   6 C        2.895     0.153    24.688     8.147
    22   7 N        2.756    -0.059    22.382     7.027
    23   6 C        2.931     0.041    27.086     8.535
    24   6 C        2.923    -0.050    29.254     8.870
    25   6 C        2.919    -0.038    28.956     8.824
    26   6 C        2.920    -0.036    28.904     8.816
    27   6 C        2.919    -0.055    29.363     8.886
    28   6 C        2.894     0.129    25.171     8.226
    29   8 O        1.708    -0.253    18.184     5.757
    30   6 C        2.895     0.125    25.260     8.240
    31   6 C        2.919    -0.055    29.362     8.886
    32   6 C        2.919    -0.037    28.912     8.817
    33   6 C        2.920    -0.036    28.898     8.815
    34   6 C        2.921    -0.056    29.392     8.890
    35   6 C        2.925     0.044    27.012     8.523
    36   7 N        1.857    -0.271    27.876     7.826
    37   6 C        2.943     0.171    24.328     8.090
    38   7 N        1.857    -0.271    27.876     7.826
    39   1 H        0.926     0.042     2.420     2.433
    40   1 H        0.926     0.040     2.447     2.446
    41   1 H        0.926     0.040     2.446     2.446
    42   1 H        0.926     0.054     2.273     2.358
    43   1 H        0.926     0.051     2.308     2.376
    44   1 H        0.926     0.040     2.447     2.446
    45   1 H        0.926     0.042     2.428     2.437
    46   1 H        0.926     0.087     1.910     2.161
    47   1 H        0.926     0.036     2.497     2.471
    48   1 H        0.925     0.034     2.535     2.490
    49   1 H        0.925     0.034     2.535     2.490
    50   1 H        0.926     0.036     2.497     2.471
    51   1 H        0.926     0.040     2.446     2.446
    52   1 H        0.926     0.040     2.447     2.446
    53   1 H        0.926     0.042     2.420     2.433
    54   1 H        0.926     0.054     2.273     2.358
    55   1 H        0.926     0.051     2.308     2.376
    56   1 H        0.926     0.040     2.447     2.446
    57   1 H        0.926     0.042     2.428     2.437
    58   1 H        0.926     0.087     1.910     2.161

molecular dipole:
                 x           y           z       tot (Debye)
 q only:       -0.000      -0.290      -0.155
   full:       -0.000      -1.030       0.447       2.853

 projected vibrational frequencies (cm⁻¹)
eigval :       -0.00    -0.00    -0.00     0.00     0.00     0.00
eigval :       11.11    14.11    33.64    35.84    52.69    65.01
eigval :       73.45    73.58   102.01   105.79   118.19   141.09
eigval :      162.70   185.00   205.28   226.58   231.29   252.03
eigval :      256.16   275.05   289.75   301.08   312.04   313.01
eigval :      339.98   369.78   386.81   397.23   405.37   411.19
eigval :      415.29   434.25   439.97   442.21   453.73   457.14
eigval :      466.33   505.23   507.95   527.28   529.01   536.45
eigval :      543.36   548.28   551.19   577.72   584.03   611.05
eigval :      615.62   624.04   626.25   656.79   657.76   670.25
eigval :      670.72   674.27   686.16   691.90   742.67   778.73
eigval :      782.62   784.63   784.75   792.14   799.99   806.08
eigval :      816.26   843.40   847.53   855.77   856.55   872.43
eigval :      875.46   875.68   876.44   888.30   904.74   905.23
eigval :      906.03   907.81   915.60   915.80   917.95   918.91
eigval :      920.46   921.72   925.57   927.25   985.19  1035.87
eigval :     1085.04  1085.43  1086.35  1087.21  1102.35  1103.50
eigval :     1120.33  1122.59  1140.61  1161.10  1169.47  1171.02
eigval :     1174.85  1175.14  1180.59  1185.07  1199.71  1200.15
eigval :     1221.19  1226.58  1239.14  1240.40  1242.58  1250.73
eigval :     1251.32  1287.31  1299.44  1304.99  1309.61  1317.87
eigval :     1321.98  1329.63  1334.49  1338.95  1361.09  1366.81
eigval :     1422.30  1422.53  1427.16  1438.70  1443.44  1447.01
eigval :     1469.40  1472.29  1481.65  1493.19  1493.77  1526.15
eigval :     1562.92  1571.91  1572.57  1577.13  1577.24  1589.44
eigval :     1589.98  1593.45  1597.08  1598.63  3055.65  3059.05
eigval :     3087.96  3088.02  3088.46  3088.92  3094.58  3094.65
eigval :     3097.35  3097.92  3098.41  3098.91  3103.30  3103.36
eigval :     3109.74  3109.85  3113.33  3113.40  3133.28  3135.47

   temp. (K)  partition function   enthalpy   heat capacity  entropy
                                   cal/mol     cal/K/mol   cal/K/mol   J/K/mol
 298.15  VIB  0.259E+12            15935.977    106.513     96.562
         ROT  0.399E+08              888.752      2.981     37.763
         INT  0.104E+20            16824.730    109.494    134.325
         TR   0.106E+29             1481.254      4.968     44.450
         TOT                       18305.9835   114.4621   178.7749   747.9943

       T/K    H(0)-H(T)+PV         H(T)/Eh          T*S/Eh         G(T)/Eh
   ------------------------------------------------------------------------
    298.15    0.291724E-01    0.459456E+00    0.849417E-01    0.374515E+00
   ------------------------------------------------------------------------

         :::::::::::::::::::::::::::::::::::::::::::::::::::::
         ::                  THERMODYNAMIC                  ::
         :::::::::::::::::::::::::::::::::::::::::::::::::::::
         :: total free energy         -98.241339773805 Eh   ::
         ::.................................................::
         :: total energy              -98.615854501617 Eh   ::
         :: zero point energy           0.430284026424 Eh   ::
         :: G(RRHO) w/o ZPVE           -0.055769298612 Eh   ::
         :: G(RRHO) contrib.            0.374514727812 Eh   ::
         :::::::::::::::::::::::::::::::::::::::::::::::::::::

           -------------------------------------------------
          | TOTAL ENERGY              -98.615854501617 Eh   |
          | TOTAL ENTHALPY            -98.156398033522 Eh   |
          | TOTAL FREE ENERGY         -98.241339773805 Eh   |
          | GRADIENT NORM               0.000068402958 Eh/α |
          | HOMO-LUMO GAP               1.897820782074 eV   |
           -------------------------------------------------

 * finished run on 2025/09/07 at 22:00:31.604
