   * xtb version 6.7.1 (edcfbbe) compiled by 'albert@albert-system' on 2024-07-22

   ID    Z sym.   atoms
    1    6 C      1-6, 8-13, 15-21, 23-28, 30-35, 37
    2    8 O      7, 29
    3    7 N      14, 22, 36, 38
    4    1 H      39-58

          program call               : xtb data2507/gas/PXZ-ND/PXZ-ND_gas_S0_finalOpt.xtbopt.xyz --gfn 2 --spinpol --tblite --uhf 2 --ohess vtight --parallel 40 --molden --ceasefiles --namespace data2507/gas/PXZ-ND/PXZ-ND_gas_T1_preOpt
 * total energy  :   -98.5395595 Eh     change       -0.5588817E-08 Eh
 * total energy  :   -98.5439460 Eh     change       -0.4386457E-02 Eh
 * total energy  :   -98.5455090 Eh     change       -0.1563031E-02 Eh
 * total energy  :   -98.5458600 Eh     change       -0.3509165E-03 Eh
 * total energy  :   -98.5462161 Eh     change       -0.3561460E-03 Eh
 * total energy  :   -98.5464269 Eh     change       -0.2108020E-03 Eh
 * total energy  :   -98.5466449 Eh     change       -0.2180415E-03 Eh
 * total energy  :   -98.5468398 Eh     change       -0.1948851E-03 Eh
 * total energy  :   -98.5470081 Eh     change       -0.1682448E-03 Eh
 * total energy  :   -98.5471566 Eh     change       -0.1485771E-03 Eh
 * total energy  :   -98.5487118 Eh     change       -0.8111230E-06 Eh
 * total energy  :   -98.5487126 Eh     change       -0.7606050E-06 Eh
 * total energy  :   -98.5487134 Eh     change       -0.7838798E-06 Eh
 * total energy  :   -98.5487142 Eh     change       -0.7912603E-06 Eh
 * total energy  :   -98.5487150 Eh     change       -0.8214483E-06 Eh
 * total energy  :   -98.5487158 Eh     change       -0.8260424E-06 Eh
 * total energy  :   -98.5487167 Eh     change       -0.8483361E-06 Eh
 * total energy  :   -98.5487167 Eh     change        0.8165614E-08 Eh
 * total energy  :   -98.5487167 Eh     change       -0.5243209E-08 Eh
   *** GEOMETRY OPTIMIZATION CONVERGED AFTER 186 ITERATIONS ***

 final structure:
================
58
 xtb: 6.7.1 (edcfbbe)
C            6.78712477037726       -2.42092034725139       -1.30773353513338
C            5.52767917660341       -2.99473520390834       -1.27326140475264
C            4.43012211734179       -2.25207801046330       -0.87895129761286
C            4.57126300357176       -0.91853164214734       -0.49916636412931
C            5.84505392681088       -0.33465504128886       -0.58529224354040
C            6.94104628571870       -1.08495887952255       -0.97664697566266
O            6.05694884593808        0.98538405739430       -0.29984975692493
C            4.95037141985821        1.76934729783321       -0.10669981501248
C            5.15884947743485        3.13496761623100       -0.01169452187633
C            4.08826894546214        3.99004593770798        0.18951725573166
C            2.80926704535662        3.47209173940824        0.29016723341786
C            2.59375799567285        2.10857665796380        0.20033479783278
C            3.65707491128718        1.23323395324350       -0.00007430293593
N            3.48937022812303       -0.15060789518171       -0.07922519298635
C            2.32468084923751       -0.77930510321943        0.39493704095462
C            2.41992011272511       -1.80606299783453        1.31958798685361
C            1.24985425767500       -2.37959526482109        1.80540748621529
C            0.00246729206110       -1.89732728161298        1.38345187922823
C           -1.24448061809251       -2.38182773897934        1.80411985606962
C           -2.41507448575495       -1.81029496831991        1.31721359504398
C           -2.32072110369251       -0.78326171280566        0.39278119922251
N           -3.48604058656883       -0.15641505942287       -0.08226230286296
C           -4.56643707365484       -0.92605969569591       -0.50293487448151
C           -4.42280325776300       -2.25922658164248       -0.88309071203034
C           -5.51889763245097       -3.00364429559070       -1.27815429573859
C           -6.77931475239279       -2.43198999703995       -1.31299546572794
C           -6.93570206508097       -1.09640891985931       -0.98151946810359
C           -5.84118029573771       -0.34435353613709       -0.58942882934279
O           -6.05547257333413        0.97523630979705       -0.30361125595753
C           -4.95028583315803        1.76106196046143       -0.10991876187912
C           -5.16113171876930        3.12630126468869       -0.01471468333158
C           -4.09206640700050        3.98316469841676        0.18697341045032
C           -2.81220778994621        3.46737997599467        0.28787711055994
C           -2.59435202520994        2.10424580755377        0.19787279294327
C           -3.65612612586360        1.22714831499917       -0.00296691093706
N           -1.13788567548748       -0.32272516897975       -0.03970642463571
C            0.00199797783837       -0.81981820636273        0.42418869493579
N            1.14145548560577       -0.32079019353816       -0.03867011087357
H            7.64590328986810       -3.00229607791832       -1.60368803367414
H            5.39381775725075       -4.02743931008189       -1.55577323838561
H            3.44898464562703       -2.69971428566336       -0.86502192349615
H            7.90443414241514       -0.60219565028097       -1.01413183897916
H            6.16890346040519        3.50417162382563       -0.09082691687158
H            4.25873570227150        5.05227139438652        0.26861011472355
H            1.96812301646603        4.12994962336336        0.44502902590434
H            1.59678502019093        1.70553762190153        0.26866201981514
H            3.38687905382278       -2.12440570092742        1.67750953974026
H            1.29342875763002       -3.17892056751981        2.52855337172934
H           -1.28736844601111       -3.18129210545437        2.52715453615902
H           -3.38182253109516       -2.13034974040623        1.67418505411286
H           -3.44089543016874       -2.70516749302658       -0.86883501563110
H           -5.38313520066013       -4.03602176726050       -1.56095921684321
H           -7.63695413077909       -3.01475271278150       -1.60952831475177
H           -7.89991581643171       -0.61531195940712       -1.01925614797610
H           -6.17179024442311        3.49380491308573       -0.09407203423994
H           -4.26436431892192        5.04508245267243        0.26622260348456
H           -1.97223036642848        4.12664977593581        0.44307104490214
H           -1.59671780868000        1.70287142095567        0.26642587726492

 projected vibrational frequencies (cm⁻¹)
eigval :       -0.00    -0.00    -0.00    -0.00     0.00     0.00
eigval :       10.33    13.50    26.21    30.85    49.79    50.95
eigval :       67.20    68.96   102.23   109.51   119.24   143.01
eigval :      146.46   191.23   201.45   211.86   238.92   247.52
eigval :      249.51   264.71   283.91   285.82   300.40   302.77
eigval :      330.47   369.82   389.74   394.50   399.37   415.45
eigval :      419.86   436.05   438.27   441.32   453.83   454.95
eigval :      476.77   502.03   503.15   516.01   516.71   523.99
eigval :      532.19   538.58   542.48   568.97   572.81   589.68
eigval :      605.97   613.38   614.89   622.03   661.21   665.99
eigval :      667.80   670.08   678.18   684.32   696.88   736.17
eigval :      759.25   774.52   779.08   779.87   780.15   781.87
eigval :      790.42   796.21   837.62   841.90   850.35   855.58
eigval :      856.72   857.04   865.92   868.74   872.00   872.57
eigval :      899.93   900.96   901.81   902.08   914.01   914.49
eigval :      916.49   917.53   917.91   918.01   975.44  1029.81
eigval :     1085.10  1085.22  1085.98  1086.85  1106.42  1109.92
eigval :     1112.02  1123.51  1125.10  1128.61  1169.27  1171.75
eigval :     1173.33  1174.21  1185.46  1187.68  1203.56  1206.15
eigval :     1208.18  1218.49  1227.86  1237.45  1238.17  1250.16
eigval :     1252.88  1281.20  1286.44  1291.84  1306.86  1310.78
eigval :     1313.11  1317.07  1318.18  1325.03  1341.68  1345.24
eigval :     1354.56  1379.66  1407.55  1419.81  1420.50  1441.20
eigval :     1442.02  1452.49  1453.19  1459.29  1469.21  1484.09
eigval :     1497.22  1521.90  1558.70  1558.86  1564.87  1565.58
eigval :     1576.55  1579.55  1588.26  1589.46  3078.83  3081.90
eigval :     3090.31  3090.95  3091.54  3092.42  3092.45  3093.07
eigval :     3100.24  3100.83  3101.15  3101.24  3108.22  3108.40
eigval :     3111.64  3111.96  3113.49  3114.01  3114.13  3115.89

   temp. (K)  partition function   enthalpy   heat capacity  entropy
                                   cal/mol     cal/K/mol   cal/K/mol   J/K/mol
 298.15  VIB  0.810E+12            16232.975    107.628     98.488
         ROT  0.407E+08              888.752      2.981     37.801
         INT  0.330E+20            17121.727    110.609    136.289
         TR   0.106E+29             1481.254      4.968     44.450
         TOT                       18602.9811   115.5768   180.7391   756.2123

       T/K    H(0)-H(T)+PV         H(T)/Eh          T*S/Eh         G(T)/Eh
   ------------------------------------------------------------------------
    298.15    0.296457E-01    0.456293E+00    0.858750E-01    0.370418E+00
   ------------------------------------------------------------------------

         :::::::::::::::::::::::::::::::::::::::::::::::::::::
         ::                  THERMODYNAMIC                  ::
         :::::::::::::::::::::::::::::::::::::::::::::::::::::
         :: total free energy         -98.178298773886 Eh   ::
         ::.................................................::
         :: total energy              -98.548716674316 Eh   ::
         :: zero point energy           0.426647135382 Eh   ::
         :: G(RRHO) w/o ZPVE           -0.056229234953 Eh   ::
         :: G(RRHO) contrib.            0.370417900429 Eh   ::
         :::::::::::::::::::::::::::::::::::::::::::::::::::::

           -------------------------------------------------
          | TOTAL ENERGY              -98.548716674316 Eh   |
          | TOTAL ENTHALPY            -98.092423801451 Eh   |
          | TOTAL FREE ENERGY         -98.178298773886 Eh   |
          | GRADIENT NORM               0.000075005323 Eh/α |
           -------------------------------------------------

 * finished run on 2025/09/07 at 22:03:04.167
