   * xtb version 6.7.1 (edcfbbe) compiled by 'albert@albert-system' on 2024-07-22

   ID    Z sym.   atoms
    1    6 C      1-6, 8-13, 15-21, 23-28, 30-35, 37
    2    8 O      7, 29
    3    7 N      14, 22, 36, 38
    4    1 H      39-58

          program call               : xtb data2507/gas/PXZ-ND/PXZ-ND_gas_T1_crest.xyz --gfn 2 --spinpol --tblite --uhf 2 --ohess vtight --parallel 40 --molden --ceasefiles --namespace data2507/gas/PXZ-ND/PXZ-ND_gas_T1_finalOpt
 * total energy  :   -98.5487310 Eh     change        0.1563876E-08 Eh
 * total energy  :   -98.5487486 Eh     change       -0.1757597E-04 Eh
 * total energy  :   -98.5487567 Eh     change       -0.8072306E-05 Eh
 * total energy  :   -98.5487581 Eh     change       -0.1420715E-05 Eh
 * total energy  :   -98.5487588 Eh     change       -0.6466456E-06 Eh
 * total energy  :   -98.5487592 Eh     change       -0.3993492E-06 Eh
 * total energy  :   -98.5487596 Eh     change       -0.4199541E-06 Eh
 * total energy  :   -98.5487598 Eh     change       -0.2678973E-06 Eh
 * total energy  :   -98.5487601 Eh     change       -0.2713616E-06 Eh
 * total energy  :   -98.5487604 Eh     change       -0.2369102E-06 Eh
 * total energy  :   -98.5487605 Eh     change       -0.1564991E-06 Eh
 * total energy  :   -98.5487607 Eh     change       -0.1901927E-06 Eh
 * total energy  :   -98.5487608 Eh     change       -0.1423274E-06 Eh
 * total energy  :   -98.5487610 Eh     change       -0.1286766E-06 Eh
 * total energy  :   -98.5487612 Eh     change       -0.2124143E-06 Eh
 * total energy  :   -98.5487613 Eh     change       -0.1297267E-06 Eh
 * total energy  :   -98.5487614 Eh     change       -0.1138256E-06 Eh
 * total energy  :   -98.5487615 Eh     change       -0.6200808E-07 Eh
   *** GEOMETRY OPTIMIZATION CONVERGED AFTER 18 ITERATIONS ***

 final structure:
================
58
 xtb: 6.7.1 (edcfbbe)
C            6.70440671212309       -2.55328722612143       -1.17217573598105
C            5.43834602690792       -3.10008390788715       -1.05138716094060
C            4.36762596724958       -2.31102689952844       -0.67363592016419
C            4.54321694604198       -0.95628590088184       -0.39770683446986
C            5.82237036516943       -0.40365245481444       -0.56935329216928
C            6.89136567423832       -1.20010922142668       -0.94370883658083
O            6.06576096492066        0.92922750084057       -0.38687776153682
C            4.98092407712371        1.74503179131167       -0.20249932615001
C            5.21559097186505        3.10960776022566       -0.20184510768105
C            4.16782816737670        3.99561993307654       -0.01430576138098
C            2.88530272893102        3.50948202155793        0.16777489105235
C            2.64360576981114        2.14735068472102        0.17209867339341
C            3.68380613957542        1.24157604149804       -0.01373607499107
N            3.48951751100690       -0.14002413832547        0.00089351745976
C            2.32247749114925       -0.71352055435314        0.53729642799941
C            2.41871800576407       -1.66421950622815        1.53935216206861
C            1.24875041918358       -2.19117474000241        2.07546407227650
C            0.00165062880234       -1.74133862280292        1.61847905885325
C           -1.24442364280316       -2.19451915208110        2.07516976473100
C           -2.41560040034469       -1.67003318423175        1.53923139007111
C           -2.32139943754500       -0.71799722018792        0.53836740217501
N           -3.48976943690798       -0.14565520217404        0.00319139606123
C           -4.53942056209295       -0.96315678052342       -0.40303777674718
C           -4.35906775873432       -2.31648761032019       -0.68271633751722
C           -5.42580681611879       -3.10672957960462       -1.06922376140253
C           -6.69247126179570       -2.56252320400002       -1.19510117777556
C           -6.88408364934523       -1.21074552701513       -0.96214776631599
C           -5.81917099243985       -0.41312828243617       -0.57880121546893
O           -6.06722384806443        0.91827139024573       -0.39167746438280
C           -4.98607729634465        1.73605264852734       -0.19506517419429
C           -5.22503370847683        3.09983828096570       -0.18528839998316
C           -4.18108987334632        3.98765367061118        0.01472112955608
C           -2.89802943723190        3.50417258094604        0.20002048435190
C           -2.65208602504547        2.14279877685550        0.19539995633597
C           -3.68843367640603        1.23524301352145       -0.00285997378208
N           -1.13995624595071       -0.28151884168940        0.07797521827090
C            0.00050843756168       -0.74076922913339        0.57878616826758
N            1.13995250082313       -0.28000104785546        0.07704921455726
H            7.54245012842960       -3.16993347655810       -1.45592603931543
H            5.27800180324727       -4.14782818780429       -1.25323008313996
H            3.38088405298421       -2.73872888161636       -0.59267972628380
H            7.86026420747453       -0.73909229108293       -1.04987909920389
H            6.22768674844302        3.45402058026668       -0.34267559758756
H            4.35878559376762        5.05728176041985       -0.00924737571954
H            2.06215477294173        4.19184017992099        0.31298474579697
H            1.64328314938598        1.76905102082327        0.30290167176790
H            3.38674371014292       -1.96086523617647        1.91271363565436
H            1.29212758399668       -2.93119514813542        2.85919546499328
H           -1.28602647599100       -2.93502889798955        2.85852505181699
H           -3.38303942395904       -1.96938388340262        1.91196336761201
H           -3.37174714397912       -2.74209197976963       -0.59794933240291
H           -5.26182725531189       -4.15334195113424       -1.27399979813404
H           -7.52737844898169       -3.18005323566241       -1.48608385106078
H           -7.85356044435249       -0.75174042526477       -1.07171238330302
H           -6.23741089916785        3.44219908498885       -0.32902974378721
H           -4.37541943743290        5.04864085185174        0.02684430246577
H           -2.07783550120786        4.18796949502682        0.35485663324499
H           -1.65126427266053        1.76684607881850        0.32884109541983

 projected vibrational frequencies (cm⁻¹)
eigval :       -0.00    -0.00     0.00     0.00     0.00     0.00
eigval :       10.04    13.35    25.32    30.24    48.77    49.53
eigval :       67.28    67.74   102.54   110.26   118.21   142.93
eigval :      145.59   190.42   198.21   211.16   240.11   247.41
eigval :      249.05   264.73   282.94   285.34   300.17   302.64
eigval :      329.34   370.28   390.08   394.38   398.85   415.86
eigval :      420.40   435.29   437.77   440.53   453.83   454.52
eigval :      477.76   502.13   503.26   515.51   516.09   523.86
eigval :      531.43   538.61   542.30   569.60   573.06   589.49
eigval :      606.55   614.04   614.86   621.72   661.57   665.88
eigval :      667.63   669.97   677.65   683.92   697.61   736.34
eigval :      759.51   774.48   778.56   779.44   779.94   781.12
eigval :      790.17   795.87   838.06   841.81   850.23   855.83
eigval :      856.67   856.97   864.78   867.34   871.36   871.91
eigval :      899.37   900.30   901.49   901.70   913.98   914.50
eigval :      916.29   917.10   917.64   917.73   975.24  1029.97
eigval :     1085.27  1085.37  1086.37  1086.84  1106.17  1110.37
eigval :     1112.06  1123.31  1124.93  1128.75  1170.02  1171.52
eigval :     1173.58  1174.40  1185.78  1188.09  1203.76  1206.37
eigval :     1208.17  1219.05  1228.59  1237.89  1238.36  1251.04
eigval :     1253.63  1281.56  1286.59  1290.90  1307.69  1311.36
eigval :     1313.52  1317.09  1318.07  1325.19  1342.38  1345.72
eigval :     1354.27  1379.17  1407.14  1419.87  1420.62  1441.27
eigval :     1442.24  1452.62  1453.50  1459.17  1469.72  1484.30
eigval :     1497.36  1522.64  1558.82  1558.99  1565.06  1565.73
eigval :     1576.56  1579.59  1588.42  1589.61  3079.05  3082.02
eigval :     3090.70  3091.40  3091.89  3092.61  3092.62  3093.25
eigval :     3100.68  3101.19  3101.42  3101.55  3108.71  3108.98
eigval :     3112.03  3112.21  3113.75  3114.27  3116.46  3118.24

   temp. (K)  partition function   enthalpy   heat capacity  entropy
                                   cal/mol     cal/K/mol   cal/K/mol   J/K/mol
 298.15  VIB  0.958E+12            16249.088    107.574     98.654
         ROT  0.409E+08              888.752      2.981     37.812
         INT  0.392E+20            17137.840    110.555    136.466
         TR   0.106E+29             1481.254      4.968     44.450
         TOT                       18619.0943   115.5227   180.9162   756.9533

       T/K    H(0)-H(T)+PV         H(T)/Eh          T*S/Eh         G(T)/Eh
   ------------------------------------------------------------------------
    298.15    0.296714E-01    0.456315E+00    0.859591E-01    0.370356E+00
   ------------------------------------------------------------------------

         :::::::::::::::::::::::::::::::::::::::::::::::::::::
         ::                  THERMODYNAMIC                  ::
         :::::::::::::::::::::::::::::::::::::::::::::::::::::
         :: total free energy         -98.178405901502 Eh   ::
         ::.................................................::
         :: total energy              -98.548761534561 Eh   ::
         :: zero point energy           0.426643331154 Eh   ::
         :: G(RRHO) w/o ZPVE           -0.056287698095 Eh   ::
         :: G(RRHO) contrib.            0.370355633059 Eh   ::
         :::::::::::::::::::::::::::::::::::::::::::::::::::::

           -------------------------------------------------
          | TOTAL ENERGY              -98.548761534561 Eh   |
          | TOTAL ENTHALPY            -98.092446787931 Eh   |
          | TOTAL FREE ENERGY         -98.178405901502 Eh   |
          | GRADIENT NORM               0.000070792991 Eh/α |
           -------------------------------------------------

 * finished run on 2025/09/07 at 22:06:12.061
