   * xtb version 6.7.1 (edcfbbe) compiled by 'albert@albert-system' on 2024-07-22

   ID    Z sym.   atoms
    1    6 C      1-6, 8-13, 15-21, 23-28, 30-35, 37
    2    8 O      7, 29
    3    7 N      14, 22, 36, 38
    4    1 H      39-58

          program call               : xtb data2507/gas/PXZ-ND/PXZ-ND_gas_S0_crest.xyz --gfn 2 --ohess vtight --parallel 40 --molden --ceasefiles --namespace data2507/gas/PXZ-ND/PXZ-ND_gas_S0_finalOpt
          :  Hamiltonian                  GFN2-xTB          :
 * total energy  :   -98.6158770 Eh     change       -0.1288242E-08 Eh
 * total energy  :   -98.6158777 Eh     change       -0.6412258E-06 Eh
 * total energy  :   -98.6158790 Eh     change       -0.1272651E-05 Eh
 * total energy  :   -98.6158808 Eh     change       -0.1816409E-05 Eh
 * total energy  :   -98.6158821 Eh     change       -0.1276194E-05 Eh
 * total energy  :   -98.6158827 Eh     change       -0.6460659E-06 Eh
 * total energy  :   -98.6158832 Eh     change       -0.5411780E-06 Eh
 * total energy  :   -98.6158841 Eh     change       -0.8623915E-06 Eh
 * total energy  :   -98.6158854 Eh     change       -0.1322527E-05 Eh
 * total energy  :   -98.6158871 Eh     change       -0.1696148E-05 Eh
 * total energy  :   -98.6159001 Eh     change       -0.2195989E-06 Eh
 * total energy  :   -98.6159003 Eh     change       -0.1925204E-06 Eh
 * total energy  :   -98.6159004 Eh     change       -0.1738768E-06 Eh
 * total energy  :   -98.6159006 Eh     change       -0.1606821E-06 Eh
 * total energy  :   -98.6159008 Eh     change       -0.1476117E-06 Eh
 * total energy  :   -98.6159009 Eh     change       -0.1320915E-06 Eh
 * total energy  :   -98.6159010 Eh     change       -0.1177967E-06 Eh
 * total energy  :   -98.6159011 Eh     change       -0.1063540E-06 Eh
 * total energy  :   -98.6159012 Eh     change       -0.9162927E-07 Eh
   *** GEOMETRY OPTIMIZATION CONVERGED AFTER 35 ITERATIONS ***

 final structure:
================
58
 xtb: 6.7.1 (edcfbbe)
C            7.04979115589697       -2.21512327330958       -0.73765038669241
C            5.85151722268535       -2.81481873039139       -1.08156320897860
C            4.65567267004353       -2.14524311759647       -0.88753050531418
C            4.64148265054821       -0.87445376655080       -0.32410969510523
C            5.86089135245470       -0.25148394253888       -0.04113817260160
C            7.05624259699880       -0.92449976604856       -0.23659856217440
O            5.91023941530650        1.03493467991681        0.42044008711710
C            4.79290746440644        1.79947919392617        0.17250731923462
C            4.94936798846534        3.17429555112490        0.21801220875892
C            3.86662789003375        4.00334555533757       -0.02133092375798
C            2.63832613203584        3.44999798523012       -0.32875306694202
C            2.47714723555413        2.07489282321677       -0.38619648363667
C            3.54570198176547        1.23113556584839       -0.11525217110802
N            3.44483018950361       -0.17760323291111       -0.08505398904728
C            2.29403505978621       -0.85275576302888        0.27527158052150
C            2.39712713058765       -2.06487101866717        1.01251439058194
C            1.25313481788789       -2.70502138760171        1.38996367740979
C            0.00219333311167       -2.15823270135207        1.04480153711325
C           -1.24814477261324       -2.70658275572900        1.38937707774806
C           -2.39257268006721       -2.06660253843144        1.01275619862821
C           -2.29014808307987       -0.85269663751111        0.27869493598212
N           -3.44264981917063       -0.17749000206095       -0.07818585933306
C           -4.63277475678125       -0.87857594215011       -0.33539677530630
C           -4.63341133882608       -2.14522102578465       -0.90828500401957
C           -5.82307002700169       -2.82008815843105       -1.12118960364750
C           -7.02860975031994       -2.22972805098187       -0.78690328091072
C           -7.04803453041861       -0.94298068151939       -0.27616481885761
C           -5.85894934686508       -0.26477485229411       -0.06170069324131
O           -5.92161401552310        1.01750397603713        0.40971831381410
C           -4.80396895030848        1.78959895684477        0.18831796808972
C           -4.96712277970444        3.16292013763609        0.25146310544627
C           -3.88452026907873        4.00013126104290        0.04158695651207
C           -2.64892540688124        3.45654455677131       -0.25367111795531
C           -2.48097437091018        2.08312615519960       -0.32921300407509
C           -3.55005703612011        1.23075984667321       -0.08897401270214
N           -1.13234960758643       -0.31616822687117       -0.03430666965976
C            0.00184468314088       -0.92867333494092        0.32950376382777
N            1.13547138792443       -0.31687277404706       -0.03653262950901
H            7.98190203668326       -2.74022701575273       -0.87580997961242
H            5.84147215886550       -3.80736922744337       -1.50477293050730
H            3.72138348028252       -2.60878173706475       -1.16598369449535
H            7.97660679286861       -0.42164567090168        0.01365755947173
H            5.92417923929067        3.57119139305838        0.45313818866306
H            3.99191864369968        5.07400601503280        0.02663919324033
H            1.79062602214767        4.08719688754602       -0.52820628459811
H            1.51932866797053        1.63971222561126       -0.61227467645622
H            3.36579276912994       -2.44256729266799        1.29951748576009
H            1.29272962735684       -3.61824866457710        1.96847447026808
H           -1.28699486745665       -3.62066855375211        1.96657350477228
H           -3.36130235253541       -2.44557447253310        1.29797920852541
H           -3.69340072754551       -2.60146550472262       -1.17941284017037
H           -5.80234390159962       -3.80934837751441       -1.55165520950016
H           -7.95609704856821       -2.75888838468920       -0.93986650197824
H           -7.97404458486347       -0.44718095566653       -0.03275321860922
H           -5.94725333159097        3.55209551778450        0.47720813633112
H           -4.01542091812277        5.06941376747234        0.10325460938751
H           -1.80073022077832        4.10012543941581       -0.42910035069275
H           -1.51778992191383        1.65518709200897       -0.54664856421029

          :  Hamiltonian                  GFN2-xTB          :
         :: gradient norm              0.000018665615 Eh/a0 ::
         :: HOMO-LUMO gap              1.923224307760 eV    ::
         :: SCC energy              -100.273498992957 Eh    ::
         :: -> dispersion             -0.080868495557 Eh    ::
         :: repulsion energy           1.657597794551 Eh    ::

    * Orbital Energies and Occupations

         #    Occupation            Energy/Eh            Energy/eV
      -------------------------------------------------------------
         1        2.0000           -0.7299268             -19.8623
       ...           ...                  ...                  ...
        78        2.0000           -0.4241925             -11.5429
        79        2.0000           -0.4173358             -11.3563
        80        2.0000           -0.4151647             -11.2972
        81        2.0000           -0.4149993             -11.2927
        82        2.0000           -0.4117756             -11.2050
        83        2.0000           -0.4099664             -11.1558
        84        2.0000           -0.4093016             -11.1377
        85        2.0000           -0.3923259             -10.6757
        86        2.0000           -0.3896105             -10.6018
        87        2.0000           -0.3810456             -10.3688
        88        2.0000           -0.3561468              -9.6912
        89        2.0000           -0.3545709              -9.6484
        90        2.0000           -0.3478472              -9.4654 (HOMO)
        91                         -0.2771700              -7.5422 (LUMO)
        92                         -0.2459952              -6.6939
        93                         -0.2372922              -6.4571
        94                         -0.2366095              -6.4385
        95                         -0.2321231              -6.3164
        96                         -0.2297193              -6.2510
        97                         -0.2187573              -5.9527
        98                         -0.2156420              -5.8679
        99                         -0.2117671              -5.7625
       100                         -0.2057064              -5.5976
       101                         -0.1964599              -5.3459
       ...                                ...                  ...
       172                          0.6812380              18.5374
      -------------------------------------------------------------
                  HL-Gap            0.0706772 Eh            1.9232 eV

     #   Z          covCN         q      C6AA      α(0)
     1   6 C        2.920    -0.036    28.900     8.816
     2   6 C        2.919    -0.039    28.957     8.824
     3   6 C        2.923    -0.050    29.246     8.869
     4   6 C        2.931     0.041    27.090     8.536
     5   6 C        2.895     0.129    25.169     8.225
     6   6 C        2.918    -0.055    29.361     8.886
     7   8 O        1.708    -0.253    18.184     5.758
     8   6 C        2.895     0.125    25.259     8.240
     9   6 C        2.919    -0.055    29.361     8.886
    10   6 C        2.919    -0.036    28.907     8.817
    11   6 C        2.920    -0.036    28.897     8.815
    12   6 C        2.921    -0.055    29.377     8.888
    13   6 C        2.925     0.044    27.013     8.523
    14   7 N        2.756    -0.059    22.377     7.026
    15   6 C        2.894     0.153    24.691     8.147
    16   6 C        2.914    -0.063    29.560     8.915
    17   6 C        2.920    -0.022    28.553     8.763
    18   6 C        2.984    -0.026    28.653     8.781
    19   6 C        2.920    -0.022    28.553     8.763
    20   6 C        2.914    -0.063    29.556     8.915
    21   6 C        2.894     0.153    24.691     8.147
    22   7 N        2.756    -0.059    22.381     7.026
    23   6 C        2.931     0.041    27.088     8.535
    24   6 C        2.923    -0.050    29.250     8.869
    25   6 C        2.919    -0.039    28.957     8.824
    26   6 C        2.920    -0.036    28.903     8.816
    27   6 C        2.918    -0.055    29.363     8.886
    28   6 C        2.894     0.129    25.170     8.226
    29   8 O        1.708    -0.253    18.185     5.758
    30   6 C        2.895     0.125    25.260     8.240
    31   6 C        2.919    -0.055    29.363     8.886
    32   6 C        2.919    -0.037    28.910     8.817
    33   6 C        2.920    -0.036    28.898     8.815
    34   6 C        2.921    -0.056    29.385     8.889
    35   6 C        2.925     0.044    27.012     8.523
    36   7 N        1.858    -0.271    27.898     7.829
    37   6 C        2.943     0.171    24.326     8.089
    38   7 N        1.858    -0.272    27.906     7.830
    39   1 H        0.926     0.042     2.418     2.432
    40   1 H        0.926     0.040     2.445     2.445
    41   1 H        0.926     0.041     2.439     2.442
    42   1 H        0.926     0.054     2.272     2.357
    43   1 H        0.926     0.051     2.307     2.375
    44   1 H        0.926     0.040     2.446     2.446
    45   1 H        0.926     0.042     2.426     2.436
    46   1 H        0.926     0.088     1.901     2.156
    47   1 H        0.926     0.036     2.500     2.473
    48   1 H        0.925     0.033     2.539     2.492
    49   1 H        0.925     0.033     2.539     2.492
    50   1 H        0.926     0.036     2.500     2.473
    51   1 H        0.926     0.041     2.441     2.443
    52   1 H        0.926     0.040     2.446     2.446
    53   1 H        0.926     0.042     2.420     2.432
    54   1 H        0.926     0.054     2.273     2.358
    55   1 H        0.926     0.051     2.308     2.376
    56   1 H        0.926     0.040     2.448     2.446
    57   1 H        0.926     0.042     2.429     2.437
    58   1 H        0.926     0.087     1.904     2.158

molecular dipole:
                 x           y           z       tot (Debye)
 q only:        0.020      -0.249      -0.239
   full:        0.020      -1.075       0.246       2.804

 projected vibrational frequencies (cm⁻¹)
eigval :       -0.00    -0.00    -0.00     0.00     0.00     0.00
eigval :       10.16    13.81    32.26    36.40    52.94    65.31
eigval :       73.09    74.76   101.78   105.96   116.71   140.92
eigval :      162.27   184.81   204.56   226.57   231.13   253.04
eigval :      256.39   273.06   289.37   301.94   309.71   312.64
eigval :      341.84   369.66   386.74   397.28   405.66   410.69
eigval :      414.61   433.77   440.04   442.70   454.32   457.50
eigval :      465.87   504.99   507.88   527.86   529.41   537.09
eigval :      543.52   549.19   551.59   578.21   584.47   612.11
eigval :      615.63   624.04   624.97   655.62   657.67   670.64
eigval :      671.03   674.78   686.86   692.26   742.25   778.77
eigval :      782.42   784.34   784.61   792.29   799.72   806.28
eigval :      816.66   843.23   847.21   855.70   856.51   871.30
eigval :      874.96   875.86   876.94   888.38   904.77   905.27
eigval :      905.75   907.63   915.53   915.65   917.94   918.56
eigval :      920.55   921.24   926.40   928.01   985.55  1036.00
eigval :     1084.81  1085.14  1086.08  1087.08  1102.31  1103.56
eigval :     1120.23  1122.38  1141.08  1161.86  1169.30  1171.03
eigval :     1174.79  1175.10  1180.38  1185.18  1199.61  1200.07
eigval :     1221.64  1226.90  1239.12  1240.40  1242.93  1250.34
eigval :     1250.97  1287.19  1300.02  1304.78  1309.52  1318.53
eigval :     1321.71  1329.50  1334.32  1338.60  1362.24  1367.36
eigval :     1422.59  1423.06  1427.34  1438.90  1443.46  1447.12
eigval :     1468.73  1471.74  1481.69  1493.08  1493.51  1526.11
eigval :     1563.40  1572.02  1572.72  1577.06  1577.18  1589.35
eigval :     1589.88  1593.59  1596.92  1598.57  3055.27  3058.69
eigval :     3087.93  3087.99  3088.34  3088.84  3094.55  3094.61
eigval :     3097.90  3098.33  3098.53  3098.89  3103.27  3103.34
eigval :     3109.69  3109.80  3113.24  3113.32  3135.89  3138.52

   temp. (K)  partition function   enthalpy   heat capacity  entropy
                                   cal/mol     cal/K/mol   cal/K/mol   J/K/mol
 298.15  VIB  0.296E+12            15940.458    106.511     96.700
         ROT  0.397E+08              888.752      2.981     37.751
         INT  0.117E+20            16829.211    109.491    134.451
         TR   0.106E+29             1481.254      4.968     44.450
         TOT                       18310.4644   114.4596   178.9009   748.5214

       T/K    H(0)-H(T)+PV         H(T)/Eh          T*S/Eh         G(T)/Eh
   ------------------------------------------------------------------------
    298.15    0.291796E-01    0.459474E+00    0.850016E-01    0.374472E+00
   ------------------------------------------------------------------------

         :::::::::::::::::::::::::::::::::::::::::::::::::::::
         ::                  THERMODYNAMIC                  ::
         :::::::::::::::::::::::::::::::::::::::::::::::::::::
         :: total free energy         -98.241428888329 Eh   ::
         ::.................................................::
         :: total energy              -98.615901198406 Eh   ::
         :: zero point energy           0.430294325742 Eh   ::
         :: G(RRHO) w/o ZPVE           -0.055822015665 Eh   ::
         :: G(RRHO) contrib.            0.374472310078 Eh   ::
         :::::::::::::::::::::::::::::::::::::::::::::::::::::

           -------------------------------------------------
          | TOTAL ENERGY              -98.615901198406 Eh   |
          | TOTAL ENTHALPY            -98.156427290209 Eh   |
          | TOTAL FREE ENERGY         -98.241428888329 Eh   |
          | GRADIENT NORM               0.000018698410 Eh/α |
          | HOMO-LUMO GAP               1.923224640127 eV   |
           -------------------------------------------------

 * finished run on 2025/09/07 at 22:02:49.183
