   * xtb version 6.7.1 (edcfbbe) compiled by 'albert@albert-system' on 2024-07-22

   ID    Z sym.   atoms
    1    6 C      1-6, 8-18, 20, 21, 23, 25-40, 42-44, 46
    2    8 O      7, 41
    3    7 N      19, 22, 24, 45
    4    1 H      47-68

          program call               : xtb data2507/gas/BFCZPZ1/BFCZPZ1_gas_S0_crest.xyz --gfn 2 --ohess vtight --parallel 40 --molden --ceasefiles --namespace data2507/gas/BFCZPZ1/BFCZPZ1_gas_S0_finalOpt
          :  Hamiltonian                  GFN2-xTB          :
 * total energy  :  -116.8318290 Eh     change       -0.2512550E-08 Eh
 * total energy  :  -116.8318297 Eh     change       -0.7037411E-06 Eh
 * total energy  :  -116.8318305 Eh     change       -0.7479487E-06 Eh
 * total energy  :  -116.8318318 Eh     change       -0.1279796E-05 Eh
 * total energy  :  -116.8318326 Eh     change       -0.8648473E-06 Eh
 * total energy  :  -116.8318334 Eh     change       -0.7647426E-06 Eh
 * total energy  :  -116.8318344 Eh     change       -0.9499088E-06 Eh
 * total energy  :  -116.8318351 Eh     change       -0.7203968E-06 Eh
 * total energy  :  -116.8318353 Eh     change       -0.2360724E-06 Eh
 * total energy  :  -116.8318354 Eh     change       -0.1326695E-06 Eh
 * total energy  :  -116.8318356 Eh     change       -0.1307793E-06 Eh
 * total energy  :  -116.8318357 Eh     change       -0.1136673E-06 Eh
 * total energy  :  -116.8318359 Eh     change       -0.1635279E-06 Eh
 * total energy  :  -116.8318361 Eh     change       -0.2074326E-06 Eh
 * total energy  :  -116.8318362 Eh     change       -0.1204569E-06 Eh
 * total energy  :  -116.8318362 Eh     change       -0.4155393E-07 Eh
   *** GEOMETRY OPTIMIZATION CONVERGED AFTER 16 ITERATIONS ***

 final structure:
================
68
 xtb: 6.7.1 (edcfbbe)
C            3.76871016654280       -4.02191087613105        3.31557005567646
C            5.13270934565408       -3.74901947288706        3.38741038228897
C            5.69430233725114       -2.70882094503761        2.67386049421077
C            4.86294429702877       -1.93340818210561        1.87553328690117
C            3.48587357122880       -2.22182389075308        1.81548710787006
C            2.92089169293607       -3.26312651476790        2.52863327851444
O            2.83132297008384       -1.36253039727027        0.98631207881881
C            3.77824958104879       -0.50990237169950        0.49768802912113
C            5.05685252945037       -0.79995653358625        1.01164460257092
C            6.17259522087757       -0.03121425902979        0.67496769832939
C            6.01209875717951        1.04886159404799       -0.16169975972718
C            4.74823194036208        1.34595818454948       -0.67392297908464
C            4.27820999027702        2.42064011297346       -1.50315525785325
C            4.91380747240879        3.49892334456336       -2.10616617933867
C            4.15632313632077        4.37726634644097       -2.85413862673441
C            2.78454287994608        4.18905509344058       -3.00660572606197
C            2.13077931083557        3.12386475357555       -2.41632383147216
C            2.88686173716339        2.24251457853514       -1.66007782057901
N            2.49664811998887        1.08701068264034       -0.99563619094802
C            1.22999222571528        0.52906428926632       -1.02644196066724
C            1.02030842017711       -0.85360112926974       -1.08687177387897
N           -0.19188242016677       -1.36397708188956       -1.07564688601020
C           -1.23050036382041       -0.52835743069933       -1.02314002503460
N           -2.49682772339863       -1.08677509511797       -0.98929980089147
C           -2.88751786679080       -2.24271656737990       -1.65289079961502
C           -2.13206191037355       -3.12446605934554       -2.40929300908945
C           -2.78621577851972       -4.19015955271365       -2.99823645879328
C           -4.15778142878489       -4.37858493424526       -2.84426331989423
C           -4.91469000063153       -3.49977761949199       -2.09626730294799
C           -4.27867770544337       -2.42096344086845       -1.49464802516714
C           -4.74819208481792       -1.34573243644163       -0.66584178757958
C           -6.01184265315846       -1.04845802286020       -0.15318354695620
C           -6.17212500271518        0.03246692308120        0.68241219367449
C           -5.05629547711624        0.80162872271548        1.01781635715491
C           -4.86226663119289        1.93615610979333        1.88026052468201
C           -5.69368295608801        2.71329695086912        2.67684443200588
C           -5.13197847115976        3.75439733450275        3.38898979278053
C           -3.76777587957356        4.02636908216163        3.31762463130880
C           -2.91993910761334        3.26603333351590        2.53220398063772
C           -3.48510683416970        2.22408293998214        1.82015714430018
O           -2.83069629809709        1.36372768379180        0.99195558418158
C           -3.77775346379393        0.51088119666692        0.50406161710693
C           -3.61565171056496       -0.55178075956299       -0.37236179754934
C           -1.02094233691217        0.85437687191780       -1.08345927542666
N            0.19128655488835        1.36475301222766       -1.07552963805508
C            3.61580963512927        0.55228238126347       -0.37920451504419
H            3.36367240353584       -4.84389590927542        3.88622798188271
H            5.75984963080900       -4.36532426526933        4.01411087829867
H            6.75133544568076       -2.49915480179097        2.73046464429505
H            1.86408987824143       -3.46705462453721        2.46587182299696
H            7.13837267872689       -0.28006865287348        1.08541227562801
H            6.85110992055833        1.67633786039833       -0.41866838764971
H            5.97735945886872        3.64114690130333       -1.98953945115749
H            4.62988409646066        5.22356426636492       -3.32909953648448
H            2.21797184810995        4.89299520776501       -3.59786236463576
H            1.06800759256448        2.98477875201339       -2.52694029008183
H            1.83198130929388       -1.55908742124321       -1.17823630130030
H           -1.06943941289709       -2.98535230891880       -2.52098174922157
H           -2.22005353351065       -4.89443263465134       -3.58946503676529
H           -4.63164182534733       -5.22532190958120       -3.31814143187797
H           -5.97812899921623       -3.64198861236137       -1.97867827058425
H           -6.85082418190427       -1.67634313498563       -0.40918276984389
H           -7.13775278557596        0.28170596332402        1.09296689526758
H           -6.75086171624110        2.50438111062048        2.73307992035944
H           -5.75919899184330        4.37221557727199        4.01411592390935
H           -3.36261482104373        4.84894677390831        3.88733818523027
H           -1.86299288576968        3.46931686099677        2.46973783347944
H           -1.83283998699089        1.55993013615340       -1.17207578667995

          :  Hamiltonian                  GFN2-xTB          :
         :: gradient norm              0.000080817846 Eh/a0 ::
         :: HOMO-LUMO gap              2.333782561384 eV    ::
         :: SCC energy              -118.859836212263 Eh    ::
         :: -> dispersion             -0.098074812772 Eh    ::
         :: repulsion energy           2.027999989777 Eh    ::

    * Orbital Energies and Occupations

         #    Occupation            Energy/Eh            Energy/eV
      -------------------------------------------------------------
         1        2.0000           -0.7386280             -20.0991
       ...           ...                  ...                  ...
        95        2.0000           -0.4222917             -11.4911
        96        2.0000           -0.4176911             -11.3660
        97        2.0000           -0.4149110             -11.2903
        98        2.0000           -0.4129137             -11.2360
        99        2.0000           -0.4083083             -11.1106
       100        2.0000           -0.4082914             -11.1102
       101        2.0000           -0.3975632             -10.8182
       102        2.0000           -0.3949551             -10.7473
       103        2.0000           -0.3796846             -10.3317
       104        2.0000           -0.3768441             -10.2544
       105        2.0000           -0.3768094             -10.2535
       106        2.0000           -0.3631971              -9.8831
       107        2.0000           -0.3622814              -9.8582 (HOMO)
       108                         -0.2765165              -7.5244 (LUMO)
       109                         -0.2637916              -7.1781
       110                         -0.2589025              -7.0451
       111                         -0.2468386              -6.7168
       112                         -0.2319201              -6.3109
       113                         -0.2315485              -6.3008
       114                         -0.2255081              -6.1364
       115                         -0.2253540              -6.1322
       116                         -0.2149914              -5.8502
       117                         -0.2127266              -5.7886
       118                         -0.1992189              -5.4210
       ...                                ...                  ...
       206                          0.7556411              20.5620
      -------------------------------------------------------------
                  HL-Gap            0.0857649 Eh            2.3338 eV

     #   Z          covCN         q      C6AA      α(0)
     1   6 C        2.927    -0.032    28.807     8.802
     2   6 C        2.921    -0.038    28.946     8.823
     3   6 C        2.913    -0.034    28.841     8.806
     4   6 C        3.059    -0.018    28.402     8.740
     5   6 C        3.098     0.130    25.051     8.202
     6   6 C        2.908    -0.051    29.278     8.873
     7   8 O        1.714    -0.233    17.857     5.705
     8   6 C        3.089     0.111    25.453     8.270
     9   6 C        3.054    -0.023    28.517     8.758
    10   6 C        2.913    -0.043    29.076     8.842
    11   6 C        2.914    -0.041    29.020     8.834
    12   6 C        3.064    -0.017    28.368     8.734
    13   6 C        3.071    -0.012    28.249     8.715
    14   6 C        2.913    -0.032    28.807     8.801
    15   6 C        2.920    -0.038    28.938     8.821
    16   6 C        2.925    -0.031    28.779     8.798
    17   6 C        2.910    -0.045    29.113     8.848
    18   6 C        3.071     0.052    26.755     8.481
    19   7 N        2.800    -0.033    21.884     6.948
    20   6 C        2.893     0.135    25.052     8.206
    21   6 C        2.900     0.044    27.019     8.523
    22   7 N        1.848    -0.227    26.799     7.672
    23   6 C        2.893     0.135    25.052     8.206
    24   7 N        2.800    -0.033    21.884     6.948
    25   6 C        3.071     0.052    26.755     8.481
    26   6 C        2.910    -0.045    29.114     8.848
    27   6 C        2.925    -0.031    28.779     8.798
    28   6 C        2.920    -0.038    28.937     8.821
    29   6 C        2.913    -0.032    28.807     8.801
    30   6 C        3.071    -0.012    28.249     8.715
    31   6 C        3.064    -0.017    28.367     8.734
    32   6 C        2.914    -0.041    29.020     8.834
    33   6 C        2.913    -0.043    29.076     8.842
    34   6 C        3.054    -0.023    28.517     8.758
    35   6 C        3.059    -0.018    28.402     8.740
    36   6 C        2.913    -0.034    28.841     8.806
    37   6 C        2.921    -0.038    28.946     8.823
    38   6 C        2.927    -0.032    28.807     8.802
    39   6 C        2.908    -0.051    29.278     8.873
    40   6 C        3.098     0.130    25.051     8.202
    41   8 O        1.714    -0.233    17.856     5.705
    42   6 C        3.089     0.111    25.453     8.270
    43   6 C        3.062     0.026    27.368     8.579
    44   6 C        2.900     0.044    27.020     8.523
    45   7 N        1.848    -0.227    26.799     7.672
    46   6 C        3.062     0.026    27.368     8.579
    47   1 H        0.926     0.040     2.453     2.449
    48   1 H        0.926     0.037     2.491     2.468
    49   1 H        0.926     0.038     2.472     2.459
    50   1 H        0.926     0.047     2.352     2.398
    51   1 H        0.926     0.040     2.454     2.450
    52   1 H        0.926     0.041     2.436     2.441
    53   1 H        0.926     0.035     2.520     2.482
    54   1 H        0.926     0.033     2.549     2.497
    55   1 H        0.926     0.035     2.517     2.481
    56   1 H        0.926     0.051     2.304     2.374
    57   1 H        0.926     0.055     2.258     2.350
    58   1 H        0.926     0.051     2.303     2.373
    59   1 H        0.926     0.035     2.517     2.481
    60   1 H        0.926     0.033     2.549     2.497
    61   1 H        0.926     0.035     2.520     2.482
    62   1 H        0.926     0.041     2.436     2.440
    63   1 H        0.926     0.040     2.454     2.450
    64   1 H        0.926     0.038     2.472     2.459
    65   1 H        0.926     0.037     2.491     2.468
    66   1 H        0.926     0.040     2.453     2.449
    67   1 H        0.926     0.047     2.352     2.398
    68   1 H        0.926     0.055     2.257     2.349

molecular dipole:
                 x           y           z       tot (Debye)
 q only:       -0.001      -0.000      -0.079
   full:       -0.001      -0.000       0.010       0.027

 projected vibrational frequencies (cm⁻¹)
eigval :       -0.00    -0.00    -0.00    -0.00     0.00     0.00
eigval :        9.98    12.91    21.38    33.72    35.53    50.10
eigval :       50.21    88.89    95.07   104.13   107.03   112.29
eigval :      124.89   139.15   140.74   152.60   153.66   176.96
eigval :      215.73   240.78   252.60   255.83   262.10   275.75
eigval :      282.33   296.64   297.92   314.85   330.75   333.51
eigval :      333.77   386.24   400.00   407.15   407.54   407.93
eigval :      418.16   437.35   444.20   465.26   476.25   484.69
eigval :      493.66   500.49   500.70   508.82   535.88   537.27
eigval :      551.69   552.55   555.39   555.80   559.34   566.69
eigval :      594.88   602.06   603.77   611.19   620.71   622.25
eigval :      641.37   653.57   668.52   677.34   677.54   701.77
eigval :      701.98   712.09   712.10   728.41   729.47   742.17
eigval :      743.06   775.50   775.64   777.99   778.26   789.48
eigval :      806.92   822.62   822.64   845.08   847.23   852.12
eigval :      871.98   872.17   872.59   872.67   889.73   896.77
eigval :      896.80   903.46   903.49   903.94   904.20   904.48
eigval :      904.54   914.91   922.92   922.96   923.59   923.60
eigval :      933.31   954.72   974.48  1033.67  1061.91  1061.92
eigval :     1069.85  1070.04  1090.30  1091.43  1092.59  1095.52
eigval :     1143.32  1143.41  1147.35  1147.36  1173.27  1173.60
eigval :     1179.91  1180.02  1181.99  1183.75  1199.24  1202.82
eigval :     1207.52  1209.78  1226.58  1232.16  1236.64  1243.79
eigval :     1250.30  1250.37  1270.63  1276.77  1293.03  1295.72
eigval :     1296.38  1312.53  1323.08  1353.33  1353.48  1355.48
eigval :     1356.98  1383.45  1385.10  1395.23  1396.11  1400.90
eigval :     1401.50  1413.63  1418.05  1418.90  1437.56  1445.91
eigval :     1470.55  1470.75  1476.29  1476.36  1482.17  1482.90
eigval :     1503.46  1568.75  1569.43  1571.94  1586.20  1586.85
eigval :     1591.52  1591.67  1603.48  1603.77  1611.91  1612.33
eigval :     1614.82  1616.30  3079.51  3079.56  3082.69  3082.73
eigval :     3084.65  3086.16  3087.17  3087.28  3090.81  3090.91
eigval :     3094.57  3094.67  3096.58  3096.75  3098.79  3098.92
eigval :     3106.22  3106.34  3109.02  3109.05  3116.45  3116.81

   temp. (K)  partition function   enthalpy   heat capacity  entropy
                                   cal/mol     cal/K/mol   cal/K/mol   J/K/mol
 298.15  VIB  0.540E+14            18926.857    125.821    114.679
         ROT  0.354E+08              888.752      2.981     37.526
         INT  0.191E+22            19815.609    128.802    152.204
         TR   0.139E+29             1481.254      4.968     44.992
         TOT                       21296.8632   133.7702   197.1959   825.0675

       T/K    H(0)-H(T)+PV         H(T)/Eh          T*S/Eh         G(T)/Eh
   ------------------------------------------------------------------------
    298.15    0.339387E-01    0.534933E+00    0.936941E-01    0.441239E+00
   ------------------------------------------------------------------------

         :::::::::::::::::::::::::::::::::::::::::::::::::::::
         ::                  THERMODYNAMIC                  ::
         :::::::::::::::::::::::::::::::::::::::::::::::::::::
         :: total free energy        -116.390597219276 Eh   ::
         ::.................................................::
         :: total energy             -116.831836222489 Eh   ::
         :: zero point energy           0.500994412553 Eh   ::
         :: G(RRHO) w/o ZPVE           -0.059755409339 Eh   ::
         :: G(RRHO) contrib.            0.441239003213 Eh   ::
         :::::::::::::::::::::::::::::::::::::::::::::::::::::

           -------------------------------------------------
          | TOTAL ENERGY             -116.831836222489 Eh   |
          | TOTAL ENTHALPY           -116.296903098204 Eh   |
          | TOTAL FREE ENERGY        -116.390597219276 Eh   |
          | GRADIENT NORM               0.000080827047 Eh/α |
          | HOMO-LUMO GAP               2.333782512655 eV   |
           -------------------------------------------------

 * finished run on 2025/08/21 at 19:35:56.380
