   * xtb version 6.7.1 (edcfbbe) compiled by 'albert@albert-system' on 2024-07-22

   ID    Z sym.   atoms
    1    6 C      1-6, 8-18, 20, 21, 23, 25-40, 42-44, 46
    2    8 O      7, 41
    3    7 N      19, 22, 24, 45
    4    1 H      47-68

          program call               : xtb data2507/gas/BFCZPZ1/BFCZPZ1_gas_T1_crest.xyz --gfn 2 --spinpol --tblite --uhf 2 --ohess vtight --parallel 40 --molden --ceasefiles --namespace data2507/gas/BFCZPZ1/BFCZPZ1_gas_T1_finalOpt
 * total energy  :  -116.7555299 Eh     change       -0.1828695E-08 Eh
 * total energy  :  -116.7557483 Eh     change       -0.2183487E-03 Eh
 * total energy  :  -116.7558752 Eh     change       -0.1268897E-03 Eh
 * total energy  :  -116.7559021 Eh     change       -0.2695849E-04 Eh
 * total energy  :  -116.7559290 Eh     change       -0.2688028E-04 Eh
 * total energy  :  -116.7559399 Eh     change       -0.1092444E-04 Eh
 * total energy  :  -116.7559520 Eh     change       -0.1210230E-04 Eh
 * total energy  :  -116.7559617 Eh     change       -0.9652427E-05 Eh
 * total energy  :  -116.7559659 Eh     change       -0.4197834E-05 Eh
 * total energy  :  -116.7559689 Eh     change       -0.3018862E-05 Eh
 * total energy  :  -116.7559938 Eh     change       -0.1635857E-06 Eh
 * total energy  :  -116.7559944 Eh     change       -0.6285827E-06 Eh
 * total energy  :  -116.7559941 Eh     change        0.3442962E-06 Eh
 * total energy  :  -116.7559942 Eh     change       -0.1702618E-06 Eh
 * total energy  :  -116.7559945 Eh     change       -0.2191317E-06 Eh
 * total energy  :  -116.7559947 Eh     change       -0.2097442E-06 Eh
 * total energy  :  -116.7559949 Eh     change       -0.1750601E-06 Eh
 * total energy  :  -116.7559950 Eh     change       -0.1155625E-06 Eh
 * total energy  :  -116.7559951 Eh     change       -0.8385642E-07 Eh
   *** GEOMETRY OPTIMIZATION CONVERGED AFTER 43 ITERATIONS ***

 final structure:
================
68
 xtb: 6.7.1 (edcfbbe)
C            0.93982911772660        4.88465928284359        1.45240793265959
C            2.20387003618344        5.44987542485029        1.30073660626536
C            3.29257395168462        4.68485054728019        0.93076849864085
C            3.09779252964285        3.32901198593166        0.69739791538676
C            1.80803277281517        2.77592106306605        0.83852615043161
C            0.72155258474025        3.53654192377797        1.23000862386787
O            1.80167774703370        1.44383871688616        0.56337747602256
C            3.08280824820814        1.11930949994173        0.25381432361536
C            3.94713455500077        2.22927929373023        0.32671268464164
C            5.32026262587902        2.09367944275781        0.10464020951727
C            5.84536645588904        0.84766358841806       -0.16312285250020
C            4.99925596658847       -0.25994922357353       -0.23417873391512
C            5.23108460896568       -1.66273597262958       -0.44979117179469
C            6.37339245081770       -2.41957806890826       -0.67329734320563
C            6.24076520530074       -3.78367351891547       -0.85059614264472
C            4.99007252717563       -4.39680978930835       -0.81919796029134
C            3.83708148126211       -3.66628498107282       -0.59976773465135
C            3.96714019073266       -2.29972408646731       -0.40670082535960
N            2.98887585600468       -1.35187933652040       -0.18323779937557
C            1.61774255040098       -1.53783886076789       -0.16592228845527
C            1.00998795247428       -2.41199489764720        0.70842160381697
N           -0.31161669757760       -2.50512698136568        0.82486483992387
C           -1.08137255117880       -1.70539531219562        0.02127556974873
N           -2.45093561140233       -1.83549024604543        0.11086435273984
C           -3.10591614765724       -3.02641436345516        0.38301491113053
C           -2.57850114588764       -4.28882106511352        0.60760678684012
C           -3.46201830543549       -5.32144447028631        0.85962690956901
C           -4.83936638515301       -5.11046952560842        0.87699180032571
C           -5.37004294852236       -3.85617352198563        0.64758484825792
C           -4.50108983114813       -2.80271996099207        0.39492425516555
C           -4.70020328810999       -1.40840952856298        0.12322216715846
C           -5.86168183105325       -0.64107447987744        0.03962187523901
C           -5.77087186570467        0.70960145265140       -0.20511804291995
C           -4.50828857689794        1.28494936827834       -0.36452273215816
C           -4.07025349999480        2.62781611259371       -0.62745412096429
C           -4.71001305740371        3.84663293996916       -0.81844097702206
C           -3.93445953709595        4.95977789977271       -1.07488446470250
C           -2.54653579000578        4.87179744520606       -1.15251254726684
C           -1.88719710367951        3.66938143876667       -0.96753124799223
C           -2.66519009373034        2.55971555456660       -0.69294527097305
O           -2.21901091692058        1.29130352085905       -0.47526264760249
C           -3.32660079281113        0.51937511964174       -0.28583923652856
C           -3.40834350635286       -0.84661599093118       -0.04683678172351
C           -0.46567804679059       -0.88092846634398       -0.89761435340493
N            0.85365648693016       -0.77712221780693       -0.99997204353995
C            3.60300569354602       -0.12457224582616       -0.06066422561424
H            0.11164480484283        5.50937884616357        1.75127009257332
H            2.33264262275372        6.50636970367770        1.48323669298895
H            4.27269085909859        5.12386825083542        0.82445576252735
H           -0.25030050354869        3.08768568778661        1.35611264861807
H            5.95935567199532        2.96062653219922        0.16541021296615
H            6.90648778063523        0.72076503600262       -0.31162455885449
H            7.34354179560435       -1.94798844677994       -0.70905804130724
H            7.11880112593589       -4.38803099696450       -1.02252906703520
H            4.92009863884337       -5.46340156484751       -0.97141702836657
H            2.86741458009224       -4.14043466427481       -0.58591837874018
H            1.60100405426368       -2.98399678442796        1.40754747835047
H           -1.51294065221029       -4.45237303091971        0.59355082558581
H           -3.07736578901650       -6.31383266161848        1.04116114074540
H           -5.49849346385755       -5.94330294299978        1.07189784590140
H           -6.43690150883091       -3.69332662134630        0.66394946810676
H           -6.82184239029380       -1.11402065407933        0.17440008138320
H           -6.65302196524176        1.32627095270209       -0.27192604172167
H           -5.78580654599873        3.91466358312189       -0.76832623875632
H           -4.41004517864237        5.91757539556508       -1.22476614887724
H           -1.97019837022746        5.75946762326480       -1.36493489349807
H           -0.81404269674436        3.59415058210784       -1.03528587526336
H           -1.04357090474277       -0.34475447764773       -1.63108703468480

 projected vibrational frequencies (cm⁻¹)
eigval :       -0.00    -0.00    -0.00     0.00     0.00     0.00
eigval :       11.22    19.14    23.01    36.56    43.02    48.96
eigval :       64.23    70.97    89.49   106.31   110.69   117.19
eigval :      123.36   125.39   134.88   149.79   161.85   169.08
eigval :      215.46   236.81   248.01   254.34   261.00   269.29
eigval :      281.79   293.14   298.70   306.80   331.12   336.05
eigval :      337.73   349.64   366.47   404.48   406.00   414.19
eigval :      419.17   436.86   449.79   462.96   472.52   481.89
eigval :      493.14   497.03   498.73   511.53   534.21   537.72
eigval :      542.74   553.05   554.62   556.24   558.26   559.94
eigval :      567.68   592.11   606.96   609.92   617.15   619.99
eigval :      621.51   631.71   651.19   668.59   675.70   679.04
eigval :      699.09   699.98   708.41   710.35   712.16   741.08
eigval :      742.69   771.13   772.25   776.66   781.96   782.83
eigval :      786.38   791.83   799.22   819.91   820.06   846.59
eigval :      848.91   866.38   870.43   871.19   881.83   892.25
eigval :      894.39   894.97   900.69   901.81   902.70   903.50
eigval :      904.59   911.24   919.11   920.46   922.54   927.14
eigval :      929.30   941.06   957.00   981.36  1059.97  1063.41
eigval :     1066.61  1067.69  1077.15  1083.24  1087.32  1090.31
eigval :     1091.25  1140.26  1141.61  1143.13  1145.22  1161.14
eigval :     1172.63  1173.48  1179.83  1180.82  1182.32  1190.51
eigval :     1201.34  1202.91  1205.47  1214.35  1226.34  1233.89
eigval :     1249.25  1250.41  1259.61  1263.77  1283.83  1287.51
eigval :     1293.98  1297.57  1306.56  1312.15  1353.20  1354.28
eigval :     1355.11  1356.30  1377.84  1378.42  1386.05  1394.29
eigval :     1395.92  1402.87  1409.58  1413.90  1416.06  1437.65
eigval :     1443.92  1461.72  1463.15  1473.89  1474.89  1475.25
eigval :     1477.99  1487.25  1559.33  1559.62  1580.06  1580.52
eigval :     1584.01  1587.69  1593.01  1593.46  1596.26  1605.76
eigval :     1606.63  1611.04  3076.29  3080.23  3081.11  3081.93
eigval :     3082.35  3085.64  3087.91  3090.21  3091.24  3091.92
eigval :     3093.71  3094.60  3096.64  3098.16  3098.81  3099.27
eigval :     3103.74  3105.69  3106.49  3107.40  3111.38  3112.84

   temp. (K)  partition function   enthalpy   heat capacity  entropy
                                   cal/mol     cal/K/mol   cal/K/mol   J/K/mol
 298.15  VIB  0.316E+14            19119.479    127.559    115.588
         ROT  0.625E+08              888.752      2.981     38.652
         INT  0.197E+22            20008.231    130.540    154.241
         TR   0.139E+29             1481.254      4.968     44.992
         TOT                       21489.4848   135.5084   199.2322   833.5877

       T/K    H(0)-H(T)+PV         H(T)/Eh          T*S/Eh         G(T)/Eh
   ------------------------------------------------------------------------
    298.15    0.342457E-01    0.532014E+00    0.946617E-01    0.437352E+00
   ------------------------------------------------------------------------

         :::::::::::::::::::::::::::::::::::::::::::::::::::::
         ::                  THERMODYNAMIC                  ::
         :::::::::::::::::::::::::::::::::::::::::::::::::::::
         :: total free energy        -116.318643077136 Eh   ::
         ::.................................................::
         :: total energy             -116.755995000835 Eh   ::
         :: zero point energy           0.497767913790 Eh   ::
         :: G(RRHO) w/o ZPVE           -0.060415990091 Eh   ::
         :: G(RRHO) contrib.            0.437351923699 Eh   ::
         :::::::::::::::::::::::::::::::::::::::::::::::::::::

           -------------------------------------------------
          | TOTAL ENERGY             -116.755995000835 Eh   |
          | TOTAL ENTHALPY           -116.223981413200 Eh   |
          | TOTAL FREE ENERGY        -116.318643077136 Eh   |
          | GRADIENT NORM               0.000066649197 Eh/α |
           -------------------------------------------------

 * finished run on 2025/08/21 at 19:40:13.425
