   * xtb version 6.7.1 (edcfbbe) compiled by 'albert@albert-system' on 2024-07-22

   ID    Z sym.   atoms
    1    6 C      1-6, 8-18, 20, 21, 23, 25-40, 42-44, 46
    2    8 O      7, 41
    3    7 N      19, 22, 24, 45
    4    1 H      47-68

          program call               : xtb data2507/gas/BFCZPZ1/BFCZPZ1.xyz --gfn 2 --ohess vtight --parallel 40 --molden --ceasefiles --namespace data2507/gas/BFCZPZ1/BFCZPZ1_gas_S0_preOpt
          :  Hamiltonian                  GFN2-xTB          :
 * total energy  :  -116.7666689 Eh     change       -0.2210939E-08 Eh
 * total energy  :  -116.8098225 Eh     change       -0.4315358E-01 Eh
 * total energy  :  -116.8257077 Eh     change       -0.1588524E-01 Eh
 * total energy  :  -116.8297994 Eh     change       -0.4091642E-02 Eh
 * total energy  :  -116.8312267 Eh     change       -0.1427331E-02 Eh
 * total energy  :  -116.8313572 Eh     change       -0.1304632E-03 Eh
 * total energy  :  -116.8314257 Eh     change       -0.6851442E-04 Eh
 * total energy  :  -116.8314530 Eh     change       -0.2731225E-04 Eh
 * total energy  :  -116.8314701 Eh     change       -0.1711298E-04 Eh
 * total energy  :  -116.8314887 Eh     change       -0.1860172E-04 Eh
 * total energy  :  -116.8318222 Eh     change       -0.2346016E-06 Eh
 * total energy  :  -116.8318224 Eh     change       -0.2388389E-06 Eh
 * total energy  :  -116.8318227 Eh     change       -0.2591474E-06 Eh
 * total energy  :  -116.8318229 Eh     change       -0.2500870E-06 Eh
 * total energy  :  -116.8318232 Eh     change       -0.2551067E-06 Eh
 * total energy  :  -116.8318234 Eh     change       -0.2309555E-06 Eh
 * total energy  :  -116.8318237 Eh     change       -0.2281005E-06 Eh
 * total energy  :  -116.8318239 Eh     change       -0.2044248E-06 Eh
 * total energy  :  -116.8318239 Eh     change       -0.1217174E-08 Eh
   *** GEOMETRY OPTIMIZATION CONVERGED AFTER 68 ITERATIONS ***

 final structure:
================
68
 xtb: 6.7.1 (edcfbbe)
C            3.94089110098904       -3.93581281391729        3.21718756067185
C            5.29243695720077       -3.60746532170794        3.29236706450504
C            5.80850057783730       -2.53116036503836        2.59823367827984
C            4.94378481251946       -1.77629608397433        1.81579113820674
C            3.57997460265165       -2.12113187462855        1.75192826824608
C            3.06041685985815       -3.19836035434694        2.44600069918613
O            2.88871630529783       -1.27563007152632        0.93863531841371
C            3.79824500730124       -0.37617605271184        0.46306522242116
C            5.08851484141296       -0.62077865055997        0.97172167957603
C            6.17076677887587        0.19943977766395        0.64768984477563
C            5.96438962006924        1.28485140903371       -0.17177854397240
C            4.68907960157214        1.53580522323888       -0.68019798922386
C            4.17523983012978        2.60147997764242       -1.49484462786547
C            4.76597395805314        3.71411509008092       -2.08082021944703
C            3.97359863014581        4.57036398530159       -2.81815838867565
C            2.61137728458303        4.32637786006379       -2.97684898032523
C            2.00201508721825        3.22631996431873       -2.40323919263675
C            2.79301178114653        2.36689836051301       -1.65743654876710
N            2.45073948783495        1.18673438442953       -1.00963842367271
C            1.20832695586389        0.57764677689266       -1.05045588192648
C            1.05404256185595       -0.81207518430524       -1.11690396361530
N           -0.13675908153598       -1.37042253719172       -1.10445842779734
C           -1.20833339350825       -0.57762957231190       -1.05046248985436
N           -2.45074582675155       -1.18671735946635       -1.00964898830674
C           -2.79301681308766       -2.36688187042035       -1.65744671830708
C           -2.00201938630881       -3.22630220911419       -2.40324994052506
C           -2.61137984612760       -4.32636227593421       -2.97685734666033
C           -3.97360070319401       -4.57035048314993       -2.81816571343936
C           -4.76597712070407       -3.71410191655936       -2.08082829926604
C           -4.17524440903576       -2.60146554271264       -1.49485366433647
C           -4.68908379142382       -1.53579494114930       -0.68020127613782
C           -5.96439192843168       -1.28484697203808       -0.17177417469750
C           -6.17076738459077       -0.19944120021236        0.64770241274895
C           -5.08851548089696        0.62077689680584        0.97173524718273
C           -4.94378200256678        1.77628427234008        1.81581789841304
C           -5.80849305600317        2.53113495419179        2.59827877389465
C           -5.29242588825649        3.60742992093969        3.29242504389132
C           -3.94088132847176        3.93578142238581        3.21723955650312
C           -3.06041158093463        3.19834183486937        2.44603525242768
C           -3.57997271819337        2.12112287360083        1.75195065521688
O           -2.88871820378409        1.27563237898569        0.93864273385472
C           -3.79824842882025        0.37618236925661        0.46306798455791
C           -3.59080533093366       -0.69100902978103       -0.39832865867870
C           -1.05404892143931        0.81209264190762       -1.11690384881270
N            0.13675293006980        1.37043998258724       -1.10445172550106
C            3.59079989742391        0.69102149353881       -0.39832342099108
H            3.57187765883485       -4.78495819778700        3.77230313957399
H            5.94621082699452       -4.20904731349434        3.90601648928432
H            6.85599511373671       -2.27868356870379        2.65733074907420
H            2.01298679961306       -3.44523902474907        2.38045670001629
H            7.14639227253365       -0.01518071753293        1.05413949541709
H            6.77595064872348        1.95125543880418       -0.41869097528835
H            5.82236851010119        3.89928131599184       -1.95953765540362
H            4.41187921937069        5.44260870709487       -3.27985615821140
H            2.01662537534498        5.01403322226069       -3.55953181393225
H            0.94634361275069        3.04421847419127       -2.51857529147182
H            1.89266645409479       -1.48438921118683       -1.21378310465729
H           -0.94634914141134       -3.04419649960241       -2.51859069121624
H           -2.01662742706997       -5.01401648151531       -3.55954103919459
H           -4.41187896449334       -5.44259961377005       -3.27985736743593
H           -5.82236993082168       -3.89927368461382       -1.95953903157835
H           -6.77595360531263       -1.95124894249475       -0.41869003306248
H           -7.14639171623777        0.01517541013429        1.05415686228610
H           -6.85598680926392        2.27865580468973        2.65737965268830
H           -5.94619522175450        4.20899866613212        3.90609228353955
H           -3.57186385870376        4.78491505614887        3.77237040592333
H           -2.01298196688943        3.44522168967023        2.38048893196822
H           -1.89267269506200        1.48440730247081       -1.21377912784844

          :  Hamiltonian                  GFN2-xTB          :
         :: gradient norm              0.000028250568 Eh/a0 ::
         :: HOMO-LUMO gap              2.335856569676 eV    ::
         :: SCC energy              -118.859779330008 Eh    ::
         :: -> dispersion             -0.098102311813 Eh    ::
         :: repulsion energy           2.027955464913 Eh    ::

    * Orbital Energies and Occupations

         #    Occupation            Energy/Eh            Energy/eV
      -------------------------------------------------------------
         1        2.0000           -0.7386262             -20.0990
       ...           ...                  ...                  ...
        95        2.0000           -0.4222240             -11.4893
        96        2.0000           -0.4174464             -11.3593
        97        2.0000           -0.4148964             -11.2899
        98        2.0000           -0.4127975             -11.2328
        99        2.0000           -0.4082768             -11.1098
       100        2.0000           -0.4082643             -11.1094
       101        2.0000           -0.3975504             -10.8179
       102        2.0000           -0.3949082             -10.7460
       103        2.0000           -0.3797081             -10.3324
       104        2.0000           -0.3768209             -10.2538
       105        2.0000           -0.3767899             -10.2530
       106        2.0000           -0.3630910              -9.8802
       107        2.0000           -0.3621371              -9.8543 (HOMO)
       108                         -0.2762960              -7.5184 (LUMO)
       109                         -0.2636961              -7.1755
       110                         -0.2588918              -7.0448
       111                         -0.2466824              -6.7126
       112                         -0.2319072              -6.3105
       113                         -0.2315245              -6.3001
       114                         -0.2254808              -6.1356
       115                         -0.2253215              -6.1313
       116                         -0.2149697              -5.8496
       117                         -0.2126850              -5.7875
       118                         -0.1992571              -5.4221
       ...                                ...                  ...
       206                          0.7556406              20.5620
      -------------------------------------------------------------
                  HL-Gap            0.0858411 Eh            2.3359 eV

     #   Z          covCN         q      C6AA      α(0)
     1   6 C        2.927    -0.032    28.807     8.802
     2   6 C        2.921    -0.038    28.947     8.823
     3   6 C        2.913    -0.034    28.841     8.806
     4   6 C        3.059    -0.018    28.402     8.740
     5   6 C        3.098     0.130    25.051     8.203
     6   6 C        2.908    -0.052    29.279     8.873
     7   8 O        1.714    -0.233    17.855     5.705
     8   6 C        3.089     0.111    25.454     8.270
     9   6 C        3.054    -0.023    28.517     8.758
    10   6 C        2.913    -0.043    29.076     8.842
    11   6 C        2.914    -0.041    29.021     8.834
    12   6 C        3.064    -0.017    28.367     8.734
    13   6 C        3.071    -0.012    28.249     8.715
    14   6 C        2.913    -0.032    28.807     8.801
    15   6 C        2.920    -0.038    28.937     8.821
    16   6 C        2.925    -0.031    28.779     8.798
    17   6 C        2.910    -0.045    29.115     8.848
    18   6 C        3.071     0.052    26.756     8.481
    19   7 N        2.800    -0.033    21.881     6.947
    20   6 C        2.893     0.135    25.055     8.207
    21   6 C        2.900     0.043    27.025     8.524
    22   7 N        1.848    -0.227    26.804     7.673
    23   6 C        2.893     0.135    25.055     8.207
    24   7 N        2.800    -0.033    21.881     6.947
    25   6 C        3.071     0.052    26.756     8.481
    26   6 C        2.910    -0.045    29.115     8.848
    27   6 C        2.925    -0.031    28.779     8.798
    28   6 C        2.920    -0.038    28.937     8.821
    29   6 C        2.913    -0.032    28.807     8.801
    30   6 C        3.071    -0.012    28.249     8.715
    31   6 C        3.064    -0.017    28.367     8.734
    32   6 C        2.914    -0.041    29.021     8.834
    33   6 C        2.913    -0.043    29.076     8.842
    34   6 C        3.054    -0.023    28.517     8.758
    35   6 C        3.059    -0.018    28.402     8.740
    36   6 C        2.913    -0.034    28.841     8.806
    37   6 C        2.921    -0.038    28.947     8.823
    38   6 C        2.927    -0.032    28.807     8.802
    39   6 C        2.908    -0.052    29.279     8.873
    40   6 C        3.098     0.130    25.051     8.203
    41   8 O        1.714    -0.233    17.855     5.705
    42   6 C        3.089     0.111    25.454     8.270
    43   6 C        3.062     0.026    27.370     8.579
    44   6 C        2.900     0.043    27.025     8.524
    45   7 N        1.848    -0.227    26.804     7.673
    46   6 C        3.062     0.026    27.370     8.579
    47   1 H        0.926     0.040     2.453     2.449
    48   1 H        0.926     0.037     2.492     2.468
    49   1 H        0.926     0.038     2.472     2.459
    50   1 H        0.926     0.048     2.351     2.398
    51   1 H        0.926     0.040     2.454     2.450
    52   1 H        0.926     0.041     2.436     2.441
    53   1 H        0.926     0.035     2.520     2.483
    54   1 H        0.926     0.033     2.550     2.497
    55   1 H        0.926     0.035     2.517     2.481
    56   1 H        0.926     0.052     2.297     2.370
    57   1 H        0.926     0.055     2.257     2.349
    58   1 H        0.926     0.052     2.297     2.370
    59   1 H        0.926     0.035     2.517     2.481
    60   1 H        0.926     0.033     2.550     2.497
    61   1 H        0.926     0.035     2.520     2.483
    62   1 H        0.926     0.041     2.436     2.441
    63   1 H        0.926     0.040     2.454     2.450
    64   1 H        0.926     0.038     2.472     2.459
    65   1 H        0.926     0.037     2.492     2.468
    66   1 H        0.926     0.040     2.453     2.449
    67   1 H        0.926     0.048     2.351     2.398
    68   1 H        0.926     0.055     2.257     2.349

molecular dipole:
                 x           y           z       tot (Debye)
 q only:        0.000      -0.000      -0.080
   full:        0.000      -0.000       0.007       0.018

 projected vibrational frequencies (cm⁻¹)
eigval :       -0.00    -0.00    -0.00     0.00     0.00     0.00
eigval :        9.99    12.96    21.26    33.58    35.54    50.16
eigval :       50.36    88.94    95.19   104.75   107.74   112.22
eigval :      125.04   138.84   141.83   152.67   153.66   177.54
eigval :      216.01   240.97   252.91   255.86   262.29   275.98
eigval :      282.22   296.55   298.03   315.09   330.42   333.51
eigval :      333.72   385.33   399.96   407.17   408.00   408.13
eigval :      418.27   437.35   444.30   465.29   476.27   485.09
eigval :      493.62   500.50   500.70   509.07   535.94   537.40
eigval :      551.71   552.45   555.44   555.91   559.29   566.66
eigval :      594.73   602.11   603.67   611.16   620.81   622.26
eigval :      641.48   653.56   668.57   677.36   677.54   701.80
eigval :      702.01   712.11   712.12   728.52   729.04   742.18
eigval :      743.08   775.56   775.69   778.02   778.28   789.51
eigval :      806.89   822.67   822.67   844.85   847.28   852.43
eigval :      872.07   872.25   872.64   872.71   889.72   896.79
eigval :      896.79   903.50   903.51   903.97   904.24   904.52
eigval :      904.58   914.67   922.97   923.01   923.61   923.61
eigval :      933.31   954.68   974.55  1033.53  1061.91  1061.92
eigval :     1069.91  1070.10  1090.31  1091.45  1092.64  1095.58
eigval :     1143.29  1143.37  1147.32  1147.34  1173.28  1173.61
eigval :     1179.85  1180.01  1181.96  1183.73  1199.19  1202.71
eigval :     1207.51  1209.80  1226.55  1232.04  1236.48  1244.40
eigval :     1250.36  1250.40  1270.45  1276.61  1293.00  1295.72
eigval :     1296.31  1312.44  1322.98  1353.34  1353.49  1355.45
eigval :     1356.96  1383.33  1385.02  1395.13  1396.03  1400.85
eigval :     1401.49  1413.62  1418.07  1418.91  1437.64  1445.87
eigval :     1470.52  1470.71  1476.29  1476.35  1482.16  1482.87
eigval :     1503.45  1568.87  1569.55  1572.14  1586.20  1586.86
eigval :     1591.53  1591.68  1603.43  1603.70  1611.84  1612.31
eigval :     1614.55  1615.98  3079.51  3079.51  3082.70  3082.70
eigval :     3085.44  3086.90  3087.20  3087.22  3090.80  3090.81
eigval :     3094.60  3094.62  3096.58  3096.73  3098.77  3098.83
eigval :     3106.24  3106.32  3109.04  3109.06  3117.35  3117.36

   temp. (K)  partition function   enthalpy   heat capacity  entropy
                                   cal/mol     cal/K/mol   cal/K/mol   J/K/mol
 298.15  VIB  0.529E+14            18922.121    125.819    114.625
         ROT  0.354E+08              888.752      2.981     37.526
         INT  0.188E+22            19810.873    128.800    152.151
         TR   0.139E+29             1481.254      4.968     44.992
         TOT                       21292.1274   133.7683   197.1425   824.8442

       T/K    H(0)-H(T)+PV         H(T)/Eh          T*S/Eh         G(T)/Eh
   ------------------------------------------------------------------------
    298.15    0.339312E-01    0.534941E+00    0.936688E-01    0.441272E+00
   ------------------------------------------------------------------------

         :::::::::::::::::::::::::::::::::::::::::::::::::::::
         ::                  THERMODYNAMIC                  ::
         :::::::::::::::::::::::::::::::::::::::::::::::::::::
         :: total free energy        -116.390551692822 Eh   ::
         ::.................................................::
         :: total energy             -116.831823865094 Eh   ::
         :: zero point energy           0.501009773689 Eh   ::
         :: G(RRHO) w/o ZPVE           -0.059737601417 Eh   ::
         :: G(RRHO) contrib.            0.441272172273 Eh   ::
         :::::::::::::::::::::::::::::::::::::::::::::::::::::

           -------------------------------------------------
          | TOTAL ENERGY             -116.831823865094 Eh   |
          | TOTAL ENTHALPY           -116.296882926616 Eh   |
          | TOTAL FREE ENERGY        -116.390551692822 Eh   |
          | GRADIENT NORM               0.000028250799 Eh/α |
          | HOMO-LUMO GAP               2.335856566727 eV   |
           -------------------------------------------------

 * finished run on 2025/08/21 at 19:32:49.624
