   * xtb version 6.7.1 (edcfbbe) compiled by 'albert@albert-system' on 2024-07-22

   ID    Z sym.   atoms
    1    6 C      1-6, 8-18, 20, 21, 23, 25-40, 42-44, 46
    2    8 O      7, 41
    3    7 N      19, 22, 24, 45
    4    1 H      47-68

          program call               : xtb data2507/gas/BFCZPZ1/BFCZPZ1_gas_S0_finalOpt.xtbopt.xyz --gfn 2 --spinpol --tblite --uhf 2 --ohess vtight --parallel 40 --molden --ceasefiles --namespace data2507/gas/BFCZPZ1/BFCZPZ1_gas_T1_preOpt
 * total energy  :  -116.7489318 Eh     change       -0.2341122E-07 Eh
 * total energy  :  -116.7516444 Eh     change       -0.2712593E-02 Eh
 * total energy  :  -116.7521690 Eh     change       -0.5245452E-03 Eh
 * total energy  :  -116.7522405 Eh     change       -0.7150865E-04 Eh
 * total energy  :  -116.7522936 Eh     change       -0.5310590E-04 Eh
 * total energy  :  -116.7523145 Eh     change       -0.2097692E-04 Eh
 * total energy  :  -116.7523408 Eh     change       -0.2626710E-04 Eh
 * total energy  :  -116.7523684 Eh     change       -0.2757610E-04 Eh
 * total energy  :  -116.7523911 Eh     change       -0.2269560E-04 Eh
 * total energy  :  -116.7524145 Eh     change       -0.2341515E-04 Eh
 * total energy  :  -116.7526197 Eh     change       -0.9777740E-06 Eh
 * total energy  :  -116.7526205 Eh     change       -0.8367834E-06 Eh
 * total energy  :  -116.7526213 Eh     change       -0.7757246E-06 Eh
 * total energy  :  -116.7526221 Eh     change       -0.7923820E-06 Eh
 * total energy  :  -116.7526229 Eh     change       -0.8110763E-06 Eh
 * total energy  :  -116.7526239 Eh     change       -0.9757499E-06 Eh
 * total energy  :  -116.7526248 Eh     change       -0.9624149E-06 Eh
 * total energy  :  -116.7526259 Eh     change       -0.1039769E-05 Eh
 * total energy  :  -116.7526259 Eh     change       -0.1873265E-07 Eh
   *** GEOMETRY OPTIMIZATION CONVERGED AFTER 68 ITERATIONS ***

 final structure:
================
68
 xtb: 6.7.1 (edcfbbe)
C            3.76936374712765       -3.90539994738805        3.50178657153734
C            5.13408176862918       -3.63498468103777        3.56920335342531
C            5.70232605599652       -2.62208680602571        2.82239071080010
C            4.87697613838369       -1.87194442833837        1.99381652438920
C            3.49868027105882       -2.15779865215317        1.93838552484558
C            2.92727674301777       -3.17115363285982        2.68554328423699
O            2.85149313021074       -1.32801482687442        1.07410020328543
C            3.80206838817364       -0.49831017397525        0.55982205148053
C            5.07853318168145       -0.77397688954782        1.08781185990736
C            6.20102255438055       -0.03033963802975        0.71532098132063
C            6.05250971485770        1.00534978671821       -0.17906229217612
C            4.79297357250038        1.28856820159195       -0.70819838431066
C            4.33559993048436        2.30618246592003       -1.61138922309352
C            4.96902358430604        3.34980902474373       -2.27386880240891
C            4.21349772101468        4.17470537699557       -3.08398715349966
C            2.84272231533022        3.97430754388781       -3.23701277787875
C            2.19013855028146        2.94216277807512       -2.59027453013859
C            2.94437991484375        2.11408303841216       -1.77344306593054
N            2.54127667368029        1.02732812320086       -1.01775400323352
C            1.25990749129982        0.50238774870047       -1.01344082559195
C            1.02230118719290       -0.85268665938786       -1.07679907247099
N           -0.20835297989139       -1.36275018261695       -1.02178577529993
C           -1.26118368461031       -0.50219777568963       -1.01138687850811
N           -2.54254103581259       -1.02715885219678       -1.01368222962505
C           -2.94654845926337       -2.11454054644292       -1.76797986596696
C           -2.19328425679379       -2.94333826286749       -2.58498462004046
C           -2.84666758529223       -3.97598481144108       -3.23011887162785
C           -4.21727827907998       -4.17618241018214       -3.07535781185381
C           -4.97182521855852       -3.35058502737515       -2.26504603170608
C           -4.33758852929335       -2.30643945510701       -1.60416797080813
C           -4.79388290495691       -1.28802675226465       -0.70133623846095
C           -6.05281705227167       -1.00428341668910       -0.17105071165902
C           -6.20030636679510        0.03225933575238        0.72250843448760
C           -5.07737431842116        0.77620410139460        1.09304679906933
C           -4.87479620618010        1.87504668088364        1.99775495672479
C           -5.69923557147972        2.62606573629008        2.82644217012059
C           -5.13015835351910        3.63971359492306        3.57160065828622
C           -3.76550393859530        3.91001166460133        3.50244192859927
C           -2.92431379500895        3.17489167283816        2.68606016056661
C           -3.49655294895110        2.16079574831503        1.94054794744519
O           -2.85033151240838        1.33012137322057        1.07639624432684
C           -3.80149691959810        0.49996977061961        0.56393395583771
C           -3.64933733880534       -0.52608775811153       -0.35793134938481
C           -1.02364493083677        0.85282422205071       -1.07614956641810
N            0.20705412657580        1.36290635902936       -1.02316059995745
C            3.64884248618493        0.52689862851104       -0.36281458294999
H            3.35925779329105       -4.70581375965150        4.09887083249116
H            5.75667059199161       -4.23164162688488        4.21907527100772
H            6.75993223357599       -2.41446698678034        2.87602280855172
H            1.86992257464522       -3.37297998191238        2.62609251237898
H            7.16435338650365       -0.26674132397113        1.13865001980671
H            6.89972935672948        1.60618614936443       -0.47078454914874
H            6.02948036664684        3.51054314047725       -2.15301432657779
H            4.68869252045137        4.98996241841226       -3.60893728018464
H            2.28020408242820        4.63753209297389       -3.87694787471749
H            1.12901503931820        2.78617113567377       -2.70493594963431
H            1.83574755042853       -1.55380385057378       -1.15754052696879
H           -1.13229629094205       -2.78747515267647       -2.70103697604832
H           -2.28491748293451       -4.63977900569004       -3.87013386154983
H           -4.69310925437783       -4.99186885085698       -3.59906289197642
H           -6.03214473750679       -3.51118694500092       -2.14279666586315
H           -6.90037576063447       -1.60536436281254       -0.46127715095205
H           -7.16315562230415        0.26910975757260        1.14667693061526
H           -6.75679937000114        2.41857379722509        2.88137372492039
H           -5.75203999062420        4.23709475980574        4.22148441978418
H           -3.35473124337409        4.71101819833170        4.09827241876494
H           -1.86701158137730        3.37660090295936        2.62529579414898
H           -1.83721066338962        1.55385491749226       -1.15649586512651

 projected vibrational frequencies (cm⁻¹)
eigval :       -0.00    -0.00    -0.00     0.00     0.00     0.00
eigval :        8.24    14.74    19.66    33.71    34.64    49.08
eigval :       49.65    86.40    90.97    95.65   100.48   111.99
eigval :      125.33   130.06   134.70   151.73   151.76   168.92
eigval :      206.84   238.64   250.56   254.17   261.62   268.50
eigval :      283.62   293.96   296.93   312.95   316.13   331.65
eigval :      331.74   340.75   375.24   396.03   405.71   405.97
eigval :      412.88   437.57   440.06   464.42   474.65   488.28
eigval :      490.52   497.17   497.31   513.34   529.88   538.52
eigval :      539.28   552.90   553.17   554.58   555.23   559.07
eigval :      566.52   592.64   608.62   608.91   611.30   619.08
eigval :      619.90   630.20   648.79   667.62   675.62   675.66
eigval :      699.28   699.29   708.80   710.81   710.92   722.49
eigval :      741.69   742.24   771.53   771.76   774.78   777.33
eigval :      777.64   784.19   801.11   819.77   819.81   847.54
eigval :      848.26   866.13   866.67   871.88   871.97   884.98
eigval :      894.45   894.46   900.89   900.97   902.77   902.82
eigval :      903.69   904.04   919.33   919.49   922.85   922.85
eigval :      929.81   940.56   962.00   983.19  1061.75  1061.77
eigval :     1067.40  1067.70  1081.68  1089.33  1090.45  1091.57
eigval :     1109.55  1138.62  1142.34  1142.51  1144.58  1158.78
eigval :     1172.22  1172.97  1178.81  1180.01  1181.15  1189.28
eigval :     1196.71  1202.13  1205.10  1212.49  1227.22  1232.24
eigval :     1249.01  1249.42  1258.10  1274.69  1275.15  1287.36
eigval :     1294.47  1295.60  1306.37  1314.11  1353.70  1353.86
eigval :     1355.29  1355.44  1362.04  1378.95  1382.60  1392.80
eigval :     1395.43  1399.45  1408.09  1415.23  1415.53  1432.89
eigval :     1439.04  1465.12  1465.17  1475.22  1475.35  1478.35
eigval :     1478.54  1493.27  1559.91  1559.93  1580.50  1580.58
eigval :     1586.28  1588.43  1595.05  1595.41  1598.70  1604.25
eigval :     1608.22  1609.07  3080.11  3080.17  3082.35  3082.36
eigval :     3087.28  3087.36  3090.84  3090.86  3093.80  3093.91
eigval :     3095.91  3096.23  3098.55  3098.66  3101.08  3101.52
eigval :     3102.95  3103.19  3105.57  3105.98  3109.47  3109.56

   temp. (K)  partition function   enthalpy   heat capacity  entropy
                                   cal/mol     cal/K/mol   cal/K/mol   J/K/mol
 298.15  VIB  0.114E+15            19243.823    127.488    116.923
         ROT  0.358E+08              888.752      2.981     37.549
         INT  0.410E+22            20132.576    130.469    154.472
         TR   0.139E+29             1481.254      4.968     44.992
         TOT                       21613.8295   135.4374   199.4633   834.5546

       T/K    H(0)-H(T)+PV         H(T)/Eh          T*S/Eh         G(T)/Eh
   ------------------------------------------------------------------------
    298.15    0.344438E-01    0.531735E+00    0.947715E-01    0.436963E+00
   ------------------------------------------------------------------------

         :::::::::::::::::::::::::::::::::::::::::::::::::::::
         ::                  THERMODYNAMIC                  ::
         :::::::::::::::::::::::::::::::::::::::::::::::::::::
         :: total free energy        -116.315662641171 Eh   ::
         ::.................................................::
         :: total energy             -116.752625900157 Eh   ::
         :: zero point energy           0.497290894360 Eh   ::
         :: G(RRHO) w/o ZPVE           -0.060327635374 Eh   ::
         :: G(RRHO) contrib.            0.436963258986 Eh   ::
         :::::::::::::::::::::::::::::::::::::::::::::::::::::

           -------------------------------------------------
          | TOTAL ENERGY             -116.752625900157 Eh   |
          | TOTAL ENTHALPY           -116.220891176065 Eh   |
          | TOTAL FREE ENERGY        -116.315662641171 Eh   |
          | GRADIENT NORM               0.000064081313 Eh/α |
           -------------------------------------------------

 * finished run on 2025/08/21 at 19:36:05.708
