   * xtb version 6.7.1 (edcfbbe) compiled by 'albert@albert-system' on 2024-07-22

   ID    Z sym.   atoms
    1    6 C      1-9, 11-14, 16-21, 23-28, 30-33, 35-42
    2    7 N      10, 15, 22, 29, 34
    3    1 H      43-65

          program call               : xtb data2507/gas/11-AcBPdCN/11-AcBPdCN_gas_T1_crest.xyz --gfn 2 --spinpol --tblite --uhf 2 --ohess vtight --parallel 40 --molden --ceasefiles --namespace data2507/gas/11-AcBPdCN/11-AcBPdCN_gas_T1_finalOpt
 * total energy  :  -105.5278451 Eh     change       -0.2390692E-09 Eh
 * total energy  :  -105.5278633 Eh     change       -0.1817994E-04 Eh
 * total energy  :  -105.5278632 Eh     change        0.9741186E-07 Eh
 * total energy  :  -105.5278609 Eh     change        0.2267072E-05 Eh
 * total energy  :  -105.5278669 Eh     change       -0.5945632E-05 Eh
 * total energy  :  -105.5278654 Eh     change        0.1513934E-05 Eh
 * total energy  :  -105.5278658 Eh     change       -0.4349533E-06 Eh
 * total energy  :  -105.5278676 Eh     change       -0.1792923E-05 Eh
 * total energy  :  -105.5278684 Eh     change       -0.7958946E-06 Eh
 * total energy  :  -105.5278686 Eh     change       -0.1814194E-06 Eh
 * total energy  :  -105.5278707 Eh     change       -0.2016692E-06 Eh
 * total energy  :  -105.5278708 Eh     change       -0.1895325E-06 Eh
 * total energy  :  -105.5278711 Eh     change       -0.2190910E-06 Eh
 * total energy  :  -105.5278713 Eh     change       -0.2140640E-06 Eh
 * total energy  :  -105.5278715 Eh     change       -0.2179009E-06 Eh
 * total energy  :  -105.5278717 Eh     change       -0.2285770E-06 Eh
 * total energy  :  -105.5278719 Eh     change       -0.2211974E-06 Eh
 * total energy  :  -105.5278719 Eh     change        0.1897767E-07 Eh
 * total energy  :  -105.5278719 Eh     change       -0.1670969E-08 Eh
   *** GEOMETRY OPTIMIZATION CONVERGED AFTER 23 ITERATIONS ***

 final structure:
================
65
 xtb: 6.7.1 (edcfbbe)
C           -7.02314667340990       -1.94771258181928        0.16055876651936
C           -6.54890214265282       -0.48922528962429        0.01774765588244
C           -7.75977876357105        0.45543289886991       -0.09835477586385
C           -5.71874457759134       -0.37119682221369       -1.24426758553555
C           -6.28953378523744       -0.67150092270746       -2.47327536047164
C           -5.57688814361698       -0.57813676027012       -3.65454023546252
C           -4.25312014075235       -0.17183279497463       -3.62115931120039
C           -3.65980079867043        0.13193133043887       -2.41596480294743
C           -4.37769126711108        0.03485629531123       -1.21757174429125
N           -3.75475899796759        0.34408119267034       -0.02456572466908
C           -2.38822934287948        0.74756208170506       -0.04481221973299
C           -2.06793415571770        2.09903123616718       -0.12315821251766
C           -0.74477251159572        2.49741416587765       -0.14292389424320
C            0.28640577820267        1.56079559653387       -0.08659249622064
N            1.57225563197069        1.91122461197093       -0.10417600058983
C            2.54543242915823        1.01241770095201       -0.05120083089143
C            3.91649777332048        1.41140083219636       -0.07193824543857
C            4.22532783855489        2.78183608014897       -0.14853584653386
C            5.52211214289505        3.21321309495339       -0.17125212880239
C            6.56018852841769        2.26566133973967       -0.11666294455848
C            7.90455968787305        2.69743301300604       -0.13971316550159
N            8.99524252114619        3.05190881431370       -0.15914482408330
C            6.27453996942829        0.91188609718666       -0.04078355821494
C            4.95546399168323        0.44997368238414       -0.01664983703086
C            4.61985518806129       -0.95444949598782        0.06123815696379
C            5.58808629139866       -1.96113657650413        0.11697193576562
C            5.23090051358113       -3.29796745878127        0.19037582484967
C            6.23488258866524       -4.28955480511844        0.24439481082812
N            7.04705855758772       -5.09835427067585        0.28844445437661
C            3.87615606026442       -3.67568571415135        0.21114312250701
C            2.91403667302907       -2.70636321380414        0.15761160309125
C            3.25810367743708       -1.34423237762114        0.08226705434705
C            2.21466650865545       -0.37060802216523        0.02699994261076
N            0.94038493837313       -0.73597152393756        0.04609132062438
C           -0.04884871002674        0.15716108367740       -0.00640907482085
C           -1.38961381784120       -0.21495604776567        0.01353450912688
C           -4.41330835625994        0.27631277649616        1.18728177095537
C           -3.72717934090316        0.60061979656527        2.36413260068219
C           -4.35769253012585        0.54508971380901        3.58730582125841
C           -5.68703166626940        0.16291010934465        3.66060159944579
C           -6.36608333641254       -0.16213038983571        2.50077055338298
C           -5.75725474945232       -0.11524159055609        1.25435121077257
H           -7.63631351884939       -2.07016384248001        1.04878348147593
H           -7.60922375087421       -2.25046857650617       -0.70243099530727
H           -6.16379882381023       -2.61052623563752        0.24214991413259
H           -7.41920839445933        1.48428914884711       -0.19818723568200
H           -8.36238846672429        0.20773902906633       -0.96743081123932
H           -8.39053269094253        0.38682135154120        0.78325249426332
H           -7.32028639542015       -0.98832210785367       -2.51699584411397
H           -6.05167527290902       -0.81957512338319       -4.59291279149917
H           -3.68249586342364       -0.09126743697556       -4.53376297558234
H           -2.62915585587086        0.44954253973853       -2.39253749754968
H           -2.85956613112915        2.83105434785660       -0.16757032831311
H           -0.48303237770796        3.54166703613750       -0.20327810819400
H            3.40476307454536        3.48149307401629       -0.18877557207460
H            5.76188237340763        4.26410480850257       -0.23007021965501
H            7.10256383246834        0.22170940718005       -0.00065712246769
H            6.63900937738467       -1.71838540278341        0.10363704272865
H            3.61494285925821       -4.72155347986240        0.26859503974388
H            1.86549298153299       -2.96090556747114        0.17139540134538
H           -1.64108571472831       -1.26205298983510        0.07401898874059
H           -2.69129173090842        0.89669658893529        2.30954957320338
H           -3.81147610754849        0.79935612555940        4.48282017339853
H           -6.19124678030601        0.11631490898021        4.61341462147096
H           -7.40037789132321       -0.46103762287760        2.57577567080701

 projected vibrational frequencies (cm⁻¹)
eigval :       -0.00    -0.00    -0.00     0.00     0.00     0.00
eigval :        4.28    14.13    18.18    34.74    42.15    43.91
eigval :       75.90    80.11    80.79    82.88    93.55    97.03
eigval :      100.88   128.75   132.08   138.27   149.55   175.72
eigval :      191.72   194.53   195.86   217.90   228.88   244.83
eigval :      253.79   273.12   276.47   303.91   309.19   328.07
eigval :      341.11   345.30   363.20   366.54   377.81   380.86
eigval :      390.91   395.87   406.18   416.68   418.81   444.03
eigval :      449.44   461.77   479.64   496.43   499.72   507.34
eigval :      509.14   528.71   540.14   544.60   550.95   555.68
eigval :      567.39   576.70   585.40   595.36   617.06   623.10
eigval :      627.39   632.94   642.80   646.22   664.27   680.31
eigval :      685.20   685.97   697.81   709.72   724.21   724.90
eigval :      774.27   775.93   785.65   800.30   819.13   821.89
eigval :      824.24   824.73   825.96   848.78   855.75   867.04
eigval :      867.42   869.40   880.64   914.30   914.68   915.39
eigval :      915.86   916.01   922.23   922.42   937.88   939.61
eigval :      952.55   957.90   991.96  1013.67  1040.19  1061.16
eigval :     1076.35  1084.65  1108.33  1115.15  1131.46  1139.41
eigval :     1144.16  1147.97  1154.81  1162.15  1184.19  1185.38
eigval :     1186.13  1188.01  1193.16  1217.58  1236.05  1237.46
eigval :     1240.16  1245.41  1248.83  1260.97  1264.48  1276.31
eigval :     1287.97  1294.36  1297.17  1299.66  1323.32  1327.84
eigval :     1333.92  1334.78  1340.24  1351.83  1368.55  1398.42
eigval :     1402.34  1403.48  1417.21  1420.26  1422.14  1431.20
eigval :     1432.94  1456.31  1462.84  1467.85  1476.05  1487.51
eigval :     1487.81  1488.73  1498.68  1502.30  1505.97  1514.76
eigval :     1526.95  1537.35  1562.28  1570.53  1575.86  1577.34
eigval :     1583.23  1594.41  2364.76  2367.99  3029.28  3031.11
eigval :     3043.90  3046.42  3052.76  3056.35  3085.32  3085.49
eigval :     3089.96  3090.09  3091.89  3092.24  3095.10  3099.55
eigval :     3099.95  3100.16  3102.90  3103.65  3103.88  3106.21
eigval :     3106.51  3106.91  3109.93

   temp. (K)  partition function   enthalpy   heat capacity  entropy
                                   cal/mol     cal/K/mol   cal/K/mol   J/K/mol
 298.15  VIB  0.705E+15            19529.309    124.311    121.246
         ROT  0.633E+08              888.752      2.981     38.680
         INT  0.446E+23            20418.062    127.292    159.926
         TR   0.121E+29             1481.254      4.968     44.711
         TOT                       21899.3157   132.2598   204.6377   856.2042

       T/K    H(0)-H(T)+PV         H(T)/Eh          T*S/Eh         G(T)/Eh
   ------------------------------------------------------------------------
    298.15    0.348988E-01    0.519194E+00    0.972300E-01    0.421964E+00
   ------------------------------------------------------------------------

         :::::::::::::::::::::::::::::::::::::::::::::::::::::
         ::                  THERMODYNAMIC                  ::
         :::::::::::::::::::::::::::::::::::::::::::::::::::::
         :: total free energy        -105.105907983559 Eh   ::
         ::.................................................::
         :: total energy             -105.527871956319 Eh   ::
         :: zero point energy           0.484295179321 Eh   ::
         :: G(RRHO) w/o ZPVE           -0.062331206561 Eh   ::
         :: G(RRHO) contrib.            0.421963972759 Eh   ::
         :::::::::::::::::::::::::::::::::::::::::::::::::::::

           -------------------------------------------------
          | TOTAL ENERGY             -105.527871956319 Eh   |
          | TOTAL ENTHALPY           -105.008677996090 Eh   |
          | TOTAL FREE ENERGY        -105.105907983559 Eh   |
          | GRADIENT NORM               0.000150233670 Eh/α |
           -------------------------------------------------

 * finished run on 2025/07/20 at 00:05:08.045
