   * xtb version 6.7.1 (edcfbbe) compiled by 'albert@albert-system' on 2024-07-22

   ID    Z sym.   atoms
    1    6 C      1-9, 11-14, 16-21, 23-28, 30-33, 35-42
    2    7 N      10, 15, 22, 29, 34
    3    1 H      43-65

          program call               : xtb data2507/gas/11-AcBPdCN/11-AcBPdCN_gas_S0_crest.xyz --gfn 2 --ohess vtight --parallel 40 --molden --ceasefiles --namespace data2507/gas/11-AcBPdCN/11-AcBPdCN_gas_S0_finalOpt
          :  Hamiltonian                  GFN2-xTB          :
 * total energy  :  -105.5670893 Eh     change       -0.2009813E-08 Eh
 * total energy  :  -105.5670907 Eh     change       -0.1416261E-05 Eh
 * total energy  :  -105.5670830 Eh     change        0.7769042E-05 Eh
 * total energy  :  -105.5670953 Eh     change       -0.1234362E-04 Eh
 * total energy  :  -105.5670967 Eh     change       -0.1427179E-05 Eh
 * total energy  :  -105.5670986 Eh     change       -0.1824051E-05 Eh
 * total energy  :  -105.5670995 Eh     change       -0.9647708E-06 Eh
 * total energy  :  -105.5671005 Eh     change       -0.1012197E-05 Eh
 * total energy  :  -105.5671018 Eh     change       -0.1218034E-05 Eh
 * total energy  :  -105.5671024 Eh     change       -0.6321105E-06 Eh
 * total energy  :  -105.5671082 Eh     change       -0.4299241E-06 Eh
 * total energy  :  -105.5671082 Eh     change        0.9831780E-09 Eh
 * total energy  :  -105.5671082 Eh     change        0.1058331E-07 Eh
 * total energy  :  -105.5671085 Eh     change       -0.2940556E-06 Eh
 * total energy  :  -105.5671087 Eh     change       -0.2282466E-06 Eh
 * total energy  :  -105.5671085 Eh     change        0.2269927E-06 Eh
 * total energy  :  -105.5671090 Eh     change       -0.5070282E-06 Eh
 * total energy  :  -105.5671091 Eh     change       -0.1167710E-06 Eh
 * total energy  :  -105.5671092 Eh     change       -0.6935032E-07 Eh
   *** GEOMETRY OPTIMIZATION CONVERGED AFTER 29 ITERATIONS ***

 final structure:
================
65
 xtb: 6.7.1 (edcfbbe)
C           -6.97868607741288       -0.84491319150200       -2.04272271714126
C           -5.68565733814024       -0.42470121325697       -1.34478760433127
C           -4.63646090969489       -0.11217150416106       -2.43093927318507
C           -5.14202406248282       -1.50635478321859       -0.42703062192448
C           -5.57813928204459       -2.82210086716366       -0.42013239970687
C           -5.04062388256767       -3.74392954822599        0.46245676166329
C           -4.07822233680934       -3.35455046930978        1.37668273689769
C           -3.63635799957925       -2.04488919348899        1.39368179006009
C           -4.14180370899118       -1.13330990739478        0.47592905161396
N           -3.74415366610129        0.22174192448747        0.49727823823339
C           -2.43487716372499        0.62636455785349        0.38234077529499
C           -2.13201434797894        2.01095748108202        0.22235811176321
C           -0.85305937557489        2.45766861996187        0.11311638273641
C            0.22912654042068        1.54891581573327        0.13719035915561
N            1.48416297003439        1.98746723604869        0.05295000603424
C            2.45503218238783        1.08591191285556        0.04058185315843
C            3.82449654634924        1.53589369576387       -0.04178794512464
C            4.09050668832195        2.90946189589115       -0.09469523826200
C            5.37721330885765        3.37776845538273       -0.17168728175133
C            6.43394846193717        2.45796176396345       -0.19690020528718
C            7.76755762439316        2.92071616024000       -0.27502370468256
N            8.84857223291013        3.29737944816739       -0.33817841331234
C            6.18511924272214        1.09319871475286       -0.14575301322265
C            4.88085070270881        0.60102879274964       -0.06774473549904
C            4.58715142042328       -0.82517036025540       -0.01345520717462
C            5.59063136505581       -1.79629337780888       -0.04262011872993
C            5.28079213516598       -3.14819699079876        0.01139863160493
C            6.32291787469082       -4.10362123441367       -0.02086776461787
N            7.16631597286945       -4.87960804282759       -0.04692464490809
C            3.94877885519519       -3.57333098991584        0.09712556972546
C            2.95223421546990       -2.63092418711647        0.12610432330852
C            3.25001841511319       -1.26477183316485        0.07170154798904
C            2.16579720421756       -0.30693382080720        0.10349092761448
N            0.92628500892808       -0.75329049963871        0.19281294358494
C           -0.06612742711123        0.15142417354579        0.22088798317528
C           -1.39287661673719       -0.28279890269319        0.33131077984762
C           -4.84640011761539        1.09961814720897        0.43541876732699
C           -4.96314335574728        2.16765589941838        1.31649716845648
C           -6.07666955481544        2.98484969338599        1.26372844991519
C           -7.08178558190172        2.71842493800003        0.35124716078885
C           -6.98513027096120        1.62631084938996       -0.49498506579577
C           -5.87220874328015        0.80061915587414       -0.46683552635853
H           -7.32782986083480       -0.04867240339976       -2.69539609591418
H           -6.80125074115010       -1.71771880954784       -2.66597533626491
H           -7.75626897826027       -1.07763613434368       -1.31864368583236
H           -3.68395062508744        0.18589726064163       -2.00169355260357
H           -4.47089342248804       -0.99373180140113       -3.04660883784516
H           -4.99305221271473        0.69580262479956       -3.06648918979114
H           -6.34423121202712       -3.14570080404868       -1.10562080419851
H           -5.38818452022806       -4.76576952761884        0.44467923943981
H           -3.67990981075999       -4.06437305647650        2.08557586156249
H           -2.91557830420696       -1.72103710403077        2.12887881087939
H           -2.94345953380503        2.71849803151324        0.15676754908752
H           -0.63607884429530        3.50740250186198       -0.00916890729800
H            3.24918039887845        3.58392653718870       -0.07241265071507
H            5.58718461656746        4.43598398443987       -0.21240351981909
H            7.03198235289262        0.42549550868922       -0.16769621764815
H            6.63111104803234       -1.51978723947713       -0.10844874332211
H            3.72440248057997       -4.62853545403093        0.13848941307628
H            1.91356902214052       -2.91426540830651        0.19076219331165
H           -1.56223998271140       -1.34626277189128        0.35369825533273
H           -4.19015986062041        2.34218993672867        2.05023081583737
H           -6.16345399362996        3.81858603484912        1.94376522452772
H           -7.95369512078239        3.35319379805382        0.30645693370926
H           -7.79277270608766        1.42846517781361       -1.18058115684535

          :  Hamiltonian                  GFN2-xTB          :
         :: gradient norm              0.000026871485 Eh/a0 ::
         :: HOMO-LUMO gap              1.260743342447 eV    ::
         :: SCC energy              -107.543372390862 Eh    ::
         :: -> dispersion             -0.093400954107 Eh    ::
         :: repulsion energy           1.976263227495 Eh    ::

    * Orbital Energies and Occupations

         #    Occupation            Energy/Eh            Energy/eV
      -------------------------------------------------------------
         1        2.0000           -0.6852824             -18.6475
       ...           ...                  ...                  ...
        86        2.0000           -0.4307375             -11.7210
        87        2.0000           -0.4264303             -11.6038
        88        2.0000           -0.4226365             -11.5005
        89        2.0000           -0.4214512             -11.4683
        90        2.0000           -0.4174797             -11.3602
        91        2.0000           -0.4162362             -11.3264
        92        2.0000           -0.4154487             -11.3049
        93        2.0000           -0.4131739             -11.2430
        94        2.0000           -0.4116714             -11.2021
        95        2.0000           -0.4085405             -11.1170
        96        2.0000           -0.4040676             -10.9952
        97        2.0000           -0.3686884             -10.0325
        98        2.0000           -0.3564108              -9.6984 (HOMO)
        99                         -0.3100794              -8.4377 (LUMO)
       100                         -0.2916266              -7.9356
       101                         -0.2709209              -7.3721
       102                         -0.2604497              -7.0872
       103                         -0.2454807              -6.6799
       104                         -0.2419899              -6.5849
       105                         -0.2363368              -6.4311
       106                         -0.2334375              -6.3522
       107                         -0.2300245              -6.2593
       108                         -0.2204701              -5.9993
       109                         -0.2132199              -5.8020
       ...                                ...                  ...
       191                          1.1696884              31.8288
      -------------------------------------------------------------
                  HL-Gap            0.0463314 Eh            1.2607 eV

     #   Z          covCN         q      C6AA      α(0)
     1   6 C        3.759    -0.108    22.605     6.778
     2   6 C        3.911     0.023    20.131     6.377
     3   6 C        3.762    -0.099    22.433     6.752
     4   6 C        2.988    -0.006    28.156     8.704
     5   6 C        2.923    -0.037    28.929     8.820
     6   6 C        2.919    -0.035    28.872     8.811
     7   6 C        2.920    -0.032    28.791     8.799
     8   6 C        2.920    -0.044    29.096     8.846
     9   6 C        2.952     0.055    26.765     8.485
    10   7 N        2.755    -0.061    22.430     7.034
    11   6 C        2.908     0.071    26.410     8.427
    12   6 C        2.919    -0.047    29.165     8.856
    13   6 C        2.914    -0.040    28.998     8.830
    14   6 C        2.969     0.078    26.253     8.404
    15   7 N        1.848    -0.238    27.082     7.713
    16   6 C        2.965     0.075    26.312     8.414
    17   6 C        2.987     0.006    27.882     8.662
    18   6 C        2.923    -0.026    28.648     8.777
    19   6 C        2.923    -0.021    28.527     8.759
    20   6 C        2.972     0.020    27.564     8.612
    21   6 C        1.913     0.112    28.340     8.597
    22   7 N        0.911    -0.230    26.045     7.381
    23   6 C        2.931    -0.025    28.635     8.776
    24   6 C        2.975     0.007    27.865     8.659
    25   6 C        2.975     0.008    27.828     8.653
    26   6 C        2.931    -0.025    28.637     8.776
    27   6 C        2.972     0.021    27.538     8.608
    28   6 C        1.913     0.112    28.333     8.596
    29   7 N        0.911    -0.229    26.009     7.376
    30   6 C        2.923    -0.021    28.533     8.760
    31   6 C        2.923    -0.025    28.625     8.774
    32   6 C        2.988     0.005    27.895     8.664
    33   6 C        2.961     0.083    26.159     8.389
    34   7 N        1.850    -0.248    27.319     7.747
    35   6 C        2.964     0.082    26.162     8.390
    36   6 C        2.923    -0.079    29.981     8.979
    37   6 C        2.951     0.055    26.764     8.485
    38   6 C        2.920    -0.045    29.129     8.851
    39   6 C        2.920    -0.033    28.811     8.802
    40   6 C        2.919    -0.035    28.883     8.813
    41   6 C        2.923    -0.037    28.929     8.820
    42   6 C        2.987    -0.006    28.160     8.705
    43   1 H        0.925     0.042     2.422     2.434
    44   1 H        0.925     0.042     2.417     2.431
    45   1 H        0.925     0.040     2.455     2.450
    46   1 H        0.925     0.035     2.511     2.478
    47   1 H        0.925     0.041     2.439     2.442
    48   1 H        0.925     0.040     2.454     2.450
    49   1 H        0.926     0.042     2.421     2.433
    50   1 H        0.926     0.036     2.497     2.471
    51   1 H        0.926     0.038     2.475     2.460
    52   1 H        0.926     0.042     2.419     2.432
    53   1 H        0.926     0.047     2.364     2.404
    54   1 H        0.926     0.054     2.273     2.358
    55   1 H        0.926     0.066     2.130     2.282
    56   1 H        0.926     0.046     2.375     2.410
    57   1 H        0.926     0.045     2.388     2.416
    58   1 H        0.926     0.045     2.378     2.411
    59   1 H        0.926     0.046     2.372     2.408
    60   1 H        0.926     0.067     2.117     2.275
    61   1 H        0.926     0.052     2.291     2.367
    62   1 H        0.926     0.039     2.458     2.452
    63   1 H        0.926     0.037     2.489     2.467
    64   1 H        0.926     0.036     2.501     2.473
    65   1 H        0.926     0.042     2.418     2.432

molecular dipole:
                 x           y           z       tot (Debye)
 q only:       -3.956       0.265      -0.091
   full:       -4.669       0.461      -0.043      11.925

 projected vibrational frequencies (cm⁻¹)
eigval :       -0.00    -0.00    -0.00     0.00     0.00     0.00
eigval :       10.62    15.99    34.51    39.71    44.13    63.07
eigval :       70.63    77.80    78.85    81.64    90.53   128.20
eigval :      130.24   140.37   141.93   149.56   166.13   176.15
eigval :      186.78   206.00   217.04   230.88   243.34   256.86
eigval :      282.95   289.34   304.11   310.55   324.61   332.66
eigval :      335.04   349.97   358.40   374.85   386.37   390.80
eigval :      401.74   406.07   407.35   420.22   432.07   434.22
eigval :      456.78   466.82   483.65   489.19   490.28   500.68
eigval :      517.57   535.31   551.91   554.70   563.39   572.08
eigval :      573.36   578.72   583.59   589.72   601.91   625.90
eigval :      630.16   638.17   649.64   665.43   678.28   690.35
eigval :      693.46   714.09   724.43   725.76   732.39   766.02
eigval :      778.38   784.65   795.47   810.08   810.69   830.59
eigval :      831.43   835.19   856.14   858.40   859.86   871.28
eigval :      885.60   890.48   906.99   911.77   919.39   922.74
eigval :      923.90   924.79   935.88   942.05   944.99   951.90
eigval :      964.69   967.40   988.72  1010.27  1048.11  1064.93
eigval :     1073.82  1077.74  1099.87  1107.46  1138.25  1145.81
eigval :     1145.97  1152.39  1164.27  1174.28  1182.61  1184.16
eigval :     1186.91  1191.04  1197.29  1224.00  1231.84  1235.30
eigval :     1239.67  1254.06  1258.68  1269.10  1274.07  1285.51
eigval :     1288.35  1296.62  1305.86  1317.66  1320.52  1323.75
eigval :     1327.31  1342.38  1367.77  1378.54  1392.55  1400.22
eigval :     1417.42  1423.72  1431.64  1437.12  1439.48  1448.10
eigval :     1454.11  1454.86  1472.58  1479.64  1480.03  1493.00
eigval :     1495.85  1499.87  1507.67  1520.75  1523.60  1542.63
eigval :     1547.36  1574.89  1576.43  1584.69  1586.24  1589.20
eigval :     1595.45  1604.86  2373.08  2375.28  3028.20  3030.95
eigval :     3033.05  3036.02  3047.38  3055.17  3082.09  3084.25
eigval :     3087.98  3091.29  3093.44  3093.64  3095.70  3098.15
eigval :     3099.75  3100.33  3108.77  3110.61  3112.22  3112.30
eigval :     3113.64  3114.15  3122.79

   temp. (K)  partition function   enthalpy   heat capacity  entropy
                                   cal/mol     cal/K/mol   cal/K/mol   J/K/mol
 298.15  VIB  0.339E+14            19065.349    123.462    116.495
         ROT  0.617E+08              888.752      2.981     38.628
         INT  0.209E+22            19954.101    126.443    155.123
         TR   0.121E+29             1481.254      4.968     44.711
         TOT                       21435.3553   131.4108   199.8346   836.1080

       T/K    H(0)-H(T)+PV         H(T)/Eh          T*S/Eh         G(T)/Eh
   ------------------------------------------------------------------------
    298.15    0.341594E-01    0.521755E+00    0.949479E-01    0.426807E+00
   ------------------------------------------------------------------------

         :::::::::::::::::::::::::::::::::::::::::::::::::::::
         ::                  THERMODYNAMIC                  ::
         :::::::::::::::::::::::::::::::::::::::::::::::::::::
         :: total free energy        -105.140302031585 Eh   ::
         ::.................................................::
         :: total energy             -105.567109163367 Eh   ::
         :: zero point energy           0.487595589670 Eh   ::
         :: G(RRHO) w/o ZPVE           -0.060788457888 Eh   ::
         :: G(RRHO) contrib.            0.426807131782 Eh   ::
         :::::::::::::::::::::::::::::::::::::::::::::::::::::

           -------------------------------------------------
          | TOTAL ENERGY             -105.567109163367 Eh   |
          | TOTAL ENTHALPY           -105.045354160725 Eh   |
          | TOTAL FREE ENERGY        -105.140302031585 Eh   |
          | GRADIENT NORM               0.000027020993 Eh/α |
          | HOMO-LUMO GAP               1.260742732933 eV   |
           -------------------------------------------------

 * finished run on 2025/07/20 at 00:01:23.413
