   * xtb version 6.7.1 (edcfbbe) compiled by 'albert@albert-system' on 2024-07-22

   ID    Z sym.   atoms
    1    6 C      1-9, 11-14, 16-21, 23-28, 30-33, 35-42
    2    7 N      10, 15, 22, 29, 34
    3    1 H      43-65

          program call               : xtb data2507/gas/11-AcBPdCN/11-AcBPdCN.xyz --gfn 2 --ohess vtight --parallel 40 --molden --ceasefiles --namespace data2507/gas/11-AcBPdCN/11-AcBPdCN_gas_S0_preOpt
          :  Hamiltonian                  GFN2-xTB          :
 * total energy  :  -105.5395673 Eh     change       -0.2352678E-08 Eh
 * total energy  :  -105.5588484 Eh     change       -0.1928111E-01 Eh
 * total energy  :  -105.5644197 Eh     change       -0.5571231E-02 Eh
 * total energy  :  -105.5652718 Eh     change       -0.8521700E-03 Eh
 * total energy  :  -105.5656906 Eh     change       -0.4187998E-03 Eh
 * total energy  :  -105.5657724 Eh     change       -0.8178503E-04 Eh
 * total energy  :  -105.5657314 Eh     change        0.4101281E-04 Eh
 * total energy  :  -105.5658009 Eh     change       -0.6951641E-04 Eh
 * total energy  :  -105.5658043 Eh     change       -0.3383669E-05 Eh
 * total energy  :  -105.5658055 Eh     change       -0.1141224E-05 Eh
 * total energy  :  -105.5658064 Eh     change       -0.3293722E-06 Eh
 * total energy  :  -105.5658066 Eh     change       -0.2547256E-06 Eh
 * total energy  :  -105.5658069 Eh     change       -0.2853358E-06 Eh
 * total energy  :  -105.5658073 Eh     change       -0.3571115E-06 Eh
 * total energy  :  -105.5658076 Eh     change       -0.3376269E-06 Eh
 * total energy  :  -105.5658079 Eh     change       -0.2361025E-06 Eh
 * total energy  :  -105.5658080 Eh     change       -0.1612404E-06 Eh
 * total energy  :  -105.5658081 Eh     change       -0.1169355E-06 Eh
 * total energy  :  -105.5658081 Eh     change       -0.1789076E-08 Eh
   *** GEOMETRY OPTIMIZATION CONVERGED AFTER 22 ITERATIONS ***

 final structure:
================
65
 xtb: 6.7.1 (edcfbbe)
C           -6.16660527101822       -1.76234858155991       -0.00023347006249
C           -5.64308943191636       -0.31461691797542       -0.00001654855610
C           -6.81983923103338        0.67807758261744        0.00015901695346
C           -4.82301460504199       -0.09565254575013       -1.25755612400053
C           -5.42294505545129       -0.23997757741365       -2.50092113222653
C           -4.72488018765431       -0.05193316575814       -3.67958739039943
C           -3.38628723989874        0.29114697133455       -3.62655695488275
C           -2.76411691935204        0.43906619788551       -2.40468216290735
C           -3.46829764611674        0.24742096319891       -1.21304467590247
N           -2.81465771008200        0.39990381803647        0.00005256103904
C           -1.43793590444722        0.74700760039528        0.00006693418795
C           -1.07980816959110        2.11667258035452        0.00009925499516
C            0.22928863751505        2.49670925414119        0.00010018909426
C            1.24587760014235        1.51570176110622        0.00006172721598
N            2.53189261257745        1.88628401958582        0.00007638692221
C            3.45134377490638        0.93939561635031        0.00003526385559
C            4.84701806961768        1.31871294468320        0.00009182539424
C            5.18394085514668        2.67681314533721        0.00021090507625
C            6.49606457785256        3.07860411668666        0.00031251960401
C            7.50265369097359        2.10488605372044        0.00029049852373
C            8.86183753592844        2.49801948591116        0.00041343449900
N            9.96239471272419        2.81758146631321        0.00051617790262
C            7.18243383674532        0.75407973479948        0.00015811697791
C            5.85209732505666        0.32952502645228        0.00004963025165
C            5.48419119293181       -1.08128264261030       -0.00010456261342
C            6.43774623615964       -2.10151569538341       -0.00023561169038
C            6.05730831589010       -3.43664081526538       -0.00037540398016
C            7.05177752638680       -4.44315003170451       -0.00047927348202
N            7.85726321498653       -5.25833098568791       -0.00069023962255
C            4.70344891248802       -3.79476499556002       -0.00039137270660
C            3.75463565845898       -2.80330302880778       -0.00027296717301
C            4.12416920437942       -1.45375711680551       -0.00013589259542
C            3.09117133977145       -0.44116526155750       -0.00004473064453
N            1.82707310948176       -0.81904476586751       -0.00004705462003
C            0.88527111813224        0.13297873306204        0.00001610002096
C           -0.47760286560720       -0.22886615453079        0.00002495227767
C           -3.46825826180033        0.24703335021951        1.21312233031389
C           -2.76404952679520        0.43833013494358        2.40479885774568
C           -3.38618472345608        0.29002586271654        3.62664524906017
C           -4.72477163197638       -0.05308930389636        3.67960738101418
C           -5.42286854535394       -0.24077029084534        2.50090270532470
C           -4.82297375929790       -0.09605334689640        1.25756604995461
H           -6.77302175035554       -1.95549870701860        0.88033752005910
H           -6.77299904543581       -1.95524768262915       -0.88087519650015
H           -5.32983146279477       -2.45842483892067       -0.00032127224588
H           -7.44234682356409        0.54265046851533        0.88009936990632
H           -6.44285751270272        1.69920355704287        0.00028170105069
H           -7.44241151932810        0.54288385959184       -0.87977154416993
H           -6.46701877558105       -0.50805287810041       -2.55825820567498
H           -5.22304617358155       -0.17247522187438       -4.62930956918899
H           -2.82266926331929        0.44391024793332       -4.53479497857274
H           -1.71850440804766        0.70599637469065       -2.36988188803897
H           -1.87148171212252        2.85120239632071        0.00012537552401
H            0.52173319908026        3.53497399413987        0.00013295853773
H            4.37868654312196        3.39420626641653        0.00022888689130
H            6.76177043443564        4.12480786056527        0.00041422420116
H            7.99392992565148        0.04373077433424        0.00015228893252
H            7.49282508681281       -1.87809428387420       -0.00023816059006
H            4.42424370561929       -4.83744223617790       -0.00049142684401
H            2.70156137801739       -3.03585985583473       -0.00028282241077
H           -0.74043470053413       -1.27519884271059       -0.00000640758634
H           -1.71844517559194        0.70529963616049        2.37004792080216
H           -2.82254734533094        0.44252335099709        4.53491585938925
H           -5.22291041023172       -0.17393369339518        4.62930552382249
H           -6.46693756657969       -0.50887574214797        2.55818534256699

          :  Hamiltonian                  GFN2-xTB          :
         :: gradient norm              0.000054858611 Eh/a0 ::
         :: HOMO-LUMO gap              0.680461845552 eV    ::
         :: SCC energy              -107.543178947933 Eh    ::
         :: -> dispersion             -0.092728639766 Eh    ::
         :: repulsion energy           1.977370810979 Eh    ::

    * Orbital Energies and Occupations

         #    Occupation            Energy/Eh            Energy/eV
      -------------------------------------------------------------
         1        2.0000           -0.6981722             -18.9982
       ...           ...                  ...                  ...
        86        2.0000           -0.4313100             -11.7365
        87        2.0000           -0.4309622             -11.7271
        88        2.0000           -0.4286541             -11.6643
        89        2.0000           -0.4271285             -11.6228
        90        2.0000           -0.4182161             -11.3802
        91        2.0000           -0.4171860             -11.3522
        92        2.0000           -0.4119075             -11.2086
        93        2.0000           -0.4119071             -11.2086
        94        2.0000           -0.4076562             -11.0929
        95        2.0000           -0.4022007             -10.9444
        96        2.0000           -0.3969168             -10.8007
        97        2.0000           -0.3725549             -10.1377
        98        2.0000           -0.3518839              -9.5752 (HOMO)
        99        0.0000           -0.3268773              -8.8948 (LUMO)
       100                         -0.3044255              -8.2838
       101                         -0.2825096              -7.6875
       102                         -0.2723293              -7.4105
       103                         -0.2539530              -6.9104
       104                         -0.2348048              -6.3894
       105                         -0.2337209              -6.3599
       106                         -0.2282439              -6.2108
       107                         -0.2233147              -6.0767
       108                         -0.2223216              -6.0497
       109                         -0.2170265              -5.9056
       ...                                ...                  ...
       191                          1.1613156              31.6010
      -------------------------------------------------------------
                  HL-Gap            0.0250065 Eh            0.6805 eV

     #   Z          covCN         q      C6AA      α(0)
     1   6 C        3.761    -0.103    22.518     6.765
     2   6 C        3.909     0.021    20.156     6.381
     3   6 C        3.761    -0.103    22.522     6.765
     4   6 C        2.979    -0.013    28.341     8.732
     5   6 C        2.928    -0.036    28.884     8.814
     6   6 C        2.917    -0.044    29.095     8.845
     7   6 C        2.920    -0.032    28.807     8.802
     8   6 C        2.924    -0.059    29.462     8.901
     9   6 C        2.929     0.058    26.699     8.474
    10   7 N        2.756    -0.073    22.665     7.071
    11   6 C        2.925     0.079    26.236     8.400
    12   6 C        2.918    -0.033    28.815     8.803
    13   6 C        2.916    -0.037    28.927     8.820
    14   6 C        2.967     0.083    26.152     8.388
    15   7 N        1.849    -0.232    26.919     7.690
    16   6 C        2.962     0.084    26.130     8.384
    17   6 C        2.988     0.006    27.880     8.661
    18   6 C        2.923    -0.024    28.596     8.769
    19   6 C        2.923    -0.019    28.491     8.753
    20   6 C        2.972     0.024    27.470     8.597
    21   6 C        1.913     0.112    28.324     8.595
    22   7 N        0.911    -0.222    25.845     7.353
    23   6 C        2.931    -0.025    28.616     8.773
    24   6 C        2.975     0.010    27.796     8.648
    25   6 C        2.975     0.010    27.794     8.648
    26   6 C        2.931    -0.025    28.616     8.773
    27   6 C        2.972     0.024    27.466     8.597
    28   6 C        1.913     0.113    28.323     8.595
    29   7 N        0.911    -0.222    25.841     7.352
    30   6 C        2.923    -0.019    28.488     8.753
    31   6 C        2.923    -0.023    28.590     8.769
    32   6 C        2.988     0.006    27.880     8.661
    33   6 C        2.962     0.085    26.111     8.381
    34   7 N        1.849    -0.232    26.927     7.691
    35   6 C        2.967     0.085    26.110     8.382
    36   6 C        2.920    -0.048    29.202     8.862
    37   6 C        2.929     0.058    26.699     8.474
    38   6 C        2.924    -0.059    29.462     8.901
    39   6 C        2.920    -0.032    28.807     8.802
    40   6 C        2.917    -0.044    29.095     8.845
    41   6 C        2.928    -0.036    28.884     8.814
    42   6 C        2.979    -0.013    28.341     8.732
    43   1 H        0.925     0.040     2.450     2.448
    44   1 H        0.925     0.040     2.450     2.448
    45   1 H        0.925     0.032     2.562     2.503
    46   1 H        0.925     0.040     2.450     2.448
    47   1 H        0.925     0.031     2.570     2.507
    48   1 H        0.925     0.040     2.450     2.448
    49   1 H        0.926     0.031     2.566     2.505
    50   1 H        0.926     0.028     2.620     2.531
    51   1 H        0.926     0.028     2.617     2.530
    52   1 H        0.926     0.019     2.756     2.596
    53   1 H        0.926     0.055     2.261     2.351
    54   1 H        0.926     0.062     2.174     2.306
    55   1 H        0.926     0.069     2.092     2.262
    56   1 H        0.926     0.050     2.317     2.380
    57   1 H        0.926     0.048     2.341     2.392
    58   1 H        0.926     0.048     2.340     2.392
    59   1 H        0.926     0.050     2.314     2.379
    60   1 H        0.926     0.070     2.085     2.258
    61   1 H        0.926     0.065     2.143     2.289
    62   1 H        0.926     0.019     2.756     2.596
    63   1 H        0.926     0.028     2.617     2.530
    64   1 H        0.926     0.028     2.620     2.531
    65   1 H        0.926     0.031     2.566     2.505

molecular dipole:
                 x           y           z       tot (Debye)
 q only:       -1.916       0.547       0.000
   full:       -2.593       0.770       0.000       6.877

 projected vibrational frequencies (cm⁻¹)
eigval :       -0.00    -0.00    -0.00     0.00     0.00     0.00
eigval :      -18.89    12.30    17.11    25.12    39.44    42.62
eigval :       63.20    77.35    80.21    83.36    95.19    98.38
eigval :      101.45   128.50   131.97   138.60   143.44   173.87
eigval :      190.65   196.39   197.70   219.18   229.22   245.11
eigval :      257.84   271.62   289.56   304.25   308.29   330.69
eigval :      343.33   345.54   362.76   363.86   370.49   380.45
eigval :      389.46   391.11   407.96   418.48   427.82   440.66
eigval :      447.86   466.41   479.71   489.89   494.03   505.90
eigval :      515.29   529.67   542.37   547.44   551.86   557.12
eigval :      575.05   578.11   586.60   598.62   626.65   633.44
eigval :      633.65   636.34   648.85   669.37   676.34   681.27
eigval :      691.42   692.72   713.90   729.48   737.29   771.62
eigval :      775.86   777.06   795.65   812.73   826.72   828.26
eigval :      832.24   832.39   858.74   860.52   863.86   864.35
eigval :      872.07   876.62   912.81   913.63   915.91   921.06
eigval :      921.10   921.75   924.49   924.80   938.71   951.61
eigval :      957.37   963.27   985.55  1014.36  1047.86  1061.39
eigval :     1077.33  1081.43  1112.99  1119.07  1139.76  1141.01
eigval :     1145.74  1146.01  1160.83  1161.86  1183.63  1183.86
eigval :     1187.38  1187.52  1195.90  1209.85  1234.17  1237.41
eigval :     1240.93  1249.57  1254.16  1268.87  1284.74  1291.10
eigval :     1294.44  1298.76  1304.45  1316.94  1325.72  1334.27
eigval :     1335.21  1345.48  1351.44  1373.63  1391.70  1402.95
eigval :     1409.58  1421.18  1426.49  1436.33  1438.58  1444.23
eigval :     1452.29  1474.51  1482.10  1482.31  1489.77  1490.61
eigval :     1496.45  1500.45  1504.87  1505.30  1522.31  1544.04
eigval :     1548.05  1574.54  1576.59  1586.52  1591.24  1593.36
eigval :     1599.26  1604.32  2375.68  2377.31  3026.75  3028.93
eigval :     3040.21  3043.12  3048.89  3053.18  3078.63  3078.75
eigval :     3083.26  3083.39  3090.60  3091.11  3091.70  3096.57
eigval :     3096.73  3098.63  3099.41  3102.22  3105.06  3105.83
eigval :     3112.78  3113.67  3114.11

   temp. (K)  partition function   enthalpy   heat capacity  entropy
                                   cal/mol     cal/K/mol   cal/K/mol   J/K/mol
 298.15  VIB  0.327E+15            19448.868    123.109    119.887
         ROT  0.631E+08              888.752      2.981     38.673
         INT  0.206E+23            20337.620    126.090    158.560
         TR   0.121E+29             1481.254      4.968     44.711
         TOT                       21818.8740   131.0580   203.2713   850.4872

       T/K    H(0)-H(T)+PV         H(T)/Eh          T*S/Eh         G(T)/Eh
   ------------------------------------------------------------------------
    298.15    0.347706E-01    0.521197E+00    0.965808E-01    0.424616E+00
   ------------------------------------------------------------------------

         :::::::::::::::::::::::::::::::::::::::::::::::::::::
         ::                  THERMODYNAMIC                  ::
         :::::::::::::::::::::::::::::::::::::::::::::::::::::
         :: total free energy        -105.141192261479 Eh   ::
         ::.................................................::
         :: total energy             -105.565808136954 Eh   ::
         :: zero point energy           0.486426051913 Eh   ::
         :: G(RRHO) w/o ZPVE           -0.061810176438 Eh   ::
         :: G(RRHO) contrib.            0.424615875475 Eh   ::
         :::::::::::::::::::::::::::::::::::::::::::::::::::::

           -------------------------------------------------
          | TOTAL ENERGY             -105.565808136954 Eh   |
          | TOTAL ENTHALPY           -105.044611496044 Eh   |
          | TOTAL FREE ENERGY        -105.141192261479 Eh   |
          | GRADIENT NORM               0.000054874597 Eh/α |
          | HOMO-LUMO GAP               0.680462245607 eV   |
           -------------------------------------------------

 * finished run on 2025/07/19 at 23:58:15.443
