   * xtb version 6.7.1 (edcfbbe) compiled by 'albert@albert-system' on 2024-07-22

   ID    Z sym.   atoms
    1    6 C      1-9, 11-14, 16-21, 23-28, 30-33, 35-42
    2    7 N      10, 15, 22, 29, 34
    3    1 H      43-65

          program call               : xtb data2507/gas/11-AcBPdCN/11-AcBPdCN_gas_S0_finalOpt.xtbopt.xyz --gfn 2 --spinpol --tblite --uhf 2 --ohess vtight --parallel 40 --molden --ceasefiles --namespace data2507/gas/11-AcBPdCN/11-AcBPdCN_gas_T1_preOpt
 * total energy  :  -105.5188577 Eh     change       -0.1050111E-08 Eh
 * total energy  :  -105.5222242 Eh     change       -0.3366489E-02 Eh
 * total energy  :  -105.5235623 Eh     change       -0.1338095E-02 Eh
 * total energy  :  -105.5237251 Eh     change       -0.1627621E-03 Eh
 * total energy  :  -105.5235244 Eh     change        0.2006354E-03 Eh
 * total energy  :  -105.5238067 Eh     change       -0.2822693E-03 Eh
 * total energy  :  -105.5238082 Eh     change       -0.1532529E-05 Eh
 * total energy  :  -105.5238068 Eh     change        0.1436998E-05 Eh
 * total energy  :  -105.5238149 Eh     change       -0.8096788E-05 Eh
 * total energy  :  -105.5238191 Eh     change       -0.4216150E-05 Eh
 * total energy  :  -105.5238437 Eh     change       -0.8507618E-06 Eh
 * total energy  :  -105.5238436 Eh     change        0.1467421E-06 Eh
 * total energy  :  -105.5238441 Eh     change       -0.4775502E-06 Eh
 * total energy  :  -105.5238443 Eh     change       -0.2176921E-06 Eh
 * total energy  :  -105.5238445 Eh     change       -0.2604895E-06 Eh
 * total energy  :  -105.5238445 Eh     change        0.1231811E-07 Eh
 * total energy  :  -105.5238449 Eh     change       -0.3390603E-06 Eh
 * total energy  :  -105.5238451 Eh     change       -0.2019908E-06 Eh
 * total energy  :  -105.5238451 Eh     change       -0.3178340E-07 Eh
   *** GEOMETRY OPTIMIZATION CONVERGED AFTER 36 ITERATIONS ***

 final structure:
================
65
 xtb: 6.7.1 (edcfbbe)
C           -6.99144679862562       -0.88849459312493       -2.02994039937329
C           -5.70261473099860       -0.44210264466175       -1.34062066183466
C           -4.66062862546727       -0.12638602553719       -2.43294605069771
C           -5.14028960829933       -1.50570074875274       -0.41353860861497
C           -5.55352473247332       -2.82822434995060       -0.39411151168651
C           -4.99357144055661       -3.73553050462769        0.49024026868033
C           -4.03002191818960       -3.32412901769860        1.39350866254921
C           -3.61115992461956       -2.00684929357242        1.39924742461921
C           -4.13949606293983       -1.10822691948767        0.48000339119363
N           -3.76490052527865        0.25017377082287        0.48830883598319
C           -2.45881609446733        0.68008099939588        0.38483121181448
C           -2.15420194034933        2.04176119300469        0.23370069204239
C           -0.84967156112947        2.47203790749569        0.11866000360040
C            0.21955710393086        1.58301644189577        0.14791661532577
N            1.49304839034648        1.95374109183668        0.06257443476523
C            2.49217308576821        1.09043751498965        0.03983972193887
C            3.85117965898843        1.52014034853728       -0.02442694793429
C            4.12540847815622        2.90004759270376       -0.05634873944468
C            5.40955898616804        3.36327483344706       -0.12023015234892
C            6.47042815056997        2.43986577606683       -0.15408183428961
C            7.80199033988836        2.90540444560461       -0.21862898954148
N            8.88226540813970        3.28755075841428       -0.27092647522356
C            6.21896759616205        1.07780403726809       -0.12502659608445
C            4.91305949342181        0.58283495640520       -0.06031496873545
C            4.61235950663596       -0.83030458650377       -0.02881037405607
C            5.60276397197593       -1.81544032038184       -0.07164966142589
C            5.27940084326630       -3.16240742703333       -0.03598612987344
C            6.30534685373150       -4.13086109306561       -0.08021642062101
N            7.13638253210740       -4.92102794067057       -0.11562323298465
C            3.93533623416121       -3.57212156676322        0.04479937325192
C            2.95151853238978       -2.62534975312162        0.08547211782822
C            3.26116523196079       -1.25197376546029        0.05018537184436
C            2.19562038453586       -0.30629873334474        0.09220504594242
N            0.93527687835953       -0.68886450462881        0.21034427427503
C           -0.08354836548397        0.16815302014741        0.24459623795772
C           -1.40319489105061       -0.23845283428707        0.33594766006242
C           -4.87692164592328        1.11343514077395        0.41802595177403
C           -5.00560134015979        2.19044500546632        1.28670953803478
C           -6.12981077724396        2.99209514999661        1.22784198243458
C           -7.13435275746981        2.70248235461217        0.32163729512386
C           -7.02622077361282        1.60125318865183       -0.51117498072162
C           -5.90267451883694        0.79048415190065       -0.47638317689596
H           -7.35460603813808       -0.10401292365440       -2.68910331182461
H           -6.80311882291676       -1.76465664074050       -2.64526312940182
H           -7.76305099440546       -1.12547305475742       -1.30087440946771
H           -3.71467698001694        0.19840090724485       -2.00853244260650
H           -4.47782281852109       -1.01393225828552       -3.03506051080472
H           -5.03389935801291        0.66428404614205       -3.08045145298284
H           -6.31841593402444       -3.16968867542477       -1.07223571279205
H           -5.32439388562848       -4.76297931343489        0.48215033828910
H           -3.61382636907156       -4.02255179494069        2.10350281265993
H           -2.89311539077195       -1.66513850636125        2.12930458594569
H           -2.94562424973758        2.77023318041648        0.17662927828782
H           -0.63268237373457        3.52322974422538        0.01112302293545
H            3.28895413770934        3.58156129468509       -0.02976842504783
H            5.62231658996121        4.42128874959522       -0.14490665892228
H            7.06301399320084        0.40668066984505       -0.15251220893961
H            6.64572283115136       -1.54734060694599       -0.13436408213710
H            3.70014229826499       -4.62533243014879        0.07322325457034
H            1.91107461746914       -2.90581653348870        0.14586963525999
H           -1.59258974741099       -1.29914053496235        0.32009395333550
H           -4.23461612398273        2.38231730423407        2.01781624369424
H           -6.22574279128768        3.83204498817020        1.89899222087441
H           -8.01429167186403        3.32568236612972        0.27184405930820
H           -7.83341444777554        1.38426667479402       -1.19151179921112

 projected vibrational frequencies (cm⁻¹)
eigval :       -0.00    -0.00     0.00     0.00     0.00     0.00
eigval :       10.65    16.01    34.72    40.47    44.88    62.87
eigval :       73.82    77.72    81.20    81.91    89.53   126.65
eigval :      130.32   139.82   140.90   154.06   162.31   175.10
eigval :      188.24   200.18   214.91   228.46   240.10   256.46
eigval :      268.20   285.46   301.14   309.01   321.48   330.78
eigval :      332.00   348.34   357.77   360.51   385.41   392.51
eigval :      400.59   401.43   405.90   414.72   425.10   429.46
eigval :      456.86   461.02   480.25   484.13   492.41   500.18
eigval :      516.29   532.88   550.70   554.16   562.82   564.59
eigval :      572.12   574.34   577.12   587.93   600.32   610.71
eigval :      618.34   628.86   630.17   647.09   659.06   671.04
eigval :      676.83   693.00   709.38   719.30   720.31   725.03
eigval :      773.07   780.22   784.08   790.74   802.00   811.02
eigval :      822.86   823.12   828.81   845.37   855.24   869.11
eigval :      869.54   888.39   891.87   908.32   914.37   914.59
eigval :      918.04   919.23   933.51   935.77   937.56   944.32
eigval :      952.66   967.28   993.71  1010.02  1039.40  1059.63
eigval :     1073.92  1079.51  1099.87  1107.10  1137.91  1141.59
eigval :     1145.39  1151.51  1155.04  1173.84  1182.57  1186.37
eigval :     1189.27  1190.69  1193.86  1227.42  1231.41  1235.26
eigval :     1239.55  1245.85  1252.47  1258.77  1263.78  1269.21
eigval :     1274.36  1284.09  1293.97  1295.81  1306.59  1320.24
eigval :     1327.30  1336.13  1348.00  1358.94  1387.27  1399.61
eigval :     1403.16  1412.62  1416.23  1421.92  1434.23  1438.68
eigval :     1442.28  1452.59  1457.24  1469.95  1475.89  1486.55
eigval :     1492.69  1495.31  1499.15  1507.26  1517.26  1523.03
eigval :     1525.16  1549.82  1569.53  1574.58  1575.59  1582.83
eigval :     1587.39  1597.27  2362.73  2367.30  3028.41  3030.52
eigval :     3032.95  3035.93  3047.25  3054.53  3083.13  3083.97
eigval :     3089.28  3090.45  3090.74  3091.33  3096.68  3098.52
eigval :     3099.17  3099.43  3101.72  3102.15  3109.92  3111.43
eigval :     3113.74  3114.23  3120.68

   temp. (K)  partition function   enthalpy   heat capacity  entropy
                                   cal/mol     cal/K/mol   cal/K/mol   J/K/mol
 298.15  VIB  0.380E+14            19243.847    124.741    117.449
         ROT  0.620E+08              888.752      2.981     38.637
         INT  0.236E+22            20132.600    127.722    156.086
         TR   0.121E+29             1481.254      4.968     44.711
         TOT                       21613.8534   132.6903   200.7970   840.1347

       T/K    H(0)-H(T)+PV         H(T)/Eh          T*S/Eh         G(T)/Eh
   ------------------------------------------------------------------------
    298.15    0.344439E-01    0.519537E+00    0.954051E-01    0.424131E+00
   ------------------------------------------------------------------------

         :::::::::::::::::::::::::::::::::::::::::::::::::::::
         ::                  THERMODYNAMIC                  ::
         :::::::::::::::::::::::::::::::::::::::::::::::::::::
         :: total free energy        -105.099713729653 Eh   ::
         ::.................................................::
         :: total energy             -105.523845104357 Eh   ::
         :: zero point energy           0.485092651323 Eh   ::
         :: G(RRHO) w/o ZPVE           -0.060961276618 Eh   ::
         :: G(RRHO) contrib.            0.424131374704 Eh   ::
         :::::::::::::::::::::::::::::::::::::::::::::::::::::

           -------------------------------------------------
          | TOTAL ENERGY             -105.523845104357 Eh   |
          | TOTAL ENTHALPY           -105.004308585138 Eh   |
          | TOTAL FREE ENERGY        -105.099713729653 Eh   |
          | GRADIENT NORM               0.000091205845 Eh/α |
           -------------------------------------------------

 * finished run on 2025/07/20 at 00:01:29.041
