   * xtb version 6.7.1 (edcfbbe) compiled by 'albert@albert-system' on 2024-07-22

   ID    Z sym.   atoms
    1    6 C      1-3, 6-31, 33-35
    2    8 O      4, 32
    3    5 B      5
    4    1 H      36-66

          program call               : xtb data2507/toluene/PTZTPE-2/PTZTPE-2_toluene_T1_crest.xyz --gfn 2 --uhf 2 --gbsa toluene --ohess vtight --parallel 40 --molden --ceasefiles --namespace data2507/toluene/PTZTPE-2/PTZTPE-2_toluene_T1_finalOpt
      * Solvation model:               GBSA
        Solvent                        toluene
        Solvent mass                       9.2140E+01 g/mol
          :  Hamiltonian                  GFN2-xTB          :
 * total energy  :   -93.7385329 Eh     change       -0.1402555E-08 Eh
 * total energy  :   -93.7385766 Eh     change       -0.4369968E-04 Eh
 * total energy  :   -93.7385939 Eh     change       -0.1724143E-04 Eh
 * total energy  :   -93.7385978 Eh     change       -0.3946148E-05 Eh
 * total energy  :   -93.7386009 Eh     change       -0.3043902E-05 Eh
 * total energy  :   -93.7386027 Eh     change       -0.1854987E-05 Eh
 * total energy  :   -93.7386045 Eh     change       -0.1752767E-05 Eh
 * total energy  :   -93.7386054 Eh     change       -0.9472625E-06 Eh
 * total energy  :   -93.7386061 Eh     change       -0.6349855E-06 Eh
 * total energy  :   -93.7386066 Eh     change       -0.5335171E-06 Eh
 * total energy  :   -93.7386082 Eh     change       -0.3159831E-06 Eh
 * total energy  :   -93.7386085 Eh     change       -0.2725503E-06 Eh
 * total energy  :   -93.7386088 Eh     change       -0.2515074E-06 Eh
 * total energy  :   -93.7386090 Eh     change       -0.2358708E-06 Eh
 * total energy  :   -93.7386092 Eh     change       -0.2397381E-06 Eh
 * total energy  :   -93.7386095 Eh     change       -0.2586064E-06 Eh
 * total energy  :   -93.7386098 Eh     change       -0.2548459E-06 Eh
 * total energy  :   -93.7386100 Eh     change       -0.2085797E-06 Eh
 * total energy  :   -93.7386100 Eh     change       -0.2374293E-08 Eh
   *** GEOMETRY OPTIMIZATION CONVERGED AFTER 22 ITERATIONS ***

 final structure:
================
66
 xtb: 6.7.1 (edcfbbe)
C            6.52955261574543       -1.88116529944658        0.94133104286099
C            6.16381101785946       -0.73476137527018       -0.01087345281310
C            7.13504982557365       -0.73698162635904       -1.18999114838743
O            4.83866443470585       -0.99720545049491       -0.48638354895987
B            3.96209040881291       -0.17691093337790        0.17087109585595
C            2.41271216058318       -0.28069035081409        0.03813570956113
C            1.55748445481852        0.57528616319158        0.74652863765882
C            0.19297670630052        0.48218550084946        0.63684579748868
C           -0.41147519842768       -0.49856554271848       -0.18301595989258
C           -1.82672608189298       -0.56839750876210       -0.30097366773921
C           -2.62230205189342        0.62919074416356        0.03366378971686
C           -2.41344581598119        1.81464893246852       -0.73308313301908
C           -1.85476883912139        1.73720733518358       -2.02685533522334
C           -1.61732121464845        2.87134493582971       -2.76849019741169
C           -1.90818165457079        4.12700318837516       -2.24917611832803
C           -2.42962608203992        4.22943175407155       -0.96597734495860
C           -2.68062303287841        3.10082773046277       -0.21817195014627
C           -3.56126920905451        0.52486417403814        1.10613793682584
C           -4.72797729800003        1.31449816654337        1.16530462047293
C           -5.63499456322621        1.16227603052301        2.19051224188872
C           -5.41843676954071        0.22700311679050        3.19383824927143
C           -4.28597992669536       -0.57649413837248        3.14384748329229
C           -3.37901222935737       -0.44094363831565        2.11800167716128
C           -2.53858645429103       -1.73964148228331       -0.71717953023032
C           -2.04198665235526       -3.03839510936329       -0.49010200642540
C           -2.77159756721481       -4.14862898490411       -0.85510178568019
C           -4.01396438396525       -4.01098976732602       -1.45932070374799
C           -4.52988500272185       -2.73963200111077       -1.67643655709307
C           -3.81425988245610       -1.62409277827038       -1.30487761754400
C            0.45311387480525       -1.34177894088101       -0.91777197930950
C            1.81691404715264       -1.22837536508173       -0.80511302388494
O            4.60284062218579        0.73934167118401        0.95985235956219
C            6.01246992325019        0.64942833175731        0.72241344837329
C            6.39147930151385        1.84237092204716       -0.16517335957155
C            6.75833953422792        0.76007609322416        2.05099929175261
H            6.45339099123880       -2.81983373252208        0.39655621209255
H            7.54224762646917       -1.76951751174431        1.31522876931543
H            5.83045280029930       -1.91924725387545        1.77347821395142
H            7.17441780843308       -1.73888123345377       -1.61093744348612
H            8.12933543907355       -0.45620401217015       -0.85525044169597
H            6.80803419281179       -0.05735894625735       -1.97059609310888
H            1.99818083684856        1.32012135220680        1.39354575500902
H           -0.44119652375856        1.14598435575611        1.20680068602142
H           -1.63586560070878        0.76456412138829       -2.44298851452915
H           -1.20167697055634        2.78397919712456       -3.76243959211138
H           -1.71810904652141        5.01561861258224       -2.83258645882815
H           -2.63222726970248        5.20440576032005       -0.54521439189783
H           -3.03718592305782        3.20005372705079        0.79622082091827
H           -4.93597926534860        2.01026509189151        0.36615139082495
H           -6.52769511818654        1.77173925783251        2.20808754353115
H           -6.13003015869469        0.11630394217685        3.99851167580316
H           -4.11523308777997       -1.31334905237829        3.91601602794199
H           -2.49453141187161       -1.06083053300986        2.09364130609230
H           -1.10036075841897       -3.16133562473028        0.02393774533741
H           -2.37532380812044       -5.13523777823453       -0.65990708920462
H           -4.57939350576624       -4.88480514405348       -1.74722980613838
H           -5.49978077735971       -2.62455333534830       -2.13926468116397
H           -4.21743045534628       -0.63850385356915       -1.48721881078920
H            0.03113929493696       -2.04945412440692       -1.61613400327199
H            2.46110812286764       -1.87586754735798       -1.38283976843982
H            7.45948106250692        1.86163616553319       -0.35726120220359
H            5.84754219097597        1.80194269224684       -1.10598616541675
H            6.10598817220190        2.75851086217898        0.34748234906551
H            6.59570781475701        1.75308164418296        2.46333102145778
H            6.39231497257149        0.03393967466485        2.76990424161784
H            7.82303304220445        0.61337437402509        1.89460396142956

          :  Hamiltonian                  GFN2-xTB          :
         :: gradient norm              0.000028600906 Eh/a0 ::
         :: HOMO-LUMO gap              1.799119984603 eV    ::
         :: SCC energy               -95.323035434474 Eh    ::
         :: -> dispersion             -0.080649740194 Eh    ::
         :: -> Gsolv                  -0.038487772485 Eh    ::
         :: repulsion energy           1.584425467631 Eh    ::

    * Orbital Energies and Occupations

         #    Occupation            Energy/Eh            Energy/eV
      -------------------------------------------------------------
         1        2.0000           -0.6950718             -18.9139
       ...           ...                  ...                  ...
        76        2.0000           -0.4165553             -11.3350
        77        2.0000           -0.4122788             -11.2187
        78        2.0000           -0.4113449             -11.1933
        79        2.0000           -0.4065179             -11.0619
        80        2.0000           -0.4042118             -10.9992
        81        2.0000           -0.4039667             -10.9925
        82        2.0000           -0.4027690             -10.9599
        83        2.0000           -0.4019017             -10.9363
        84        2.0000           -0.4003723             -10.8947
        85        2.0000           -0.3971468             -10.8069
        86        2.0000           -0.3948657             -10.7448
        87        1.0000           -0.3340849              -9.0909
        88        1.0000           -0.3031909              -8.2502 (HOMO)
        89                         -0.2370745              -6.4511 (LUMO)
        90                         -0.2270886              -6.1794
        91                         -0.2200127              -5.9868
        92                         -0.2196877              -5.9780
        93                         -0.2184437              -5.9442
        94                         -0.2156434              -5.8680
        95                         -0.2004904              -5.4556
        96                         -0.1760977              -4.7919
        97                         -0.1303484              -3.5470
        98                         -0.0954213              -2.5965
        99                         -0.0869224              -2.3653
       ...                                ...                  ...
       171                          0.6862945              18.6750
      -------------------------------------------------------------
                  HL-Gap            0.0661164 Eh            1.7991 eV

     #   Z          covCN         q      C6AA      α(0)
     1   6 C        3.755    -0.116    22.786     6.806
     2   6 C        3.854     0.128    18.471     6.113
     3   6 C        3.755    -0.119    22.835     6.814
     4   8 O        1.637    -0.387    20.602     6.127
     5   5 B        2.649     0.432    15.597     6.656
     6   6 C        2.886    -0.085    30.114     8.997
     7   6 C        2.917    -0.030    28.737     8.791
     8   6 C        2.920    -0.035    28.882     8.813
     9   6 C        2.970     0.016    27.643     8.624
    10   6 C        2.970    -0.003    28.100     8.695
    11   6 C        2.971    -0.006    28.167     8.705
    12   6 C        2.970     0.015    27.676     8.629
    13   6 C        2.924    -0.035    28.864     8.810
    14   6 C        2.915    -0.030    28.748     8.792
    15   6 C        2.919    -0.033    28.820     8.803
    16   6 C        2.915    -0.031    28.761     8.794
    17   6 C        2.921    -0.036    28.893     8.815
    18   6 C        2.971     0.015    27.678     8.630
    19   6 C        2.921    -0.036    28.885     8.814
    20   6 C        2.915    -0.030    28.761     8.794
    21   6 C        2.919    -0.033    28.819     8.803
    22   6 C        2.915    -0.030    28.745     8.792
    23   6 C        2.924    -0.035    28.862     8.810
    24   6 C        2.971     0.015    27.666     8.628
    25   6 C        2.922    -0.035    28.868     8.811
    26   6 C        2.915    -0.030    28.752     8.793
    27   6 C        2.919    -0.032    28.798     8.800
    28   6 C        2.915    -0.030    28.741     8.791
    29   6 C        2.924    -0.034    28.839     8.807
    30   6 C        2.917    -0.037    28.918     8.818
    31   6 C        2.918    -0.030    28.755     8.793
    32   8 O        1.637    -0.387    20.610     6.128
    33   6 C        3.854     0.128    18.470     6.112
    34   6 C        3.755    -0.116    22.785     6.806
    35   6 C        3.755    -0.119    22.834     6.814
    36   1 H        0.925     0.052     2.295     2.369
    37   1 H        0.925     0.053     2.280     2.361
    38   1 H        0.925     0.039     2.456     2.451
    39   1 H        0.925     0.055     2.255     2.348
    40   1 H        0.925     0.051     2.311     2.377
    41   1 H        0.925     0.051     2.305     2.374
    42   1 H        0.926     0.031     2.569     2.507
    43   1 H        0.926     0.032     2.564     2.504
    44   1 H        0.926     0.029     2.602     2.523
    45   1 H        0.926     0.029     2.600     2.521
    46   1 H        0.926     0.030     2.585     2.514
    47   1 H        0.926     0.031     2.571     2.507
    48   1 H        0.926     0.036     2.501     2.473
    49   1 H        0.926     0.036     2.503     2.474
    50   1 H        0.926     0.031     2.570     2.507
    51   1 H        0.926     0.030     2.584     2.514
    52   1 H        0.926     0.029     2.596     2.520
    53   1 H        0.926     0.029     2.606     2.524
    54   1 H        0.926     0.036     2.501     2.473
    55   1 H        0.926     0.032     2.559     2.502
    56   1 H        0.926     0.031     2.567     2.506
    57   1 H        0.926     0.031     2.576     2.510
    58   1 H        0.926     0.030     2.580     2.512
    59   1 H        0.926     0.038     2.471     2.458
    60   1 H        0.926     0.033     2.544     2.494
    61   1 H        0.925     0.053     2.280     2.361
    62   1 H        0.925     0.039     2.456     2.451
    63   1 H        0.925     0.052     2.298     2.371
    64   1 H        0.925     0.055     2.257     2.349
    65   1 H        0.925     0.051     2.304     2.374
    66   1 H        0.925     0.051     2.311     2.377

molecular dipole:
                 x           y           z       tot (Debye)
 q only:        0.609       0.014       0.052
   full:        0.729       0.020       0.063       1.861

 projected vibrational frequencies (cm⁻¹)
eigval :       -0.00    -0.00     0.00     0.00     0.00     0.00
eigval :        9.57    16.35    20.83    30.32    37.62    48.86
eigval :       52.06    54.20    60.24    67.14    76.60    88.02
eigval :       94.46   113.15   137.99   172.72   183.43   199.90
eigval :      210.61   214.02   229.10   247.93   256.10   272.89
eigval :      274.68   277.39   283.98   289.14   309.88   324.13
eigval :      333.45   360.98   362.76   365.02   371.60   373.64
eigval :      384.26   386.69   401.93   413.83   438.57   452.75
eigval :      470.97   494.05   515.48   518.76   547.39   579.28
eigval :      580.89   583.31   583.75   585.18   596.59   608.66
eigval :      614.56   624.99   656.10   659.25   662.84   683.97
eigval :      686.29   693.54   746.44   748.57   751.26   803.11
eigval :      807.04   836.91   851.41   854.15   866.38   867.50
eigval :      882.39   887.02   893.48   894.13   897.97   903.68
eigval :      920.33   921.57   921.89   924.17   924.81   925.75
eigval :      926.28   942.43   943.29   945.54   949.53   963.24
eigval :      969.26   977.29   980.93   988.37   999.52   999.80
eigval :     1005.61  1077.89  1079.10  1079.82  1098.05  1101.11
eigval :     1104.83  1118.92  1123.92  1130.83  1140.39  1153.34
eigval :     1159.75  1177.11  1178.32  1179.50  1187.27  1187.29
eigval :     1189.92  1198.67  1207.00  1208.23  1223.17  1243.97
eigval :     1250.47  1265.67  1273.09  1277.02  1284.93  1293.21
eigval :     1304.53  1312.47  1320.00  1325.16  1328.14  1329.65
eigval :     1336.98  1382.14  1388.21  1396.41  1406.15  1406.30
eigval :     1418.55  1424.86  1429.46  1434.69  1440.26  1454.66
eigval :     1457.42  1459.11  1468.57  1474.23  1479.57  1490.88
eigval :     1496.15  1497.79  1503.43  1516.53  1537.41  1540.25
eigval :     1542.11  1563.62  1567.56  1578.27  1583.00  3026.18
eigval :     3027.46  3034.65  3036.58  3038.07  3039.41  3043.82
eigval :     3044.29  3052.47  3054.96  3060.09  3060.91  3064.30
eigval :     3065.58  3066.50  3066.54  3066.72  3067.66  3069.63
eigval :     3071.27  3079.59  3079.89  3080.65  3081.06  3083.51
eigval :     3083.70  3084.54  3085.27  3090.00  3090.65  3091.60

   temp. (K)  partition function   enthalpy   heat capacity  entropy
                                   cal/mol     cal/K/mol   cal/K/mol   J/K/mol
 298.15  VIB  0.285E+15            18489.291    115.138    115.485
         ROT  0.365E+08              888.752      2.981     37.586
         INT  0.104E+23            19378.044    118.119    153.071
         TR   0.950E+28             1481.254      4.968     44.236
         TOT                       20859.2975   123.0867   197.3074   825.5342

       T/K    H(0)-H(T)+PV         H(T)/Eh          T*S/Eh         G(T)/Eh
   ------------------------------------------------------------------------
    298.15    0.332414E-01    0.563236E+00    0.937471E-01    0.469488E+00
   ------------------------------------------------------------------------

         :::::::::::::::::::::::::::::::::::::::::::::::::::::
         ::                  THERMODYNAMIC                  ::
         :::::::::::::::::::::::::::::::::::::::::::::::::::::
         :: total free energy         -93.269121532544 Eh   ::
         ::.................................................::
         :: total energy              -93.738609965410 Eh   ::
         :: zero point energy           0.529994144723 Eh   ::
         :: G(RRHO) w/o ZPVE           -0.060505711857 Eh   ::
         :: G(RRHO) contrib.            0.469488432866 Eh   ::
         :::::::::::::::::::::::::::::::::::::::::::::::::::::

           -------------------------------------------------
          | TOTAL ENERGY              -93.738609965410 Eh   |
          | TOTAL ENTHALPY            -93.175374414183 Eh   |
          | TOTAL FREE ENERGY         -93.269121532544 Eh   |
          | GRADIENT NORM               0.000028616777 Eh/α |
          | HOMO-LUMO GAP               1.799119120680 eV   |
           -------------------------------------------------

 * finished run on 2025/07/16 at 15:51:39.107
