   * xtb version 6.7.1 (edcfbbe) compiled by 'albert@albert-system' on 2024-07-22

   ID    Z sym.   atoms
    1    6 C      1-3, 6-31, 33-35
    2    8 O      4, 32
    3    5 B      5
    4    1 H      36-66

          program call               : xtb data2507/toluene/PTZTPE-2/PTZTPE-2_toluene_S0_finalOpt.xtbopt.xyz --gfn 2 --uhf 2 --gbsa toluene --ohess vtight --parallel 40 --molden --ceasefiles --namespace data2507/toluene/PTZTPE-2/PTZTPE-2_toluene_T1_preOpt
      * Solvation model:               GBSA
        Solvent                        toluene
        Solvent mass                       9.2140E+01 g/mol
          :  Hamiltonian                  GFN2-xTB          :
 * total energy  :   -93.7084125 Eh     change       -0.8833894E-09 Eh
 * total energy  :   -93.7197340 Eh     change       -0.1132148E-01 Eh
 * total energy  :   -93.7237246 Eh     change       -0.3990589E-02 Eh
 * total energy  :   -93.7252536 Eh     change       -0.1529064E-02 Eh
 * total energy  :   -93.7268905 Eh     change       -0.1636871E-02 Eh
 * total energy  :   -93.7283504 Eh     change       -0.1459907E-02 Eh
 * total energy  :   -93.7296742 Eh     change       -0.1323759E-02 Eh
 * total energy  :   -93.7305881 Eh     change       -0.9138935E-03 Eh
 * total energy  :   -93.7311129 Eh     change       -0.5248470E-03 Eh
 * total energy  :   -93.7314653 Eh     change       -0.3524004E-03 Eh
 * total energy  :   -93.7386118 Eh     change       -0.8701408E-06 Eh
 * total energy  :   -93.7386127 Eh     change       -0.8817740E-06 Eh
 * total energy  :   -93.7386136 Eh     change       -0.9195271E-06 Eh
 * total energy  :   -93.7386147 Eh     change       -0.1094402E-05 Eh
 * total energy  :   -93.7386161 Eh     change       -0.1382405E-05 Eh
 * total energy  :   -93.7386176 Eh     change       -0.1537200E-05 Eh
 * total energy  :   -93.7386189 Eh     change       -0.1360965E-05 Eh
 * total energy  :   -93.7386200 Eh     change       -0.1072720E-05 Eh
 * total energy  :   -93.7386200 Eh     change       -0.8590789E-08 Eh
   *** GEOMETRY OPTIMIZATION CONVERGED AFTER 94 ITERATIONS ***

 final structure:
================
66
 xtb: 6.7.1 (edcfbbe)
C            7.10295214374450       -1.71695881316244        0.19579297934765
C            6.18001255356229       -0.52687576639205       -0.06085205252287
C            6.65610422655772        0.21386432043127       -1.31760110459361
O            4.85779328479746       -1.00280301779651       -0.33633728162271
B            3.95482203269064       -0.20101569858008        0.30764872597873
C            2.41148497915802       -0.31069715036532        0.12037441039923
C            1.52683212058559        0.52165676009749        0.82074287818805
C            0.16822239685205        0.43330692535649        0.65071300910889
C           -0.40088454949309       -0.52062197239605       -0.22405147880191
C           -1.80957739574755       -0.57882679472612       -0.41131119105964
C           -2.61123627600847        0.61829167193189       -0.09163066134215
C           -2.33452418803991        1.82474047124543       -0.80346395354575
C           -1.70403719946683        1.77967918204608       -2.06505231832805
C           -1.40552594312505        2.93325725148597       -2.75280301035570
C           -1.70312918072017        4.17617334437467       -2.20737677714310
C           -2.29400598283782        4.24569878611830       -0.95240725342316
C           -2.60734684857450        3.09757815350664       -0.25972969395812
C           -3.62628473886174        0.49533398185506        0.90621659890865
C           -4.78020811817663        1.30632083023346        0.90940083101883
C           -5.76586000574241        1.13208906702756        1.85523301798590
C           -5.64324880598963        0.15360544052801        2.83305663016190
C           -4.52331175491025       -0.66881332005532        2.83787550161301
C           -3.53760562479094       -0.51106992212307        1.89101776209445
C           -2.50579627053941       -1.73547983055204       -0.88913395248457
C           -2.02535219851767       -3.04204043063241       -0.67081889328164
C           -2.74171405372309       -4.13945477868706       -1.09557409430105
C           -3.95429221134011       -3.98111223984365       -1.75303331057648
C           -4.45443660738619       -2.70231490828110       -1.96337623198405
C           -3.75215096921514       -1.59960226508778       -1.53299219830366
C            0.49373185413300       -1.34553426123716       -0.94333898262686
C            1.85163660058883       -1.23484021211282       -0.77221824031501
O            4.56346738383887        0.70752755426783        1.13002298073011
C            5.96724908903453        0.42670895035280        1.17337686884973
C            6.74793150636189        1.73861020370441        1.11610553594923
C            6.24251417312796       -0.26027657424159        2.51760791566222
H            7.18673335960902       -2.30008727285096       -0.71824063057307
H            8.09063037338419       -1.36847788120353        0.48311611303619
H            6.70496311040158       -2.36363985360962        0.97136263707078
H            6.62127467942591       -0.47574336289214       -2.15836935622723
H            7.67273801566341        0.57395618685268       -1.19651021586490
H            5.99300515255065        1.04659503621069       -1.54014035689947
H            1.93961352897651        1.24618374705089        1.50798677804864
H           -0.48952387159955        1.07980348944216        1.21382627992255
H           -1.47943486090353        0.81757162566934       -2.50205078229301
H           -0.93630020349711        2.87088667849746       -3.72455863693391
H           -1.46494661412931        5.07999668761719       -2.74825609817113
H           -2.50246286926830        5.20976128024286       -0.50993966170890
H           -3.01950859230402        3.16916272787443        0.73581106359047
H           -4.91425978707900        2.03686164105025        0.12549202698476
H           -6.64698372633147        1.75791814228033        1.82943403456413
H           -6.41736496492907        0.02460338158263        3.57480681218019
H           -4.42489582277841       -1.43832865494527        3.59054888396612
H           -2.66396947583016       -1.14628446453229        1.91010532613453
H           -1.10897719319511       -3.18215406875908       -0.11706137753141
H           -2.35886721318248       -5.13244127193968       -0.90610845673382
H           -4.50975102696517       -4.84503487355826       -2.08663790551618
H           -5.40168887190957       -2.57128930791001       -2.46699803589853
H           -4.14260907100865       -0.60808544579167       -1.71047827987906
H            0.10143354413014       -2.03370647617320       -1.67760144752866
H            2.51966572364590       -1.86546492949193       -1.34146789299091
H            7.81416167994441        1.53700055847306        1.07097191615557
H            6.45331555717518        2.33516012143721        0.25858761767330
H            6.53513252167419        2.31312315792695        2.01455044477171
H            5.92183061510805        0.40427759612924        3.31712461145828
H            5.66868290606962       -1.18060950038815        2.59677107478228
H            7.29991456555736       -0.47362546704923        2.63695150285382

          :  Hamiltonian                  GFN2-xTB          :
         :: gradient norm              0.000061762228 Eh/a0 ::
         :: HOMO-LUMO gap              1.781809389505 eV    ::
         :: SCC energy               -95.323022625745 Eh    ::
         :: -> dispersion             -0.080733507211 Eh    ::
         :: -> Gsolv                  -0.038481258856 Eh    ::
         :: repulsion energy           1.584402594337 Eh    ::

    * Orbital Energies and Occupations

         #    Occupation            Energy/Eh            Energy/eV
      -------------------------------------------------------------
         1        2.0000           -0.6950467             -18.9132
       ...           ...                  ...                  ...
        76        2.0000           -0.4166670             -11.3381
        77        2.0000           -0.4122926             -11.2191
        78        2.0000           -0.4113709             -11.1940
        79        2.0000           -0.4064497             -11.0601
        80        2.0000           -0.4042442             -11.0000
        81        2.0000           -0.4036142             -10.9829
        82        2.0000           -0.4033792             -10.9765
        83        2.0000           -0.4019375             -10.9373
        84        2.0000           -0.4002561             -10.8915
        85        2.0000           -0.3969646             -10.8020
        86        2.0000           -0.3948476             -10.7444
        87        1.0000           -0.3347011              -9.1077
        88        1.0000           -0.3026008              -8.2342 (HOMO)
        89                         -0.2371204              -6.4524 (LUMO)
        90                         -0.2271164              -6.1802
        91                         -0.2200538              -5.9880
        92                         -0.2196271              -5.9764
        93                         -0.2184365              -5.9440
        94                         -0.2156024              -5.8668
        95                         -0.2006646              -5.4604
        96                         -0.1758292              -4.7846
        97                         -0.1302950              -3.5455
        98                         -0.0954557              -2.5975
        99                         -0.0869632              -2.3664
       ...                                ...                  ...
       171                          0.6865629              18.6823
      -------------------------------------------------------------
                  HL-Gap            0.0654804 Eh            1.7818 eV

     #   Z          covCN         q      C6AA      α(0)
     1   6 C        3.755    -0.119    22.835     6.814
     2   6 C        3.853     0.128    18.472     6.113
     3   6 C        3.755    -0.116    22.785     6.806
     4   8 O        1.637    -0.387    20.601     6.127
     5   5 B        2.648     0.432    15.601     6.658
     6   6 C        2.886    -0.085    30.114     8.997
     7   6 C        2.917    -0.030    28.737     8.791
     8   6 C        2.920    -0.035    28.881     8.813
     9   6 C        2.970     0.016    27.643     8.624
    10   6 C        2.970    -0.003    28.103     8.696
    11   6 C        2.971    -0.006    28.169     8.706
    12   6 C        2.970     0.015    27.674     8.629
    13   6 C        2.924    -0.035    28.862     8.810
    14   6 C        2.915    -0.030    28.749     8.792
    15   6 C        2.919    -0.033    28.820     8.803
    16   6 C        2.915    -0.031    28.762     8.794
    17   6 C        2.921    -0.036    28.889     8.814
    18   6 C        2.970     0.015    27.677     8.629
    19   6 C        2.921    -0.036    28.885     8.814
    20   6 C        2.915    -0.030    28.760     8.794
    21   6 C        2.919    -0.033    28.819     8.803
    22   6 C        2.915    -0.030    28.744     8.792
    23   6 C        2.924    -0.035    28.861     8.810
    24   6 C        2.971     0.015    27.664     8.627
    25   6 C        2.922    -0.035    28.868     8.811
    26   6 C        2.915    -0.030    28.752     8.793
    27   6 C        2.919    -0.032    28.797     8.800
    28   6 C        2.915    -0.030    28.741     8.791
    29   6 C        2.924    -0.034    28.838     8.806
    30   6 C        2.917    -0.037    28.917     8.818
    31   6 C        2.918    -0.030    28.755     8.793
    32   8 O        1.637    -0.387    20.608     6.128
    33   6 C        3.853     0.128    18.471     6.113
    34   6 C        3.755    -0.119    22.834     6.814
    35   6 C        3.755    -0.116    22.785     6.806
    36   1 H        0.925     0.055     2.255     2.348
    37   1 H        0.925     0.051     2.311     2.377
    38   1 H        0.925     0.051     2.304     2.374
    39   1 H        0.925     0.052     2.295     2.369
    40   1 H        0.925     0.053     2.281     2.362
    41   1 H        0.925     0.039     2.456     2.451
    42   1 H        0.926     0.031     2.570     2.507
    43   1 H        0.926     0.032     2.565     2.504
    44   1 H        0.926     0.029     2.603     2.523
    45   1 H        0.926     0.029     2.600     2.521
    46   1 H        0.926     0.030     2.584     2.514
    47   1 H        0.926     0.031     2.569     2.507
    48   1 H        0.926     0.036     2.503     2.474
    49   1 H        0.926     0.036     2.505     2.475
    50   1 H        0.926     0.031     2.570     2.507
    51   1 H        0.926     0.030     2.583     2.513
    52   1 H        0.926     0.029     2.596     2.520
    53   1 H        0.926     0.029     2.606     2.525
    54   1 H        0.926     0.036     2.501     2.473
    55   1 H        0.926     0.032     2.559     2.502
    56   1 H        0.926     0.031     2.567     2.506
    57   1 H        0.926     0.031     2.576     2.510
    58   1 H        0.926     0.030     2.582     2.513
    59   1 H        0.926     0.038     2.472     2.459
    60   1 H        0.926     0.033     2.544     2.494
    61   1 H        0.925     0.051     2.310     2.377
    62   1 H        0.925     0.051     2.307     2.375
    63   1 H        0.925     0.055     2.257     2.350
    64   1 H        0.925     0.052     2.297     2.370
    65   1 H        0.925     0.040     2.454     2.450
    66   1 H        0.925     0.053     2.280     2.361

molecular dipole:
                 x           y           z       tot (Debye)
 q only:        0.607       0.024       0.063
   full:        0.726       0.031       0.077       1.856

 projected vibrational frequencies (cm⁻¹)
eigval :       -0.00    -0.00    -0.00    -0.00    -0.00     0.00
eigval :       10.17    12.12    19.43    29.77    36.96    47.59
eigval :       52.00    55.66    59.10    64.18    75.97    90.18
eigval :       95.55   112.85   139.00   170.94   183.87   196.95
eigval :      210.01   214.61   223.40   250.12   254.96   271.83
eigval :      272.78   276.63   283.78   290.09   310.07   324.11
eigval :      334.10   355.01   362.38   366.18   371.98   378.03
eigval :      385.68   386.79   403.50   413.03   436.47   452.73
eigval :      469.10   495.10   514.64   517.65   547.70   578.07
eigval :      581.23   582.85   584.17   585.34   596.39   608.63
eigval :      614.53   624.69   655.61   658.52   662.16   683.70
eigval :      687.23   693.07   743.63   747.47   748.03   803.12
eigval :      807.08   836.84   851.90   853.59   865.55   867.71
eigval :      881.87   886.91   887.98   893.72   895.92   903.43
eigval :      919.57   921.66   922.11   922.32   923.71   925.35
eigval :      926.16   940.24   942.58   945.76   949.34   964.05
eigval :      969.37   977.62   980.86   988.21   998.20   999.92
eigval :     1005.19  1077.66  1079.03  1079.60  1098.14  1101.32
eigval :     1104.60  1118.81  1122.65  1131.37  1139.67  1153.00
eigval :     1159.41  1176.67  1177.60  1178.39  1186.91  1187.54
eigval :     1189.57  1198.73  1207.17  1208.21  1223.14  1243.81
eigval :     1250.73  1265.43  1271.55  1276.80  1284.23  1293.03
eigval :     1304.75  1312.59  1320.40  1324.96  1328.20  1329.81
eigval :     1336.22  1381.26  1387.89  1396.09  1406.10  1406.50
eigval :     1418.34  1424.16  1429.28  1433.94  1439.98  1454.28
eigval :     1457.02  1459.14  1468.22  1473.36  1479.04  1490.12
eigval :     1496.15  1497.20  1503.45  1516.51  1537.12  1539.54
eigval :     1540.94  1563.56  1567.36  1577.98  1583.13  3025.88
eigval :     3027.51  3034.85  3036.55  3038.31  3039.24  3043.74
eigval :     3044.48  3052.44  3055.13  3060.53  3060.79  3064.87
eigval :     3066.01  3066.41  3066.97  3067.18  3068.36  3069.53
eigval :     3071.33  3079.84  3080.22  3080.69  3081.12  3082.46
eigval :     3083.89  3084.62  3085.07  3089.62  3090.84  3091.26

   temp. (K)  partition function   enthalpy   heat capacity  entropy
                                   cal/mol     cal/K/mol   cal/K/mol   J/K/mol
 298.15  VIB  0.423E+15            18516.106    115.129    115.888
         ROT  0.364E+08              888.752      2.981     37.578
         INT  0.154E+23            19404.859    118.110    153.467
         TR   0.950E+28             1481.254      4.968     44.236
         TOT                       20886.1126   123.0778   197.7033   827.1904

       T/K    H(0)-H(T)+PV         H(T)/Eh          T*S/Eh         G(T)/Eh
   ------------------------------------------------------------------------
    298.15    0.332841E-01    0.563134E+00    0.939352E-01    0.469198E+00
   ------------------------------------------------------------------------

         :::::::::::::::::::::::::::::::::::::::::::::::::::::
         ::                  THERMODYNAMIC                  ::
         :::::::::::::::::::::::::::::::::::::::::::::::::::::
         :: total free energy         -93.269421699329 Eh   ::
         ::.................................................::
         :: total energy              -93.738620029778 Eh   ::
         :: zero point energy           0.529849386496 Eh   ::
         :: G(RRHO) w/o ZPVE           -0.060651056048 Eh   ::
         :: G(RRHO) contrib.            0.469198330449 Eh   ::
         :::::::::::::::::::::::::::::::::::::::::::::::::::::

           -------------------------------------------------
          | TOTAL ENERGY              -93.738620029778 Eh   |
          | TOTAL ENTHALPY            -93.175486504293 Eh   |
          | TOTAL FREE ENERGY         -93.269421699329 Eh   |
          | GRADIENT NORM               0.000061773820 Eh/α |
          | HOMO-LUMO GAP               1.781811922761 eV   |
           -------------------------------------------------

 * finished run on 2025/07/16 at 15:49:10.765
