   * xtb version 6.7.1 (edcfbbe) compiled by 'albert@albert-system' on 2024-07-22

   ID    Z sym.   atoms
    1    6 C      1-3, 6-31, 33-35
    2    8 O      4, 32
    3    5 B      5
    4    1 H      36-66

          program call               : xtb data2507/toluene/PTZTPE-2/PTZTPE-2.xyz --gfn 2 --gbsa toluene --ohess vtight --parallel 40 --molden --ceasefiles --namespace data2507/toluene/PTZTPE-2/PTZTPE-2_toluene_S0_preOpt
      * Solvation model:               GBSA
        Solvent                        toluene
        Solvent mass                       9.2140E+01 g/mol
          :  Hamiltonian                  GFN2-xTB          :
 * total energy  :   -93.7246764 Eh     change       -0.2119975E-08 Eh
 * total energy  :   -93.7608948 Eh     change       -0.3621837E-01 Eh
 * total energy  :   -93.7740781 Eh     change       -0.1318333E-01 Eh
 * total energy  :   -93.7792736 Eh     change       -0.5195478E-02 Eh
 * total energy  :   -93.7838177 Eh     change       -0.4544046E-02 Eh
 * total energy  :   -93.7874762 Eh     change       -0.3658496E-02 Eh
 * total energy  :   -93.7905558 Eh     change       -0.3079630E-02 Eh
 * total energy  :   -93.7930328 Eh     change       -0.2476998E-02 Eh
 * total energy  :   -93.7949360 Eh     change       -0.1903198E-02 Eh
 * total energy  :   -93.7962385 Eh     change       -0.1302518E-02 Eh
 * total energy  :   -93.8062537 Eh     change       -0.6231886E-06 Eh
 * total energy  :   -93.8062542 Eh     change       -0.4179184E-06 Eh
 * total energy  :   -93.8062545 Eh     change       -0.3252940E-06 Eh
 * total energy  :   -93.8062548 Eh     change       -0.3067454E-06 Eh
 * total energy  :   -93.8062551 Eh     change       -0.2663469E-06 Eh
 * total energy  :   -93.8062553 Eh     change       -0.2829802E-06 Eh
 * total energy  :   -93.8062555 Eh     change       -0.2107562E-06 Eh
 * total energy  :   -93.8062557 Eh     change       -0.1775533E-06 Eh
 * total energy  :   -93.8062557 Eh     change       -0.2261089E-08 Eh
   *** GEOMETRY OPTIMIZATION CONVERGED AFTER 122 ITERATIONS ***

 final structure:
================
66
 xtb: 6.7.1 (edcfbbe)
C            6.38946886457423        1.55232477571171        1.32462468787760
C            5.64648450350258        0.29457837334207        0.87803183361843
C            6.07360026672291       -0.88120170416153        1.76647488593942
O            4.23969148393019        0.47695054189489        1.07981877576157
B            3.56851203147847       -0.03322353518252        0.00428869490635
C            2.01160269199431       -0.16167456944162       -0.06780516958434
C            1.20265583288369        0.26621265148923        0.98696457934168
C           -0.17125317900591        0.15128557105284        0.93081554893591
C           -0.79149010155642       -0.40224751365059       -0.18896820862788
C           -2.25399215326070       -0.56623366969101       -0.24179923244236
C           -3.10678925027413        0.42095397086703        0.11406587855947
C           -2.65498679332259        1.79907080765561        0.37334271328708
C           -1.78056939393800        2.44291042448731       -0.50052949071472
C           -1.38785516081420        3.74715484312914       -0.26611272046110
C           -1.86078444854829        4.43032239225072        0.84277185353533
C           -2.73811151034978        3.80308906002693        1.71232144337257
C           -3.13839868701494        2.50102019381023        1.47644999197095
C           -4.55491321505191        0.19848932993819        0.26958311290547
C           -5.46702759412892        1.11258650456856       -0.25541683709797
C           -6.82668551194635        0.92170345240714       -0.09316645761603
C           -7.29724128567103       -0.17710307788256        0.60713293473011
C           -6.39831510810314       -1.08167280293341        1.14925810737515
C           -5.03876005525853       -0.89667840167462        0.98335143208793
C           -2.71971190292791       -1.88593370647604       -0.70298850488838
C           -2.11132477048459       -3.04818792085395       -0.23130871043708
C           -2.53207453661292       -4.29003295677468       -0.66960913134250
C           -3.55710376272099       -4.39149531404516       -1.59601936602034
C           -4.15478431734196       -3.24158488841696       -2.08641334758213
C           -3.74019269707522       -1.99903042761512       -1.64574259938095
C            0.00884286890606       -0.84856896866196       -1.24028833321633
C            1.38207027003294       -0.72063387341163       -1.18154657410534
O            4.41279950156134       -0.42379020133221       -0.99679438948012
C            5.74768043830964       -0.02663100902977       -0.65944252014856
C            6.71661605400302       -1.15094228402318       -1.02071379983678
C            6.07282231893871        1.20768305481889       -1.51073797409069
H            6.26117220373023        1.67342771043101        2.39765564326826
H            7.44882086254089        1.45786392313193        1.10482763225740
H            5.99376573017317        2.43778778317807        0.83736826866673
H            5.82328310430275       -0.64301727632442        2.79808841425655
H            7.14189143272880       -1.05771500829839        1.69276647938530
H            5.53044680825080       -1.78176976393694        1.48969328402045
H            1.67398614495509        0.69083197352680        1.86139998922410
H           -0.77597505583039        0.47831278336526        1.76436342666437
H           -1.41913472622538        1.91809099688293       -1.37277922001745
H           -0.71202953240156        4.23469056891998       -0.95413466203746
H           -1.55107794132124        5.44912091535270        1.02535038473304
H           -3.11412263681683        4.33206477633654        2.57651140301570
H           -3.82240302138053        2.01302508814557        2.15684938433136
H           -5.10203243175493        1.96988852098447       -0.80385626618231
H           -7.52246046976655        1.63384727980933       -0.51364037971681
H           -8.35978264219491       -0.32464662396975        0.73541435978557
H           -6.75864117544809       -1.93427406103927        1.70700132544976
H           -4.34054068079668       -1.59670088670044        1.41858610873974
H           -1.31226418516150       -2.97154913700371        0.49292558133085
H           -2.05741677689757       -5.18281216101886       -0.28782988437251
H           -3.88466788065714       -5.36211399905763       -1.93912968988407
H           -4.94624359882272       -3.31341887654467       -2.81868701905448
H           -4.20036810009849       -1.10480444959532       -2.03998877425202
H           -0.45737760446615       -1.28617117072034       -2.11246173414421
H            1.99317754032984       -1.06023922523326       -2.00523207130781
H            7.72135054038993       -0.89665872561128       -0.69613801761429
H            6.41493007965777       -2.09077545560276       -0.56932525567333
H            6.71706460457318       -1.28105430323052       -2.10032788695121
H            5.96413077466270        0.94168495638856       -2.56001776179268
H            5.37317617802229        2.01171865899863       -1.29482421431117
H            7.08886076434001        1.54589506623505       -1.33432195503034

          :  Hamiltonian                  GFN2-xTB          :
         :: gradient norm              0.000038853637 Eh/a0 ::
         :: HOMO-LUMO gap              2.648186491366 eV    ::
         :: SCC energy               -95.409268143310 Eh    ::
         :: -> dispersion             -0.081938680866 Eh    ::
         :: -> Gsolv                  -0.038222295894 Eh    ::
         :: repulsion energy           1.603012416582 Eh    ::

    * Orbital Energies and Occupations

         #    Occupation            Energy/Eh            Energy/eV
      -------------------------------------------------------------
         1        2.0000           -0.6961728             -18.9438
       ...           ...                  ...                  ...
        75        2.0000           -0.4192492             -11.4084
        76        2.0000           -0.4172974             -11.3552
        77        2.0000           -0.4124420             -11.2231
        78        2.0000           -0.4075706             -11.0906
        79        2.0000           -0.4051915             -11.0258
        80        2.0000           -0.4046965             -11.0124
        81        2.0000           -0.4042611             -11.0005
        82        2.0000           -0.4011364             -10.9155
        83        2.0000           -0.4001631             -10.8890
        84        2.0000           -0.3996631             -10.8754
        85        2.0000           -0.3966983             -10.7947
        86        2.0000           -0.3950473             -10.7498
        87        2.0000           -0.3623354              -9.8596 (HOMO)
        88                         -0.2650163              -7.2115 (LUMO)
        89                         -0.2353054              -6.4030
        90                         -0.2246695              -6.1136
        91                         -0.2235205              -6.0823
        92                         -0.2206121              -6.0032
        93                         -0.2185576              -5.9473
        94                         -0.2157687              -5.8714
        95                         -0.2104014              -5.7253
        96                         -0.1699050              -4.6234
        97                         -0.1318393              -3.5875
        98                         -0.0934400              -2.5426
       ...                                ...                  ...
       171                          0.6922054              18.8359
      -------------------------------------------------------------
                  HL-Gap            0.0973191 Eh            2.6482 eV

     #   Z          covCN         q      C6AA      α(0)
     1   6 C        3.755    -0.119    22.839     6.814
     2   6 C        3.854     0.128    18.473     6.113
     3   6 C        3.755    -0.117    22.791     6.807
     4   8 O        1.637    -0.385    20.570     6.122
     5   5 B        2.650     0.434    15.574     6.651
     6   6 C        2.886    -0.083    30.079     8.992
     7   6 C        2.922    -0.030    28.741     8.792
     8   6 C        2.920    -0.034    28.837     8.806
     9   6 C        2.978     0.018    27.600     8.618
    10   6 C        2.966    -0.006    28.159     8.704
    11   6 C        2.967    -0.005    28.151     8.703
    12   6 C        2.978     0.015    27.671     8.629
    13   6 C        2.924    -0.033    28.817     8.803
    14   6 C        2.918    -0.031    28.765     8.795
    15   6 C        2.920    -0.032    28.804     8.801
    16   6 C        2.918    -0.031    28.771     8.796
    17   6 C        2.925    -0.033    28.818     8.803
    18   6 C        2.978     0.015    27.663     8.627
    19   6 C        2.924    -0.033    28.815     8.803
    20   6 C        2.918    -0.031    28.767     8.795
    21   6 C        2.920    -0.032    28.801     8.801
    22   6 C        2.918    -0.030    28.758     8.794
    23   6 C        2.924    -0.032    28.808     8.802
    24   6 C        2.978     0.015    27.667     8.628
    25   6 C        2.925    -0.033    28.821     8.804
    26   6 C        2.918    -0.031    28.768     8.795
    27   6 C        2.920    -0.032    28.802     8.801
    28   6 C        2.918    -0.030    28.761     8.794
    29   6 C        2.924    -0.032    28.809     8.802
    30   6 C        2.921    -0.034    28.843     8.807
    31   6 C        2.921    -0.030    28.749     8.793
    32   8 O        1.637    -0.385    20.565     6.121
    33   6 C        3.854     0.128    18.474     6.113
    34   6 C        3.755    -0.119    22.840     6.814
    35   6 C        3.755    -0.117    22.791     6.807
    36   1 H        0.925     0.056     2.251     2.346
    37   1 H        0.925     0.051     2.304     2.373
    38   1 H        0.925     0.052     2.301     2.372
    39   1 H        0.925     0.052     2.291     2.367
    40   1 H        0.925     0.054     2.273     2.358
    41   1 H        0.925     0.040     2.452     2.449
    42   1 H        0.926     0.033     2.541     2.493
    43   1 H        0.926     0.032     2.564     2.504
    44   1 H        0.926     0.028     2.612     2.528
    45   1 H        0.926     0.030     2.590     2.517
    46   1 H        0.926     0.031     2.571     2.507
    47   1 H        0.926     0.031     2.568     2.506
    48   1 H        0.926     0.029     2.605     2.524
    49   1 H        0.926     0.028     2.614     2.528
    50   1 H        0.926     0.031     2.574     2.509
    51   1 H        0.926     0.031     2.570     2.507
    52   1 H        0.926     0.031     2.577     2.510
    53   1 H        0.926     0.029     2.607     2.525
    54   1 H        0.926     0.027     2.623     2.533
    55   1 H        0.926     0.031     2.577     2.510
    56   1 H        0.926     0.031     2.567     2.506
    57   1 H        0.926     0.031     2.572     2.508
    58   1 H        0.926     0.029     2.599     2.521
    59   1 H        0.925     0.031     2.570     2.507
    60   1 H        0.926     0.033     2.538     2.491
    61   1 H        0.925     0.051     2.304     2.374
    62   1 H        0.925     0.052     2.301     2.372
    63   1 H        0.925     0.056     2.251     2.346
    64   1 H        0.925     0.052     2.290     2.367
    65   1 H        0.925     0.040     2.451     2.448
    66   1 H        0.925     0.054     2.273     2.358

molecular dipole:
                 x           y           z       tot (Debye)
 q only:        0.790       0.065       0.046
   full:        0.901       0.073       0.052       2.301

 projected vibrational frequencies (cm⁻¹)
eigval :       -0.00    -0.00     0.00     0.00     0.00     0.00
eigval :       14.33    17.90    20.58    33.03    41.71    46.22
eigval :       54.50    60.65    63.28    64.67    69.38    70.63
eigval :       78.13   115.82   136.48   164.18   173.29   196.66
eigval :      209.91   222.05   236.31   244.92   255.85   268.24
eigval :      271.29   273.45   281.19   284.07   303.12   316.54
eigval :      326.82   356.45   362.77   370.24   371.69   374.26
eigval :      375.75   399.70   410.71   426.45   451.26   461.36
eigval :      491.98   506.11   516.12   553.64   557.37   580.58
eigval :      583.02   586.29   589.71   591.51   601.84   607.76
eigval :      626.98   641.75   670.15   673.87   678.04   685.04
eigval :      693.82   700.93   749.83   759.21   762.06   805.66
eigval :      812.37   846.77   874.97   875.42   876.24   878.27
eigval :      882.15   886.11   896.72   901.19   902.97   903.72
eigval :      924.04   927.53   927.78   928.27   930.93   930.98
eigval :      932.70   932.96   939.64   946.59   950.03   964.32
eigval :      977.99   981.12   991.36   999.21  1003.78  1006.82
eigval :     1028.97  1082.46  1083.50  1084.17  1103.94  1104.71
eigval :     1119.87  1120.81  1122.24  1134.98  1153.40  1160.22
eigval :     1163.14  1180.70  1180.79  1181.06  1189.91  1196.34
eigval :     1196.99  1197.73  1202.89  1208.51  1223.83  1237.61
eigval :     1245.71  1271.01  1279.14  1281.11  1282.71  1286.06
eigval :     1298.08  1306.94  1310.44  1314.97  1316.03  1319.51
eigval :     1382.38  1388.50  1392.13  1396.40  1406.29  1427.73
eigval :     1428.69  1429.75  1456.91  1464.58  1468.17  1472.19
eigval :     1473.49  1474.33  1478.94  1480.61  1490.18  1497.04
eigval :     1503.09  1516.20  1547.93  1576.42  1576.78  1578.22
eigval :     1584.48  1591.20  1592.93  1597.79  1612.45  3026.56
eigval :     3027.93  3035.20  3036.89  3038.52  3039.89  3044.03
eigval :     3044.84  3052.62  3055.29  3060.84  3061.24  3064.30
eigval :     3064.74  3065.52  3065.95  3067.51  3068.26  3068.36
eigval :     3071.49  3074.18  3074.88  3075.08  3080.60  3080.94
eigval :     3081.92  3082.08  3084.51  3088.59  3088.84  3089.58

   temp. (K)  partition function   enthalpy   heat capacity  entropy
                                   cal/mol     cal/K/mol   cal/K/mol   J/K/mol
 298.15  VIB  0.204E+15            18420.418    114.245    115.323
         ROT  0.352E+08              888.752      2.981     37.514
         INT  0.718E+22            19309.171    117.226    152.837
         TR   0.950E+28             1481.254      4.968     44.236
         TOT                       20790.4245   122.1937   197.0731   824.5537

       T/K    H(0)-H(T)+PV         H(T)/Eh          T*S/Eh         G(T)/Eh
   ------------------------------------------------------------------------
    298.15    0.331317E-01    0.565402E+00    0.936358E-01    0.471766E+00
   ------------------------------------------------------------------------

         :::::::::::::::::::::::::::::::::::::::::::::::::::::
         ::                  THERMODYNAMIC                  ::
         :::::::::::::::::::::::::::::::::::::::::::::::::::::
         :: total free energy         -93.334489935657 Eh   ::
         ::.................................................::
         :: total energy              -93.806255728079 Eh   ::
         :: zero point energy           0.532269912195 Eh   ::
         :: G(RRHO) w/o ZPVE           -0.060504119772 Eh   ::
         :: G(RRHO) contrib.            0.471765792423 Eh   ::
         :::::::::::::::::::::::::::::::::::::::::::::::::::::

           -------------------------------------------------
          | TOTAL ENERGY              -93.806255728079 Eh   |
          | TOTAL ENTHALPY            -93.240854165557 Eh   |
          | TOTAL FREE ENERGY         -93.334489935657 Eh   |
          | GRADIENT NORM               0.000038853104 Eh/α |
          | HOMO-LUMO GAP               2.648186472037 eV   |
           -------------------------------------------------

 * finished run on 2025/07/16 at 15:47:00.441
