   * xtb version 6.7.1 (edcfbbe) compiled by 'albert@albert-system' on 2024-07-22

   ID    Z sym.   atoms
    1    6 C      1-3, 6-31, 33-35
    2    8 O      4, 32
    3    5 B      5
    4    1 H      36-66

          program call               : xtb data2507/toluene/PTZTPE-2/PTZTPE-2_toluene_S0_crest.xyz --gfn 2 --gbsa toluene --ohess vtight --parallel 40 --molden --ceasefiles --namespace data2507/toluene/PTZTPE-2/PTZTPE-2_toluene_S0_finalOpt
      * Solvation model:               GBSA
        Solvent                        toluene
        Solvent mass                       9.2140E+01 g/mol
          :  Hamiltonian                  GFN2-xTB          :
 * total energy  :   -93.8062213 Eh     change       -0.1285017E-08 Eh
 * total energy  :   -93.8062679 Eh     change       -0.4662406E-04 Eh
 * total energy  :   -93.8062903 Eh     change       -0.2241718E-04 Eh
 * total energy  :   -93.8062976 Eh     change       -0.7279170E-05 Eh
 * total energy  :   -93.8063053 Eh     change       -0.7650382E-05 Eh
 * total energy  :   -93.8063096 Eh     change       -0.4342979E-05 Eh
 * total energy  :   -93.8063124 Eh     change       -0.2785939E-05 Eh
 * total energy  :   -93.8063135 Eh     change       -0.1064100E-05 Eh
 * total energy  :   -93.8063139 Eh     change       -0.4403395E-06 Eh
 * total energy  :   -93.8063138 Eh     change        0.8782423E-07 Eh
 * total energy  :   -93.8063142 Eh     change       -0.3774368E-06 Eh
 * total energy  :   -93.8063141 Eh     change        0.8183682E-07 Eh
 * total energy  :   -93.8063144 Eh     change       -0.2701641E-06 Eh
 * total energy  :   -93.8063145 Eh     change       -0.1749755E-06 Eh
 * total energy  :   -93.8063148 Eh     change       -0.2169390E-06 Eh
 * total energy  :   -93.8063149 Eh     change       -0.1439620E-06 Eh
 * total energy  :   -93.8063150 Eh     change       -0.9385116E-07 Eh
   *** GEOMETRY OPTIMIZATION CONVERGED AFTER 17 ITERATIONS ***

 final structure:
================
66
 xtb: 6.7.1 (edcfbbe)
C            7.07275692465611       -1.74255359643301       -0.53412290519483
C            6.16370175581203       -0.51524510961660       -0.56776275875776
C            6.53676702510507        0.35023512864762       -1.77845340760118
O            4.80740611924679       -0.93539909658637       -0.75988059343022
B            3.99536026596800       -0.20126894693632        0.05806820726068
C            2.43349076009365       -0.27393841392910        0.02656075530819
C            1.65575245338310        0.49408846918362        0.89568277124633
C            0.27736751613414        0.43462441687000        0.86930977408615
C           -0.37897611274989       -0.40142162851058       -0.03356574421819
C           -1.84800049634673       -0.49850868552938       -0.05286736692653
C           -2.64948599053387        0.58988606642422       -0.02339380588328
C           -2.12845302639218        1.95953775295201       -0.17415890301235
C           -1.21324931477640        2.27302570338752       -1.17767518457746
C           -0.74841257041766        3.56623021175959       -1.32453707628685
C           -1.19037826914005        4.56786641588700       -0.47513414393482
C           -2.11051685649252        4.26988593103496        0.51671206967614
C           -2.58205129643426        2.97845552939290        0.66205848916034
C           -4.10810414545108        0.49164531626446        0.16144035830817
C           -4.96948881892108        1.24264314165689       -0.63666545644055
C           -6.33822560796478        1.17011862012326       -0.45593628866598
C           -6.86804030172782        0.35856378903992        0.53393934674398
C           -6.01939298375115       -0.37699939221161        1.34557597333911
C           -4.65102463119487       -0.31199720244961        1.16247855919640
C           -2.38238503123403       -1.87092125057687       -0.10697577913012
C           -1.84708995533070       -2.86421806828999        0.71143828354911
C           -2.33118646055277       -4.15798697842512        0.65534142657276
C           -3.34613258283985       -4.48428148546052       -0.22936785366617
C           -3.87137167470390       -3.50854615633104       -1.06123890160275
C           -3.39436300936991       -2.21265692155779       -1.00222276807529
C            0.38940181798352       -1.18765911419973       -0.89187164397146
C            1.76766262248751       -1.11651397669264       -0.86557407697314
O            4.70336573396084        0.59983843600816        0.90894660595673
C            6.09829988364218        0.30012019931383        0.77736655117415
C            6.89745822058420        1.60203827185736        0.78159016035293
C            6.49156018123677       -0.53205555547460        2.00494819599953
H            7.04709469359177       -2.22510347890018       -1.50830108486125
H            8.09398319381506       -1.44499288330101       -0.31502794552089
H            6.73633813928870       -2.46186748470976        0.20572291571683
H            6.40561472428454       -0.24345350801503       -2.68063954466600
H            7.56897278924568        0.68010301289750       -1.71829302385587
H            5.87705897682723        1.21207729534229       -1.84597299151159
H            2.15507123063617        1.14216622961203        1.60119734237023
H           -0.30273197609147        1.02942283273507        1.56004892004013
H           -0.87573482575010        1.49761975560094       -1.84981151594472
H           -0.04011291865118        3.79454233468239       -2.10815558060522
H           -0.82333154828338        5.57753670673153       -0.58931343871822
H           -2.46349996281704        5.04788362960795        1.17865573421571
H           -3.29839608875332        2.74770856027941        1.43831033846087
H           -4.55809704951786        1.87551829670985       -1.41074457603420
H           -6.99464134795914        1.75048777624583       -1.08866782674496
H           -7.93754415851050        0.30400751368741        0.67635790710724
H           -6.42609605735576       -1.00199401802776        2.12775922298906
H           -3.99174073249945       -0.87717412611795        1.80499531280312
H           -1.05465955100253       -2.61132087870418        1.40210886330125
H           -1.91332661846441       -4.91576040203339        1.30281449571480
H           -3.72245499319282       -5.49596248689479       -0.27449335464982
H           -4.65500419659421       -3.75956826246103       -1.76175175972127
H           -3.79799824147272       -1.45766893046162       -1.66092724732898
H           -0.10597985285276       -1.84652822877577       -1.59184639483380
H            2.35403109021248       -1.72171230291137       -1.54173314399081
H            7.94918259277158        1.39518629958547        0.60675859653708
H            6.53134622669301        2.29122831066574        0.02732830651149
H            6.78807221849755        2.07780831493650        1.75327928424496
H            6.26856750943863        0.04585843028548        2.89932562986440
H            5.90744221664499       -1.44845686654113        2.04443263287988
H            7.55032560875254       -0.77008046084204        1.99174221994805

          :  Hamiltonian                  GFN2-xTB          :
         :: gradient norm              0.000033357596 Eh/a0 ::
         :: HOMO-LUMO gap              2.655367914446 eV    ::
         :: SCC energy               -95.409484409462 Eh    ::
         :: -> dispersion             -0.081950966606 Eh    ::
         :: -> Gsolv                  -0.038267147562 Eh    ::
         :: repulsion energy           1.603169408290 Eh    ::

    * Orbital Energies and Occupations

         #    Occupation            Energy/Eh            Energy/eV
      -------------------------------------------------------------
         1        2.0000           -0.6961606             -18.9435
       ...           ...                  ...                  ...
        75        2.0000           -0.4192214             -11.4076
        76        2.0000           -0.4172931             -11.3551
        77        2.0000           -0.4123359             -11.2202
        78        2.0000           -0.4075342             -11.0896
        79        2.0000           -0.4052055             -11.0262
        80        2.0000           -0.4046853             -11.0120
        81        2.0000           -0.4042763             -11.0009
        82        2.0000           -0.4011401             -10.9156
        83        2.0000           -0.4001700             -10.8892
        84        2.0000           -0.3996388             -10.8747
        85        2.0000           -0.3966858             -10.7944
        86        2.0000           -0.3950447             -10.7497
        87        2.0000           -0.3624338              -9.8623 (HOMO)
        88                         -0.2648508              -7.2070 (LUMO)
        89                         -0.2351685              -6.3993
        90                         -0.2246171              -6.1121
        91                         -0.2234646              -6.0808
        92                         -0.2206721              -6.0048
        93                         -0.2185992              -5.9484
        94                         -0.2157145              -5.8699
        95                         -0.2105261              -5.7287
        96                         -0.1700726              -4.6279
        97                         -0.1316298              -3.5818
        98                         -0.0933723              -2.5408
       ...                                ...                  ...
       171                          0.6923389              18.8395
      -------------------------------------------------------------
                  HL-Gap            0.0975830 Eh            2.6554 eV

     #   Z          covCN         q      C6AA      α(0)
     1   6 C        3.755    -0.119    22.840     6.814
     2   6 C        3.853     0.128    18.474     6.113
     3   6 C        3.755    -0.117    22.791     6.807
     4   8 O        1.637    -0.385    20.563     6.121
     5   5 B        2.649     0.434    15.578     6.652
     6   6 C        2.886    -0.083    30.079     8.992
     7   6 C        2.922    -0.030    28.741     8.792
     8   6 C        2.920    -0.034    28.836     8.806
     9   6 C        2.978     0.018    27.601     8.618
    10   6 C        2.966    -0.006    28.158     8.704
    11   6 C        2.967    -0.005    28.151     8.703
    12   6 C        2.978     0.015    27.671     8.629
    13   6 C        2.924    -0.033    28.815     8.803
    14   6 C        2.918    -0.031    28.764     8.795
    15   6 C        2.920    -0.032    28.803     8.801
    16   6 C        2.918    -0.031    28.771     8.796
    17   6 C        2.925    -0.033    28.819     8.804
    18   6 C        2.978     0.015    27.663     8.627
    19   6 C        2.925    -0.033    28.815     8.803
    20   6 C        2.918    -0.031    28.767     8.795
    21   6 C        2.920    -0.032    28.801     8.801
    22   6 C        2.918    -0.030    28.758     8.794
    23   6 C        2.924    -0.032    28.809     8.802
    24   6 C        2.978     0.015    27.665     8.628
    25   6 C        2.925    -0.033    28.820     8.804
    26   6 C        2.918    -0.031    28.767     8.795
    27   6 C        2.920    -0.032    28.803     8.801
    28   6 C        2.918    -0.030    28.761     8.794
    29   6 C        2.924    -0.032    28.809     8.802
    30   6 C        2.921    -0.034    28.845     8.807
    31   6 C        2.921    -0.030    28.749     8.793
    32   8 O        1.637    -0.385    20.567     6.122
    33   6 C        3.853     0.128    18.474     6.113
    34   6 C        3.755    -0.119    22.839     6.814
    35   6 C        3.755    -0.117    22.792     6.807
    36   1 H        0.925     0.056     2.251     2.346
    37   1 H        0.925     0.051     2.304     2.374
    38   1 H        0.925     0.051     2.302     2.373
    39   1 H        0.925     0.052     2.290     2.366
    40   1 H        0.925     0.054     2.274     2.358
    41   1 H        0.925     0.040     2.450     2.448
    42   1 H        0.926     0.033     2.541     2.493
    43   1 H        0.926     0.032     2.565     2.504
    44   1 H        0.926     0.028     2.613     2.528
    45   1 H        0.926     0.030     2.591     2.517
    46   1 H        0.926     0.031     2.571     2.507
    47   1 H        0.926     0.031     2.568     2.506
    48   1 H        0.926     0.029     2.604     2.524
    49   1 H        0.926     0.028     2.614     2.528
    50   1 H        0.926     0.031     2.574     2.509
    51   1 H        0.926     0.031     2.570     2.507
    52   1 H        0.926     0.031     2.577     2.510
    53   1 H        0.926     0.029     2.607     2.525
    54   1 H        0.926     0.027     2.623     2.533
    55   1 H        0.926     0.031     2.576     2.510
    56   1 H        0.926     0.031     2.567     2.506
    57   1 H        0.926     0.031     2.572     2.508
    58   1 H        0.926     0.029     2.600     2.522
    59   1 H        0.925     0.031     2.571     2.507
    60   1 H        0.926     0.033     2.538     2.491
    61   1 H        0.925     0.051     2.303     2.373
    62   1 H        0.925     0.051     2.302     2.373
    63   1 H        0.925     0.056     2.252     2.347
    64   1 H        0.925     0.052     2.291     2.367
    65   1 H        0.925     0.040     2.451     2.448
    66   1 H        0.925     0.054     2.273     2.358

molecular dipole:
                 x           y           z       tot (Debye)
 q only:        0.793       0.041       0.022
   full:        0.904       0.044       0.024       2.301

 projected vibrational frequencies (cm⁻¹)
eigval :       -0.00    -0.00    -0.00     0.00     0.00     0.00
eigval :       15.20    16.49    21.20    37.33    41.43    47.71
eigval :       54.80    59.40    62.58    65.38    70.74    71.75
eigval :       80.59   115.74   137.21   164.94   174.05   198.15
eigval :      209.68   223.70   236.06   244.24   255.98   267.33
eigval :      270.04   274.02   280.74   285.69   303.36   316.65
eigval :      327.11   357.07   366.65   370.81   371.98   373.95
eigval :      376.38   399.58   410.16   425.59   452.29   461.08
eigval :      492.91   506.22   515.52   554.06   556.82   580.98
eigval :      583.13   586.37   589.59   591.59   601.79   608.03
eigval :      627.44   642.23   669.50   673.56   677.57   685.33
eigval :      694.19   701.81   748.82   756.85   761.67   806.10
eigval :      813.46   846.79   873.42   874.57   876.64   879.86
eigval :      882.25   886.58   896.85   898.96   900.86   902.67
eigval :      925.27   926.87   927.57   929.06   929.42   930.68
eigval :      931.14   934.56   939.86   945.91   949.75   963.23
eigval :      977.93   981.10   991.66   999.51  1004.10  1007.08
eigval :     1029.36  1082.31  1083.89  1084.10  1103.98  1105.40
eigval :     1120.35  1120.84  1122.85  1134.73  1153.26  1160.06
eigval :     1163.08  1179.33  1180.89  1181.11  1190.47  1196.04
eigval :     1197.63  1198.16  1203.16  1208.18  1223.73  1237.69
eigval :     1245.53  1270.71  1278.52  1281.65  1282.37  1286.04
eigval :     1298.01  1306.72  1310.97  1315.18  1315.97  1319.51
eigval :     1382.35  1388.48  1392.19  1396.90  1406.77  1427.53
eigval :     1428.88  1429.57  1456.76  1464.65  1468.01  1472.41
eigval :     1473.55  1474.26  1479.20  1480.90  1489.98  1497.66
eigval :     1503.28  1516.98  1548.12  1576.39  1577.07  1578.33
eigval :     1585.02  1591.40  1593.23  1597.92  1613.23  3026.39
eigval :     3027.79  3035.74  3037.44  3038.55  3039.76  3044.18
eigval :     3044.95  3052.78  3055.40  3060.05  3061.62  3064.57
eigval :     3064.93  3065.56  3065.62  3067.54  3068.12  3068.87
eigval :     3072.90  3074.35  3074.83  3075.18  3080.46  3081.37
eigval :     3081.71  3082.61  3085.31  3088.68  3089.33  3089.79

   temp. (K)  partition function   enthalpy   heat capacity  entropy
                                   cal/mol     cal/K/mol   cal/K/mol   J/K/mol
 298.15  VIB  0.166E+15            18400.607    114.357    115.155
         ROT  0.352E+08              888.752      2.981     37.512
         INT  0.586E+22            19289.360    117.338    152.667
         TR   0.950E+28             1481.254      4.968     44.236
         TOT                       20770.6135   122.3062   196.9034   823.8438

       T/K    H(0)-H(T)+PV         H(T)/Eh          T*S/Eh         G(T)/Eh
   ------------------------------------------------------------------------
    298.15    0.331001E-01    0.565425E+00    0.935552E-01    0.471870E+00
   ------------------------------------------------------------------------

         :::::::::::::::::::::::::::::::::::::::::::::::::::::
         ::                  THERMODYNAMIC                  ::
         :::::::::::::::::::::::::::::::::::::::::::::::::::::
         :: total free energy         -93.334445169199 Eh   ::
         ::.................................................::
         :: total energy              -93.806315001260 Eh   ::
         :: zero point energy           0.532324906956 Eh   ::
         :: G(RRHO) w/o ZPVE           -0.060455074895 Eh   ::
         :: G(RRHO) contrib.            0.471869832060 Eh   ::
         :::::::::::::::::::::::::::::::::::::::::::::::::::::

           -------------------------------------------------
          | TOTAL ENERGY              -93.806315001260 Eh   |
          | TOTAL ENTHALPY            -93.240890014770 Eh   |
          | TOTAL FREE ENERGY         -93.334445169199 Eh   |
          | GRADIENT NORM               0.000033337452 Eh/α |
          | HOMO-LUMO GAP               2.655367918757 eV   |
           -------------------------------------------------

 * finished run on 2025/07/16 at 15:49:04.400
