   * xtb version 6.7.1 (edcfbbe) compiled by 'albert@albert-system' on 2024-07-22

   ID    Z sym.   atoms
    1    7 N      1, 7, 13, 34, 50
    2    6 C      2-6, 8-12, 14-19, 21-33, 35-40, 42-49, 51, 52
    3    8 O      20, 41
    4    1 H      53-79

          program call               : xtb data2507/toluene/CN-QP/CN-QP_toluene_T1_crest.xyz --gfn 2 --uhf 2 --gbsa toluene --ohess vtight --parallel 40 --molden --ceasefiles --namespace data2507/toluene/CN-QP/CN-QP_toluene_T1_finalOpt
      * Solvation model:               GBSA
        Solvent                        toluene
        Solvent mass                       9.2140E+01 g/mol
          :  Hamiltonian                  GFN2-xTB          :
 * total energy  :  -132.9050649 Eh     change       -0.4037304E-09 Eh
 * total energy  :  -132.9051984 Eh     change       -0.1334892E-03 Eh
 * total energy  :  -132.9052082 Eh     change       -0.9845653E-05 Eh
 * total energy  :  -132.9052675 Eh     change       -0.5928131E-04 Eh
 * total energy  :  -132.9053104 Eh     change       -0.4291591E-04 Eh
 * total energy  :  -132.9053362 Eh     change       -0.2570701E-04 Eh
 * total energy  :  -132.9053869 Eh     change       -0.5076335E-04 Eh
 * total energy  :  -132.9054441 Eh     change       -0.5722390E-04 Eh
 * total energy  :  -132.9054923 Eh     change       -0.4815057E-04 Eh
 * total energy  :  -132.9055392 Eh     change       -0.4694465E-04 Eh
 * total energy  :  -132.9063051 Eh     change       -0.7929248E-06 Eh
 * total energy  :  -132.9063059 Eh     change       -0.7924591E-06 Eh
 * total energy  :  -132.9063067 Eh     change       -0.8026163E-06 Eh
 * total energy  :  -132.9063075 Eh     change       -0.8023644E-06 Eh
 * total energy  :  -132.9063084 Eh     change       -0.8147277E-06 Eh
 * total energy  :  -132.9063092 Eh     change       -0.8142322E-06 Eh
 * total energy  :  -132.9063100 Eh     change       -0.8161971E-06 Eh
 * total energy  :  -132.9063108 Eh     change       -0.8132445E-06 Eh
 * total energy  :  -132.9063108 Eh     change       -0.7922807E-08 Eh
   *** GEOMETRY OPTIMIZATION CONVERGED AFTER 185 ITERATIONS ***

 final structure:
================
79
 xtb: 6.7.1 (edcfbbe)
N           10.29517275993151       -0.05282033460208       -0.44099267750546
C            9.20918700555578        0.29816971025540       -0.27860149143774
C            7.89147664640426        0.73108787456479       -0.08139126703393
C            7.64297711168563        2.04862778940568        0.32485844127316
C            6.35472607836961        2.49138822463651        0.50742124821664
C            5.26064824954116        1.63614291990525        0.28684419558682
N            4.00990630348676        2.06619030827506        0.39394775973313
C            2.97898213818191        1.23640679438307        0.17742940338771
C            1.63743676525396        1.80377065641747        0.18801529350332
C            0.66108461385605        1.38775000524617       -0.72418122826189
C           -0.60981338846599        1.91751288989194       -0.68276407642615
C           -0.93452638223627        2.88391956592110        0.26640342872320
N           -2.25384770439348        3.40003351067467        0.32610120607681
C           -3.30547426327665        2.58306807662260        0.72587998305428
C           -3.11242218205298        1.26082542642051        1.11791383388775
C           -4.18385301582705        0.47783678266729        1.51144328175269
C           -5.46588703421336        0.99867721625328        1.52630991327018
C           -5.67501804721601        2.31841580311492        1.15939520219928
C           -4.60756868017958        3.10904969479885        0.76831486931236
O           -4.87981099702920        4.41096789075051        0.44070357314489
C           -3.83264939999527        5.20223966219632        0.04782827509732
C           -4.12307984254397        6.51197548115264       -0.29414048010407
C           -3.11361710732998        7.35965271952831       -0.72145099624025
C           -1.81594443478475        6.88750223901635       -0.81647283586976
C           -1.51773927835108        5.57949046961115       -0.47573982887369
C           -2.51511226465048        4.71961244017764       -0.02351024682372
C            0.04056883073175        3.33932963090902        1.14926800462610
C            1.31336677853454        2.80996724158809        1.10322977169775
C            3.23108109109788       -0.13012588854650       -0.06757073012990
C            2.14710237162731       -1.11628461940895       -0.10864736570114
C            2.12717856472225       -2.09742182452827       -1.09892462937982
C            1.08487707005026       -3.00061153994806       -1.17217802477044
C            0.05293974355329       -2.94595347072773       -0.24094482117186
N           -1.04600749427064       -3.83563089371456       -0.33398348003682
C           -2.31186344906760       -3.34592041861929       -0.64078800114588
C           -2.54383595649953       -1.99952999978194       -0.90972420090984
C           -3.81654430688614       -1.55019996700584       -1.21721232943310
C           -4.87976006970254       -2.43423374314737       -1.26746273575479
C           -4.66460818718988       -3.78103913559472       -1.02274192249401
C           -3.39356755211554       -4.23858893372733       -0.71841984683974
O           -3.24609317088452       -5.58479386403967       -0.51157041495234
C           -1.99244527645558       -6.05116033083632       -0.21378962935304
C           -1.85902552773423       -7.41189366761200        0.00339739356067
C           -0.62326658691658       -7.94640949804685        0.33131592465235
C            0.47419663082519       -7.11209618787271        0.45330368914160
C            0.34847577672183       -5.75052329184596        0.23714728305737
C           -0.88026468670427       -5.19887733010772       -0.11457048889458
C            0.09421107134595       -2.00443887245438        0.78430721946741
C            1.13221635314762       -1.09990982872914        0.85020879106304
N            4.47023889103555       -0.57104336183724       -0.22540278964812
C            5.51593500222094        0.26968750541829       -0.09675727869522
C            6.82103839765460       -0.15623794703303       -0.28628789696839
H            8.47707117336276        2.71606074360059        0.48880949994425
H            6.15284209773031        3.50836247359476        0.80677689942256
H            0.91171063226055        0.66036145476945       -1.48107730297706
H           -1.35765809521224        1.59555711875499       -1.39209172632313
H           -2.11604206097505        0.84985322916538        1.11471508993700
H           -4.01219927433937       -0.54537284711271        1.80554357379281
H           -6.30125956775699        0.38731321072475        1.82787428723494
H           -6.65908840626098        2.75930993156899        1.17343794261828
H           -5.14627844706850        6.84494242716032       -0.22180382072258
H           -3.34637022261319        8.37927775371091       -0.98426756696924
H           -1.02531078558221        7.53583497072623       -1.16085055444868
H           -0.50601562152771        5.21694098921327       -0.56386408603267
H           -0.20773765783148        4.10112671312394        1.87353652084759
H            2.07330627493531        3.15401874291723        1.78788852271858
H            2.92774756482199       -2.12739106663821       -1.82220169555778
H            1.06136138821745       -3.74256899277143       -1.95645958244810
H           -1.72055003712527       -1.30439294131703       -0.87850668768832
H           -3.97420610428648       -0.50206588485649       -1.41554740130617
H           -5.87200919054067       -2.08377038502274       -1.50223414256386
H           -5.46857744101978       -4.49837597578396       -1.06764233101135
H           -2.73628223424857       -8.03279313315614       -0.08585537908661
H           -0.52587418980500       -9.00740095532840        0.49747590196404
H            1.43768239788775       -7.51659062387862        0.72191508203837
H            1.20659969744864       -5.10679012051787        0.34712161072401
H           -0.68942763443483       -1.99107422012816        1.52678601265660
H            1.16748606595565       -0.37964125116250        1.65352810128144
H            7.00670491121016       -1.17796080050412       -0.58151494487634

          :  Hamiltonian                  GFN2-xTB          :
         :: gradient norm              0.000076888192 Eh/a0 ::
         :: HOMO-LUMO gap              0.706484405581 eV    ::
         :: SCC energy              -135.248860714807 Eh    ::
         :: -> dispersion             -0.118120706854 Eh    ::
         :: -> Gsolv                  -0.062601097713 Eh    ::
         :: repulsion energy           2.342549907919 Eh    ::

    * Orbital Energies and Occupations

         #    Occupation            Energy/Eh            Energy/eV
      -------------------------------------------------------------
         1        2.0000           -0.7461272             -20.3032
       ...           ...                  ...                  ...
       111        2.0000           -0.4250249             -11.5655
       112        2.0000           -0.4212309             -11.4623
       113        2.0000           -0.4197827             -11.4229
       114        2.0000           -0.4171512             -11.3513
       115        2.0000           -0.4135339             -11.2528
       116        2.0000           -0.4037014             -10.9853
       117        2.0000           -0.4036845             -10.9848
       118        2.0000           -0.3969688             -10.8021
       119        2.0000           -0.3916225             -10.6566
       120        1.9002           -0.3568836              -9.7113
       121        1.6742           -0.3554851              -9.6732
       122        1.4257           -0.3545097              -9.6467
       123        1.0000           -0.2982829              -8.1167 (HOMO)
       124        0.0000           -0.2723200              -7.4102 (LUMO)
       125                         -0.2529426              -6.8829
       126                         -0.2516845              -6.8487
       127                         -0.2463916              -6.7047
       128                         -0.2455630              -6.6821
       129                         -0.2417939              -6.5795
       130                         -0.2412959              -6.5660
       131                         -0.2397535              -6.5240
       132                         -0.2363914              -6.4325
       133                         -0.2272501              -6.1838
       134                         -0.2254443              -6.1347
       ...                                ...                  ...
       235                          1.1655393              31.7159
      -------------------------------------------------------------
                  HL-Gap            0.0259629 Eh            0.7065 eV

     #   Z          covCN         q      C6AA      α(0)
     1   7 N        0.911    -0.314    28.081     7.664
     2   6 C        1.913     0.111    28.359     8.600
     3   6 C        2.968    -0.008    28.210     8.712
     4   6 C        2.922    -0.028    28.701     8.785
     5   6 C        2.917    -0.065    29.608     8.923
     6   6 C        2.942     0.092    25.959     8.356
     7   7 N        1.850    -0.260    27.601     7.786
     8   6 C        2.936     0.064    26.568     8.453
     9   6 C        2.976     0.005    27.895     8.664
    10   6 C        2.922    -0.035    28.879     8.813
    11   6 C        2.919    -0.040    28.982     8.828
    12   6 C        2.922     0.054    26.787     8.487
    13   7 N        2.752    -0.042    22.054     6.975
    14   6 C        2.924     0.044    27.019     8.524
    15   6 C        2.922    -0.055    29.362     8.886
    16   6 C        2.918    -0.032    28.799     8.800
    17   6 C        2.919    -0.034    28.839     8.806
    18   6 C        2.918    -0.053    29.328     8.881
    19   6 C        2.884     0.128    25.203     8.230
    20   8 O        1.709    -0.245    18.065     5.739
    21   6 C        2.884     0.127    25.210     8.232
    22   6 C        2.918    -0.054    29.338     8.882
    23   6 C        2.919    -0.034    28.844     8.807
    24   6 C        2.918    -0.033    28.821     8.804
    25   6 C        2.922    -0.054    29.353     8.885
    26   6 C        2.923     0.044    27.007     8.522
    27   6 C        2.918    -0.038    28.947     8.823
    28   6 C        2.924    -0.029    28.721     8.789
    29   6 C        2.935     0.080    26.217     8.397
    30   6 C        2.979     0.008    27.828     8.653
    31   6 C        2.924    -0.026    28.657     8.779
    32   6 C        2.919    -0.037    28.925     8.819
    33   6 C        2.923     0.059    26.685     8.471
    34   7 N        2.752    -0.043    22.079     6.979
    35   6 C        2.924     0.043    27.029     8.526
    36   6 C        2.922    -0.055    29.375     8.888
    37   6 C        2.918    -0.032    28.806     8.801
    38   6 C        2.919    -0.034    28.844     8.807
    39   6 C        2.918    -0.053    29.327     8.881
    40   6 C        2.883     0.128    25.201     8.230
    41   8 O        1.709    -0.246    18.077     5.740
    42   6 C        2.883     0.127    25.212     8.232
    43   6 C        2.918    -0.054    29.337     8.882
    44   6 C        2.919    -0.034    28.847     8.808
    45   6 C        2.918    -0.033    28.824     8.804
    46   6 C        2.922    -0.055    29.360     8.886
    47   6 C        2.922     0.044    27.018     8.524
    48   6 C        2.920    -0.038    28.954     8.824
    49   6 C        2.923    -0.031    28.771     8.796
    50   7 N        1.850    -0.266    27.769     7.810
    51   6 C        2.941     0.082    26.163     8.389
    52   6 C        2.924    -0.061    29.511     8.909
    53   1 H        0.926     0.031     2.570     2.507
    54   1 H        0.926     0.041     2.433     2.439
    55   1 H        0.926     0.036     2.502     2.474
    56   1 H        0.926     0.048     2.340     2.392
    57   1 H        0.926     0.049     2.336     2.390
    58   1 H        0.926     0.049     2.331     2.388
    59   1 H        0.926     0.053     2.283     2.363
    60   1 H        0.926     0.058     2.219     2.329
    61   1 H        0.926     0.058     2.222     2.331
    62   1 H        0.926     0.052     2.299     2.371
    63   1 H        0.926     0.050     2.322     2.383
    64   1 H        0.926     0.049     2.338     2.391
    65   1 H        0.926     0.049     2.334     2.389
    66   1 H        0.926     0.049     2.337     2.391
    67   1 H        0.926     0.049     2.329     2.386
    68   1 H        0.926     0.052     2.292     2.367
    69   1 H        0.926     0.048     2.342     2.393
    70   1 H        0.926     0.048     2.343     2.394
    71   1 H        0.926     0.053     2.285     2.364
    72   1 H        0.926     0.058     2.219     2.329
    73   1 H        0.926     0.058     2.222     2.331
    74   1 H        0.926     0.052     2.301     2.372
    75   1 H        0.926     0.050     2.324     2.384
    76   1 H        0.926     0.048     2.346     2.395
    77   1 H        0.926     0.052     2.290     2.367
    78   1 H        0.926     0.040     2.446     2.446
    79   1 H        0.926     0.032     2.557     2.501

molecular dipole:
                 x           y           z       tot (Debye)
 q only:       -7.298      -0.381       0.191
   full:       -7.406      -0.208       0.242      18.841

 projected vibrational frequencies (cm⁻¹)
eigval :       -0.00    -0.00    -0.00     0.00     0.00     0.00
eigval :        6.81    11.03    15.07    25.07    25.69    30.73
eigval :       40.02    44.54    47.68    55.15    66.22    66.80
eigval :       68.94    81.06    98.55   111.72   116.03   119.07
eigval :      122.07   140.67   152.50   164.51   197.77   199.81
eigval :      206.95   228.06   245.13   246.76   252.90   255.55
eigval :      267.82   273.63   296.21   300.66   325.64   344.65
eigval :      357.20   360.69   375.09   380.34   383.82   391.20
eigval :      397.33   401.10   413.18   423.81   430.51   431.91
eigval :      432.78   447.60   448.25   453.83   456.69   464.61
eigval :      491.98   503.80   504.24   507.06   518.22   525.26
eigval :      526.62   536.47   547.25   555.75   564.72   574.58
eigval :      576.44   586.79   590.63   600.48   604.89   614.08
eigval :      616.03   643.49   649.76   664.77   665.53   668.37
eigval :      668.47   669.52   685.23   690.30   697.05   699.69
eigval :      724.64   729.08   775.06   776.28   777.85   780.88
eigval :      796.69   798.56   798.94   811.61   813.98   816.05
eigval :      830.88   854.23   854.66   863.38   864.56   866.73
eigval :      867.78   869.48   870.04   887.36   898.05   899.68
eigval :      900.50   901.55   903.30   911.86   913.23   914.93
eigval :      915.20   915.66   917.34   918.78   919.27   922.40
eigval :      925.56   926.85   956.94   961.72  1008.00  1023.89
eigval :     1085.48  1085.55  1086.63  1089.60  1101.63  1109.83
eigval :     1110.21  1117.26  1118.74  1126.95  1129.87  1134.28
eigval :     1165.45  1166.60  1168.35  1172.16  1173.36  1177.95
eigval :     1179.82  1184.41  1190.44  1202.82  1203.09  1211.92
eigval :     1218.65  1223.90  1237.06  1237.29  1238.68  1254.28
eigval :     1255.46  1256.67  1260.48  1266.00  1277.76  1297.93
eigval :     1305.64  1307.61  1308.59  1309.27  1312.68  1312.87
eigval :     1320.03  1322.84  1324.04  1339.01  1343.96  1348.28
eigval :     1392.61  1400.15  1402.49  1405.46  1418.69  1419.35
eigval :     1439.73  1440.00  1451.69  1453.70  1463.05  1469.32
eigval :     1474.62  1476.12  1487.19  1500.16  1527.93  1537.88
eigval :     1549.23  1558.86  1560.10  1566.94  1567.56  1572.55
eigval :     1575.70  1577.57  1579.68  1587.26  1590.12  2314.21
eigval :     3075.14  3084.00  3084.92  3085.54  3086.37  3087.53
eigval :     3091.91  3093.34  3093.83  3095.69  3096.72  3097.17
eigval :     3097.87  3100.27  3100.77  3101.04  3101.57  3103.43
eigval :     3104.17  3109.01  3109.14  3111.19  3111.75  3113.04
eigval :     3113.46  3115.37  3117.03

   temp. (K)  partition function   enthalpy   heat capacity  entropy
                                   cal/mol     cal/K/mol   cal/K/mol   J/K/mol
 298.15  VIB  0.594E+19            23785.911    150.422    148.053
         ROT  0.116E+09              888.752      2.981     39.878
         INT  0.687E+27            24674.663    153.403    187.930
         TR   0.168E+29             1481.254      4.968     45.366
         TOT                       26155.9173   158.3714   233.2963   976.1116

       T/K    H(0)-H(T)+PV         H(T)/Eh          T*S/Eh         G(T)/Eh
   ------------------------------------------------------------------------
    298.15    0.416821E-01    0.622717E+00    0.110847E+00    0.511870E+00
   ------------------------------------------------------------------------

         :::::::::::::::::::::::::::::::::::::::::::::::::::::
         ::                  THERMODYNAMIC                  ::
         :::::::::::::::::::::::::::::::::::::::::::::::::::::
         :: total free energy        -132.394440450959 Eh   ::
         ::.................................................::
         :: total energy             -132.906310805482 Eh   ::
         :: zero point energy           0.581034837907 Eh   ::
         :: G(RRHO) w/o ZPVE           -0.069164483384 Eh   ::
         :: G(RRHO) contrib.            0.511870354522 Eh   ::
         :::::::::::::::::::::::::::::::::::::::::::::::::::::

           -------------------------------------------------
          | TOTAL ENERGY             -132.906310805482 Eh   |
          | TOTAL ENTHALPY           -132.283593860154 Eh   |
          | TOTAL FREE ENERGY        -132.394440450959 Eh   |
          | GRADIENT NORM               0.000075653599 Eh/α |
          | HOMO-LUMO GAP               0.706486454124 eV   |
           -------------------------------------------------

 * finished run on 2025/07/16 at 18:34:55.823
