   * xtb version 6.7.1 (edcfbbe) compiled by 'albert@albert-system' on 2024-07-22

   ID    Z sym.   atoms
    1    7 N      1, 7, 13, 34, 50
    2    6 C      2-6, 8-12, 14-19, 21-33, 35-40, 42-49, 51, 52
    3    8 O      20, 41
    4    1 H      53-79

          program call               : xtb data2507/toluene/CN-QP/CN-QP_toluene_S0_finalOpt.xtbopt.xyz --gfn 2 --uhf 2 --gbsa toluene --ohess vtight --parallel 40 --molden --ceasefiles --namespace data2507/toluene/CN-QP/CN-QP_toluene_T1_preOpt
      * Solvation model:               GBSA
        Solvent                        toluene
        Solvent mass                       9.2140E+01 g/mol
          :  Hamiltonian                  GFN2-xTB          :
 * total energy  :  -132.8963215 Eh     change       -0.7078100E-07 Eh
 * total energy  :  -132.8996062 Eh     change       -0.3284631E-02 Eh
 * total energy  :  -132.9004819 Eh     change       -0.8756909E-03 Eh
 * total energy  :  -132.9001184 Eh     change        0.3634207E-03 Eh
 * total energy  :  -132.9006240 Eh     change       -0.5055975E-03 Eh
 * total energy  :  -132.9006414 Eh     change       -0.1735996E-04 Eh
 * total energy  :  -132.9006543 Eh     change       -0.1291318E-04 Eh
 * total energy  :  -132.9006628 Eh     change       -0.8485198E-05 Eh
 * total energy  :  -132.9006838 Eh     change       -0.2104477E-04 Eh
 * total energy  :  -132.9006919 Eh     change       -0.8097007E-05 Eh
 * total energy  :  -132.9007708 Eh     change       -0.9532020E-06 Eh
 * total energy  :  -132.9007718 Eh     change       -0.1037874E-05 Eh
 * total energy  :  -132.9007730 Eh     change       -0.1160333E-05 Eh
 * total energy  :  -132.9007743 Eh     change       -0.1340294E-05 Eh
 * total energy  :  -132.9007758 Eh     change       -0.1461238E-05 Eh
 * total energy  :  -132.9007776 Eh     change       -0.1790574E-05 Eh
 * total energy  :  -132.9007797 Eh     change       -0.2124970E-05 Eh
 * total energy  :  -132.9007821 Eh     change       -0.2353900E-05 Eh
 * total energy  :  -132.9007821 Eh     change       -0.4568250E-08 Eh
   *** GEOMETRY OPTIMIZATION CONVERGED AFTER 44 ITERATIONS ***

 final structure:
================
79
 xtb: 6.7.1 (edcfbbe)
N           10.62513167812944       -1.16125324819732       -0.62913091049032
C            9.59002745492428       -0.71679532927872       -0.38361702449681
C            8.33578446889482       -0.17083586324547       -0.08209975342195
C            8.25056478878614        1.04324325351178        0.60920322179181
C            7.02515518421268        1.59339592700000        0.90410086968825
C            5.83424978933321        0.95479306677595        0.51784295170734
N            4.64620667143568        1.50174168539784        0.75730755124012
C            3.53220171135198        0.86845387694150        0.38082812012294
C            2.20197429768654        1.47041742613751        0.53931305744344
C            1.44099900593307        1.70934073183423       -0.60652017914927
C            0.11847385439829        2.08212176655104       -0.50939236403260
C           -0.47899161737752        2.19427402530056        0.74246502240430
N           -1.87827671764017        2.40471896423365        0.82760902251366
C           -2.70766372676798        1.36314323468746        1.23588752787449
C           -2.20653203085880        0.15608757142691        1.71307494208171
C           -3.06093607885080       -0.86000138248310        2.10543249999883
C           -4.43189316014419       -0.69388046375583        2.02686794934199
C           -4.94896680482277        0.49502569037615        1.53975726979081
C           -4.10035324047207        1.51360245147641        1.14099169381962
O           -4.68080514319791        2.64859143465613        0.64459068375465
C           -3.85240982561138        3.65313907333736        0.21791718723882
C           -4.44940524834754        4.79021660405042       -0.29929875337391
C           -3.66917384304180        5.85223253891634       -0.72833023362416
C           -2.29093356756781        5.77638157110763       -0.62634999995397
C           -1.68713368319720        4.64117932240308       -0.11313818213979
C           -2.45436534241115        3.55591176024800        0.30094838738083
C            0.29523430278336        2.04840486544141        1.88975901486654
C            1.63026209471270        1.70359056443564        1.78740624031181
C            3.60970870845080       -0.40211844919026       -0.21812987162670
C            2.34023574855985       -1.11857773999549       -0.43798154450453
C            1.81859672400899       -1.35283233341548       -1.70561426072990
C            0.52698044128577       -1.82670357473060       -1.85086553454008
C           -0.25033801076122       -2.09329988335718       -0.72819230003098
N           -1.61625537435638       -2.44824608277991       -0.85293398516152
C           -2.54460819473041       -1.49667673060335       -1.27001466203543
C           -2.16653870445234       -0.24139917427946       -1.73520719170626
C           -3.11659891845733        0.68263112426879       -2.13536294923428
C           -4.46347936553477        0.37395023876440       -2.07668713308345
C           -4.85972614111622       -0.86531532872891       -1.60205214892829
C           -3.91499613860773       -1.79225371790426       -1.19572643173788
O           -4.38136808211297       -2.98426760480158       -0.71263858854120
C           -3.45827005292969       -3.90646363222645       -0.29435999376569
C           -3.94043121257847       -5.10959116721410        0.19237707495872
C           -3.05975007600610       -6.09455360483253        0.61037040939467
C           -1.69570990054193       -5.87604361605716        0.52592047390993
C           -1.20676712839318       -4.67404503919608        0.04326581998135
C           -2.07720014371172       -3.66406372895128       -0.35677610556299
C            0.30722161941009       -1.96538088670323        0.54035509972785
C            1.58538966290359       -1.46952006666122        0.68073534088755
N            4.77869618972869       -0.95649288165161       -0.49404559785007
C            5.91897906677857       -0.30899987623390       -0.17444374395985
C            7.16292064194990       -0.84384370242892       -0.46931069325669
H            9.15949269229051        1.54652202644623        0.90682233147973
H            6.94905145432271        2.53312446911375        1.42903525692549
H            1.89345217850537        1.58315289161741       -1.57873706118700
H           -0.46594122527631        2.26255091242280       -1.39842535562287
H           -1.13945711678220        0.01539389314711        1.76610311515139
H           -2.65006968559420       -1.78690443200067        2.47631764083692
H           -5.09844345613750       -1.48432197066842        2.33324301380481
H           -6.01187055815680        0.65342895137114        1.45301401576047
H           -5.52591099218530        4.82378566355037       -0.35291276517724
H           -4.14056084968955        6.73451969823705       -1.13122112357554
H           -1.67564352396833        6.60397734382026       -0.94322174422302
H           -0.61314520060294        4.59286760367841       -0.02677533322326
H           -0.15825677472255        2.18436131731797        2.86030028674124
H            2.22733004313369        1.57348603167345        2.67748181674149
H            2.41620003488896       -1.13077558995588       -2.57704904500734
H            0.11009012760186       -1.97385066210484       -2.83602295651897
H           -1.11952959990824        0.01001706487545       -1.77236580705525
H           -2.79932033692647        1.64946653545464       -2.49623271072056
H           -5.20515234489016        1.09171134704770       -2.38914744947506
H           -5.90138101074996       -1.13399355245683       -1.53082265918906
H           -5.00828980134738       -5.25465473038474        0.23158245576444
H           -3.44233948267488       -7.02850054608264        0.99007661032374
H           -1.00206184376475       -6.64342957412524        0.83252595519319
H           -0.14249600495678       -4.51495137459768       -0.03063624308186
H           -0.27529709673111       -2.22887355685964        1.40966603000627
H            2.00267182087850       -1.33060570506911        1.66698580118456
H            7.22158366784105       -1.78681582407767       -0.99148680092723

          :  Hamiltonian                  GFN2-xTB          :
         :: gradient norm              0.000141011463 Eh/a0 ::
         :: HOMO-LUMO gap              0.868699799376 eV    ::
         :: SCC energy              -135.245225257323 Eh    ::
         :: -> dispersion             -0.131000456729 Eh    ::
         :: -> Gsolv                  -0.057989199066 Eh    ::
         :: repulsion energy           2.344443189999 Eh    ::

    * Orbital Energies and Occupations

         #    Occupation            Energy/Eh            Energy/eV
      -------------------------------------------------------------
         1        2.0000           -0.7461938             -20.3050
       ...           ...                  ...                  ...
       111        2.0000           -0.4239968             -11.5375
       112        2.0000           -0.4235647             -11.5258
       113        2.0000           -0.4220717             -11.4852
       114        2.0000           -0.4173918             -11.3578
       115        2.0000           -0.4132328             -11.2446
       116        2.0000           -0.4050341             -11.0215
       117        2.0000           -0.4047982             -11.0151
       118        2.0000           -0.4017712             -10.9328
       119        2.0000           -0.3938534             -10.7173
       120        1.9403           -0.3586081              -9.7582
       121        1.8498           -0.3576351              -9.7317
       122        1.2099           -0.3547291              -9.6527
       123        1.0000           -0.2964061              -8.0656 (HOMO)
       124                         -0.2644824              -7.1969 (LUMO)
       125                         -0.2551992              -6.9443
       126                         -0.2523906              -6.8679
       127                         -0.2506986              -6.8219
       128                         -0.2482081              -6.7541
       129                         -0.2456426              -6.6843
       130                         -0.2449376              -6.6651
       131                         -0.2414761              -6.5709
       132                         -0.2409910              -6.5577
       133                         -0.2292140              -6.2372
       134                         -0.2258322              -6.1452
       ...                                ...                  ...
       235                          1.1655701              31.7168
      -------------------------------------------------------------
                  HL-Gap            0.0319237 Eh            0.8687 eV

     #   Z          covCN         q      C6AA      α(0)
     1   7 N        0.911    -0.315    28.095     7.666
     2   6 C        1.913     0.111    28.365     8.601
     3   6 C        2.968    -0.008    28.207     8.712
     4   6 C        2.922    -0.028    28.697     8.785
     5   6 C        2.917    -0.065    29.621     8.925
     6   6 C        2.947     0.092    25.964     8.357
     7   7 N        1.845    -0.255    27.478     7.769
     8   6 C        2.946     0.063    26.579     8.456
     9   6 C        2.978     0.007    27.862     8.658
    10   6 C        2.927    -0.034    28.835     8.806
    11   6 C        2.920    -0.040    28.987     8.829
    12   6 C        2.923     0.057    26.727     8.478
    13   7 N        2.751    -0.045    22.109     6.983
    14   6 C        2.925     0.042    27.059     8.531
    15   6 C        2.923    -0.059    29.477     8.903
    16   6 C        2.919    -0.035    28.867     8.811
    17   6 C        2.919    -0.035    28.861     8.810
    18   6 C        2.919    -0.055    29.354     8.885
    19   6 C        2.885     0.128    25.201     8.230
    20   8 O        1.709    -0.243    18.029     5.733
    21   6 C        2.884     0.127    25.210     8.231
    22   6 C        2.918    -0.053    29.326     8.880
    23   6 C        2.919    -0.034    28.841     8.807
    24   6 C        2.918    -0.033    28.827     8.805
    25   6 C        2.922    -0.054    29.339     8.883
    26   6 C        2.924     0.043    27.026     8.525
    27   6 C        2.920    -0.038    28.956     8.824
    28   6 C        2.922    -0.028    28.692     8.784
    29   6 C        2.943     0.078    26.249     8.403
    30   6 C        2.979     0.008    27.840     8.655
    31   6 C        2.921    -0.026    28.663     8.780
    32   6 C        2.920    -0.038    28.948     8.823
    33   6 C        2.923     0.059    26.679     8.470
    34   7 N        2.751    -0.046    22.121     6.985
    35   6 C        2.924     0.042    27.066     8.532
    36   6 C        2.923    -0.060    29.489     8.905
    37   6 C        2.919    -0.035    28.869     8.811
    38   6 C        2.919    -0.035    28.863     8.810
    39   6 C        2.919    -0.055    29.354     8.885
    40   6 C        2.885     0.128    25.201     8.230
    41   8 O        1.709    -0.244    18.036     5.734
    42   6 C        2.884     0.127    25.210     8.232
    43   6 C        2.918    -0.053    29.327     8.880
    44   6 C        2.919    -0.034    28.841     8.807
    45   6 C        2.918    -0.033    28.828     8.805
    46   6 C        2.922    -0.054    29.339     8.883
    47   6 C        2.924     0.043    27.035     8.527
    48   6 C        2.921    -0.039    28.971     8.827
    49   6 C        2.927    -0.031    28.780     8.798
    50   7 N        1.845    -0.263    27.695     7.799
    51   6 C        2.945     0.083    26.147     8.387
    52   6 C        2.924    -0.062    29.555     8.915
    53   1 H        0.926     0.032     2.564     2.504
    54   1 H        0.926     0.042     2.426     2.435
    55   1 H        0.926     0.039     2.458     2.452
    56   1 H        0.926     0.053     2.284     2.363
    57   1 H        0.926     0.047     2.352     2.398
    58   1 H        0.926     0.043     2.406     2.425
    59   1 H        0.926     0.052     2.301     2.372
    60   1 H        0.926     0.060     2.199     2.319
    61   1 H        0.926     0.059     2.209     2.324
    62   1 H        0.926     0.053     2.288     2.365
    63   1 H        0.926     0.051     2.311     2.377
    64   1 H        0.926     0.048     2.339     2.391
    65   1 H        0.926     0.055     2.257     2.349
    66   1 H        0.926     0.047     2.355     2.400
    67   1 H        0.926     0.048     2.347     2.396
    68   1 H        0.926     0.057     2.234     2.337
    69   1 H        0.926     0.048     2.342     2.393
    70   1 H        0.926     0.043     2.408     2.427
    71   1 H        0.926     0.051     2.302     2.373
    72   1 H        0.926     0.060     2.200     2.319
    73   1 H        0.926     0.059     2.209     2.324
    74   1 H        0.926     0.053     2.288     2.365
    75   1 H        0.926     0.051     2.313     2.378
    76   1 H        0.926     0.048     2.345     2.395
    77   1 H        0.926     0.055     2.264     2.353
    78   1 H        0.926     0.041     2.441     2.443
    79   1 H        0.926     0.032     2.559     2.501

molecular dipole:
                 x           y           z       tot (Debye)
 q only:       -7.554       0.477       0.253
   full:       -7.673       0.645       0.345      19.591

 projected vibrational frequencies (cm⁻¹)
eigval :       -0.00    -0.00    -0.00    -0.00     0.00     0.00
eigval :       -8.66    17.33    21.43    27.29    35.47    38.65
eigval :       49.22    49.76    54.23    60.11    63.47    67.41
eigval :       81.25    91.49    98.47   104.54   118.54   122.22
eigval :      125.31   145.33   150.83   174.08   192.00   202.41
eigval :      208.60   221.84   243.13   246.22   253.11   255.94
eigval :      267.58   275.67   292.88   304.62   326.24   343.93
eigval :      355.48   366.09   373.95   377.68   388.30   391.75
eigval :      397.42   401.13   414.35   428.22   430.45   431.47
eigval :      436.40   444.86   453.56   454.76   459.91   461.77
eigval :      493.10   500.59   504.55   505.81   519.39   525.91
eigval :      527.33   531.42   550.22   560.43   572.18   575.59
eigval :      578.63   588.28   592.93   597.11   607.51   613.45
eigval :      617.04   647.01   648.72   663.09   664.51   665.47
eigval :      667.73   669.93   686.68   691.97   694.36   700.90
eigval :      724.42   730.48   776.08   778.69   779.59   783.29
eigval :      787.78   797.52   798.56   799.93   814.58   820.36
eigval :      829.44   855.17   855.32   860.83   864.12   868.46
eigval :      870.09   872.63   874.10   886.18   896.44   898.97
eigval :      899.61   902.38   904.25   913.47   914.94   915.50
eigval :      916.61   916.99   919.09   920.72   923.26   924.71
eigval :      930.65   931.91   955.18   961.38  1009.05  1025.24
eigval :     1084.09  1085.40  1089.95  1090.76  1104.63  1110.50
eigval :     1111.11  1118.05  1120.38  1125.71  1127.99  1130.68
eigval :     1165.90  1167.32  1168.77  1172.42  1174.19  1179.35
eigval :     1180.33  1187.23  1190.28  1206.08  1206.29  1209.79
eigval :     1218.90  1226.65  1229.89  1239.68  1239.82  1256.99
eigval :     1258.31  1259.30  1260.86  1264.67  1281.22  1293.60
eigval :     1303.03  1305.04  1307.14  1307.95  1310.38  1312.09
eigval :     1323.17  1324.76  1325.82  1338.96  1345.41  1348.94
eigval :     1392.90  1397.16  1398.27  1402.59  1419.70  1420.29
eigval :     1440.68  1441.42  1455.72  1456.69  1465.69  1470.57
eigval :     1476.04  1482.86  1488.45  1505.81  1526.32  1547.30
eigval :     1553.64  1561.56  1562.12  1568.33  1568.63  1574.61
eigval :     1576.40  1579.57  1581.36  1588.98  1591.72  2313.19
eigval :     3075.96  3083.69  3084.30  3085.20  3085.55  3085.80
eigval :     3086.02  3088.78  3093.29  3093.43  3093.69  3095.01
eigval :     3095.59  3099.98  3100.41  3101.06  3101.13  3102.12
eigval :     3103.02  3107.42  3109.03  3113.19  3113.41  3113.54
eigval :     3115.08  3118.95  3121.52

   temp. (K)  partition function   enthalpy   heat capacity  entropy
                                   cal/mol     cal/K/mol   cal/K/mol   J/K/mol
 298.15  VIB  0.578E+18            23651.493    151.213    146.192
         ROT  0.850E+08              888.752      2.981     39.265
         INT  0.491E+26            24540.246    154.194    185.457
         TR   0.168E+29             1481.254      4.968     45.366
         TOT                       26021.4996   159.1620   230.8225   965.7615

       T/K    H(0)-H(T)+PV         H(T)/Eh          T*S/Eh         G(T)/Eh
   ------------------------------------------------------------------------
    298.15    0.414679E-01    0.622950E+00    0.109671E+00    0.513279E+00
   ------------------------------------------------------------------------

         :::::::::::::::::::::::::::::::::::::::::::::::::::::
         ::                  THERMODYNAMIC                  ::
         :::::::::::::::::::::::::::::::::::::::::::::::::::::
         :: total free energy        -132.387503257595 Eh   ::
         ::.................................................::
         :: total energy             -132.900782067306 Eh   ::
         :: zero point energy           0.581482151500 Eh   ::
         :: G(RRHO) w/o ZPVE           -0.068203341788 Eh   ::
         :: G(RRHO) contrib.            0.513278809711 Eh   ::
         :::::::::::::::::::::::::::::::::::::::::::::::::::::

           -------------------------------------------------
          | TOTAL ENERGY             -132.900782067306 Eh   |
          | TOTAL ENTHALPY           -132.277832016597 Eh   |
          | TOTAL FREE ENERGY        -132.387503257595 Eh   |
          | GRADIENT NORM               0.000137346890 Eh/α |
          | HOMO-LUMO GAP               0.868688174181 eV   |
           -------------------------------------------------

 * finished run on 2025/07/16 at 18:28:05.933
