   * xtb version 6.7.1 (edcfbbe) compiled by 'albert@albert-system' on 2024-07-22

   ID    Z sym.   atoms
    1    7 N      1, 7, 13, 34, 50
    2    6 C      2-6, 8-12, 14-19, 21-33, 35-40, 42-49, 51, 52
    3    8 O      20, 41
    4    1 H      53-79

          program call               : xtb data2507/toluene/CN-QP/CN-QP.xyz --gfn 2 --gbsa toluene --ohess vtight --parallel 40 --molden --ceasefiles --namespace data2507/toluene/CN-QP/CN-QP_toluene_S0_preOpt
      * Solvation model:               GBSA
        Solvent                        toluene
        Solvent mass                       9.2140E+01 g/mol
          :  Hamiltonian                  GFN2-xTB          :
 * total energy  :  -132.9271735 Eh     change       -0.2974105E-08 Eh
 * total energy  :  -132.9422440 Eh     change       -0.1507048E-01 Eh
 * total energy  :  -132.9474730 Eh     change       -0.5229017E-02 Eh
 * total energy  :  -132.9489646 Eh     change       -0.1491627E-02 Eh
 * total energy  :  -132.9501460 Eh     change       -0.1181381E-02 Eh
 * total energy  :  -132.9499977 Eh     change        0.1482794E-03 Eh
 * total energy  :  -132.9508708 Eh     change       -0.8731379E-03 Eh
 * total energy  :  -132.9511584 Eh     change       -0.2875764E-03 Eh
 * total energy  :  -132.9516521 Eh     change       -0.4936926E-03 Eh
 * total energy  :  -132.9521920 Eh     change       -0.5398765E-03 Eh
 * total energy  :  -132.9536361 Eh     change       -0.1024254E-05 Eh
 * total energy  :  -132.9536371 Eh     change       -0.1047364E-05 Eh
 * total energy  :  -132.9536382 Eh     change       -0.1038694E-05 Eh
 * total energy  :  -132.9536391 Eh     change       -0.9885968E-06 Eh
 * total energy  :  -132.9536401 Eh     change       -0.9264753E-06 Eh
 * total energy  :  -132.9536409 Eh     change       -0.8261419E-06 Eh
 * total energy  :  -132.9536416 Eh     change       -0.7504232E-06 Eh
 * total energy  :  -132.9536423 Eh     change       -0.6936855E-06 Eh
 * total energy  :  -132.9536423 Eh     change       -0.6436693E-08 Eh
   *** GEOMETRY OPTIMIZATION CONVERGED AFTER 68 ITERATIONS ***

 final structure:
================
79
 xtb: 6.7.1 (edcfbbe)
N            5.67122293059560        8.78259471843995       -0.54851986936690
C            4.79962145649252        8.05673761017459       -0.37525069196110
C            3.71920874627686        7.17017544416707       -0.16221074384877
C            2.48040467769446        7.69194503565339        0.28252228840399
C            1.41465012294216        6.86210207946538        0.48304183598772
C            1.54670095600141        5.47883035758190        0.24441158454527
N            0.47655987739009        4.66820330453213        0.34859052246204
C            0.63129030918768        3.38240030294501        0.13963863096697
C           -0.57885430290453        2.55763545021322        0.13334279482386
C           -0.74627142614053        1.51870395940755       -0.78373118284557
C           -1.88025775851212        0.73531167269944       -0.74909070614154
C           -2.87086403724951        0.97233168272359        0.20226073489821
N           -4.00640877289009        0.13833509960600        0.25966597040163
C           -3.87085885505786       -1.21424337293535        0.58623083409635
C           -2.64521557133106       -1.77913893313698        0.91834402452634
C           -2.54692589370300       -3.12204150330778        1.24964452276285
C           -3.67147074041957       -3.92219808268191        1.26049933330189
C           -4.90702128090498       -3.36856712669730        0.95729807872976
C           -5.01053284416923       -2.02834270664086        0.63268240885809
O           -6.27302177685630       -1.54584030488772        0.37706483524422
C           -6.39096092775688       -0.20762621251263        0.08047541209871
C           -7.66550401936251        0.26704293592692       -0.16826702797145
C           -7.86374096933953        1.59859237201688       -0.50411083987581
C           -6.77634318563308        2.44311616009973       -0.60472660734755
C           -5.49626120434816        1.97192918511699       -0.35472715370281
C           -5.28338277758163        0.64814004019768        0.01058935566044
C           -2.72702179827565        2.03424047269254        1.09235663872327
C           -1.59598776705742        2.82326560900813        1.05006429985191
C            1.94129723964192        2.83050417020408       -0.08973197012272
C            2.19293031460979        1.38686749474513       -0.09854419343478
C            3.09315568180064        0.85069915138229       -1.01864879785099
C            3.31650775435217       -0.51005879419875       -1.07124433072774
C            2.65396161522569       -1.36025233659490       -0.18913880407199
N            2.84727916529653       -2.75607132904234       -0.25814807674304
C            1.78816753888163       -3.59667893041743       -0.61221151563900
C            0.53277187969983       -3.10695242700166       -0.95209560231042
C           -0.49346267990235       -3.96771442908055       -1.31135885238858
C           -0.28167706059319       -5.33116760015738       -1.34306765376588
C            0.97261922340782       -5.83538690100375       -1.03025950497852
C            2.00018031143281       -4.98042059780811       -0.67644379004861
O            3.22228839289976       -5.55300584731223       -0.40959530245381
C            4.25866879865092       -4.70908307389504       -0.08244917954978
C            5.48282746927237       -5.29515849410792        0.18082939649297
C            6.56956370276478       -4.51326803054992        0.54585663971753
C            6.41576507831409       -3.14609787274788        0.65897272706925
C            5.18986348436071       -2.55365059035865        0.39534728372205
C            4.09873211215380       -3.31944902316096        0.00310529496211
C            1.79207687717783       -0.82347809836899        0.76520868573487
C            1.56362340199137        0.53562418592517        0.81083042892264
N            2.97108110256052        3.61744957162449       -0.28439269578724
C            2.80337045375279        4.95035049991674       -0.16376006800276
C            3.88528821334721        5.81822364494976       -0.38331292276928
H            2.39455741903870        8.75458970864007        0.45373131925402
H            0.45745009520754        7.23827551640653        0.80880931027455
H            0.00288929407214        1.34011463291052       -1.54012696194579
H           -2.01028931387729       -0.06516513146810       -1.46167770040736
H           -1.75989628617037       -1.16375543965566        0.92094823229244
H           -1.58214966078072       -3.53682644721512        1.49600159945861
H           -3.59892661152713       -4.96884305280817        1.51030677211013
H           -5.80872674750645       -3.96052970484481        0.97384574403514
H           -8.49020500773711       -0.42486457173307       -0.09832584750999
H           -8.86206312412498        1.96000340685992       -0.69413077357607
H           -6.91210791307329        3.47685774478969       -0.88337306307190
H           -4.65423921492223        2.63853341362925       -0.45401721830870
H           -3.49979559019072        2.22664690831430        1.82148939942996
H           -1.47183428532592        3.64048583185046        1.74367689789655
H            3.59436040308607        1.51503350846553       -1.70560689604371
H            3.99600370110028       -0.92381533572916       -1.80131362161891
H            0.35639521985998       -2.04333728226346       -0.93835507397449
H           -1.46067911789527       -3.56169913789038       -1.56295266902422
H           -1.07830822603093       -6.00510653106426       -1.61576786834263
H            1.17759321033228       -6.89408436302986       -1.06086075354126
H            5.56341608461134       -6.36784061857582        0.09911240618261
H            7.52106767249614       -4.97961756910161        0.74729940643605
H            7.24663897360015       -2.52587810814643        0.95839909520154
H            5.07914039699416       -1.48632301701074        0.50436503013444
H            1.30715109028433       -1.48055071711116        1.47127555776415
H            0.91185460872674        0.94225153751660        1.56924613015037
H            4.83106869156491        5.40998522547019       -0.70583593251623

          :  Hamiltonian                  GFN2-xTB          :
         :: gradient norm              0.000071955650 Eh/a0 ::
         :: HOMO-LUMO gap              0.793474322705 eV    ::
         :: SCC energy              -135.302107470147 Eh    ::
         :: -> dispersion             -0.118088031576 Eh    ::
         :: -> Gsolv                  -0.054590101706 Eh    ::
         :: repulsion energy           2.348465125161 Eh    ::

    * Orbital Energies and Occupations

         #    Occupation            Energy/Eh            Energy/eV
      -------------------------------------------------------------
         1        2.0000           -0.7319023             -19.9161
       ...           ...                  ...                  ...
       110        2.0000           -0.4252351             -11.5712
       111        2.0000           -0.4225420             -11.4980
       112        2.0000           -0.4188396             -11.3972
       113        2.0000           -0.4183760             -11.3846
       114        2.0000           -0.4171622             -11.3516
       115        2.0000           -0.4153155             -11.3013
       116        2.0000           -0.4148473             -11.2886
       117        2.0000           -0.4073255             -11.0839
       118        2.0000           -0.3934648             -10.7067
       119        2.0000           -0.3920700             -10.6688
       120        2.0000           -0.3708053             -10.0901
       121        2.0000           -0.3468509              -9.4383
       122        2.0000           -0.3459446              -9.4136 (HOMO)
       123        0.0000           -0.3167850              -8.6202 (LUMO)
       124                         -0.2893846              -7.8746
       125                         -0.2618423              -7.1251
       126                         -0.2483241              -6.7572
       127                         -0.2448512              -6.6627
       128                         -0.2412957              -6.5660
       129                         -0.2410745              -6.5600
       130                         -0.2396931              -6.5224
       131                         -0.2324054              -6.3241
       132                         -0.2317486              -6.3062
       133                         -0.2316419              -6.3033
       ...                                ...                  ...
       235                          1.1504135              31.3043
      -------------------------------------------------------------
                  HL-Gap            0.0291597 Eh            0.7935 eV

     #   Z          covCN         q      C6AA      α(0)
     1   7 N        0.911    -0.254    26.593     7.458
     2   6 C        1.913     0.121    28.132     8.566
     3   6 C        2.971     0.020    27.560     8.611
     4   6 C        2.922    -0.021    28.525     8.759
     5   6 C        2.916    -0.037    28.932     8.820
     6   6 C        2.962     0.083    26.154     8.388
     7   7 N        1.850    -0.242    27.169     7.725
     8   6 C        2.949     0.090    25.991     8.362
     9   6 C        2.980     0.002    27.983     8.677
    10   6 C        2.922    -0.029    28.722     8.789
    11   6 C        2.921    -0.039    28.962     8.825
    12   6 C        2.921     0.069    26.457     8.435
    13   7 N        2.751    -0.069    22.583     7.058
    14   6 C        2.922     0.041    27.071     8.532
    15   6 C        2.924    -0.060    29.493     8.906
    16   6 C        2.919    -0.037    28.921     8.819
    17   6 C        2.919    -0.040    28.996     8.830
    18   6 C        2.919    -0.057    29.425     8.895
    19   6 C        2.882     0.123    25.302     8.246
    20   8 O        1.708    -0.271    18.495     5.806
    21   6 C        2.882     0.123    25.306     8.247
    22   6 C        2.919    -0.058    29.432     8.897
    23   6 C        2.919    -0.041    29.008     8.832
    24   6 C        2.919    -0.039    28.962     8.825
    25   6 C        2.923    -0.061    29.506     8.908
    26   6 C        2.921     0.042    27.066     8.531
    27   6 C        2.920    -0.038    28.947     8.823
    28   6 C        2.924    -0.024    28.611     8.772
    29   6 C        2.949     0.090    25.992     8.362
    30   6 C        2.980     0.002    27.985     8.677
    31   6 C        2.924    -0.024    28.613     8.772
    32   6 C        2.920    -0.038    28.943     8.822
    33   6 C        2.921     0.069    26.456     8.435
    34   7 N        2.751    -0.070    22.605     7.061
    35   6 C        2.922     0.042    27.068     8.532
    36   6 C        2.924    -0.060    29.499     8.907
    37   6 C        2.919    -0.037    28.923     8.819
    38   6 C        2.919    -0.040    29.002     8.831
    39   6 C        2.919    -0.057    29.428     8.896
    40   6 C        2.882     0.123    25.305     8.247
    41   8 O        1.708    -0.272    18.504     5.808
    42   6 C        2.882     0.122    25.310     8.248
    43   6 C        2.919    -0.058    29.435     8.897
    44   6 C        2.919    -0.041    29.013     8.833
    45   6 C        2.919    -0.039    28.964     8.825
    46   6 C        2.923    -0.061    29.509     8.908
    47   6 C        2.921     0.042    27.063     8.531
    48   6 C        2.921    -0.039    28.962     8.825
    49   6 C        2.922    -0.029    28.727     8.789
    50   7 N        1.851    -0.244    27.228     7.734
    51   6 C        2.962     0.080    26.205     8.397
    52   6 C        2.926    -0.031    28.777     8.797
    53   1 H        0.926     0.058     2.225     2.333
    54   1 H        0.926     0.067     2.119     2.276
    55   1 H        0.926     0.041     2.439     2.442
    56   1 H        0.926     0.051     2.304     2.374
    57   1 H        0.926     0.039     2.460     2.453
    58   1 H        0.926     0.040     2.450     2.448
    59   1 H        0.926     0.042     2.416     2.431
    60   1 H        0.926     0.048     2.341     2.393
    61   1 H        0.926     0.048     2.346     2.395
    62   1 H        0.926     0.042     2.419     2.432
    63   1 H        0.926     0.042     2.423     2.434
    64   1 H        0.926     0.041     2.436     2.440
    65   1 H        0.926     0.054     2.273     2.358
    66   1 H        0.926     0.057     2.234     2.337
    67   1 H        0.926     0.056     2.247     2.344
    68   1 H        0.926     0.053     2.280     2.361
    69   1 H        0.926     0.039     2.465     2.455
    70   1 H        0.926     0.040     2.452     2.449
    71   1 H        0.926     0.042     2.419     2.432
    72   1 H        0.926     0.048     2.344     2.394
    73   1 H        0.926     0.048     2.348     2.396
    74   1 H        0.926     0.042     2.422     2.434
    75   1 H        0.926     0.042     2.428     2.437
    76   1 H        0.926     0.040     2.447     2.446
    77   1 H        0.926     0.051     2.302     2.373
    78   1 H        0.926     0.041     2.436     2.441
    79   1 H        0.926     0.062     2.174     2.306

molecular dipole:
                 x           y           z       tot (Debye)
 q only:       -1.046      -0.607       0.231
   full:       -1.290      -0.758       0.287       3.873

 projected vibrational frequencies (cm⁻¹)
eigval :       -0.00    -0.00    -0.00     0.00     0.00     0.00
eigval :        9.83    12.03    18.22    24.38    28.18    33.35
eigval :       38.51    43.95    47.38    54.16    63.18    65.54
eigval :       71.71    83.80    98.52   112.72   117.60   119.97
eigval :      124.84   139.71   151.76   166.67   194.88   197.92
eigval :      215.54   232.33   246.61   249.23   255.06   259.03
eigval :      270.06   271.75   298.70   307.29   336.69   344.96
eigval :      357.86   358.94   374.11   381.20   382.15   390.28
eigval :      397.74   402.38   415.77   422.26   429.24   429.88
eigval :      440.66   444.15   448.21   450.91   456.58   468.47
eigval :      496.43   505.72   510.27   511.63   520.97   523.28
eigval :      523.70   540.57   550.98   561.14   568.08   581.26
eigval :      587.88   593.45   600.31   607.03   612.85   617.96
eigval :      618.41   649.82   659.85   661.49   661.86   663.74
eigval :      670.21   676.44   689.19   702.70   711.85   729.84
eigval :      743.21   764.87   775.69   775.99   778.20   778.70
eigval :      797.77   799.35   819.85   820.31   828.43   839.37
eigval :      852.40   852.90   862.35   863.51   865.03   866.99
eigval :      872.98   875.66   876.36   896.55   896.75   897.95
eigval :      899.64   905.11   911.80   912.95   913.92   915.24
eigval :      915.55   916.17   917.05   919.53   922.86   925.53
eigval :      930.76   932.54   958.13   973.11  1008.16  1031.00
eigval :     1087.44  1090.68  1091.18  1092.08  1094.03  1105.42
eigval :     1105.77  1117.03  1117.74  1131.82  1132.68  1143.14
eigval :     1160.37  1167.72  1169.31  1173.69  1174.81  1181.62
eigval :     1182.22  1187.03  1190.07  1196.85  1197.76  1212.68
eigval :     1219.38  1220.56  1240.67  1241.90  1250.55  1258.78
eigval :     1259.20  1261.64  1263.00  1265.84  1286.31  1303.90
eigval :     1304.26  1305.07  1311.33  1312.19  1312.76  1327.49
eigval :     1332.92  1333.50  1351.46  1353.35  1375.10  1395.18
eigval :     1400.77  1404.72  1421.96  1422.46  1427.34  1441.01
eigval :     1441.60  1467.02  1479.00  1480.43  1480.74  1482.51
eigval :     1502.06  1502.57  1503.45  1520.11  1552.31  1553.63
eigval :     1566.17  1566.42  1578.90  1579.13  1580.55  1583.89
eigval :     1585.90  1588.48  1589.60  1601.60  1601.94  2364.26
eigval :     3086.17  3086.86  3087.13  3087.25  3089.44  3089.79
eigval :     3092.00  3092.05  3093.09  3094.69  3095.91  3097.35
eigval :     3097.84  3098.42  3098.56  3099.23  3102.01  3102.87
eigval :     3103.63  3104.66  3105.22  3105.45  3105.87  3108.43
eigval :     3109.11  3111.18  3112.49

   temp. (K)  partition function   enthalpy   heat capacity  entropy
                                   cal/mol     cal/K/mol   cal/K/mol   J/K/mol
 298.15  VIB  0.249E+19            23632.714    149.441    146.553
         ROT  0.117E+09              888.752      2.981     39.896
         INT  0.291E+27            24521.466    152.421    186.449
         TR   0.168E+29             1481.254      4.968     45.366
         TOT                       26002.7198   157.3896   231.8150   969.9141

       T/K    H(0)-H(T)+PV         H(T)/Eh          T*S/Eh         G(T)/Eh
   ------------------------------------------------------------------------
    298.15    0.414380E-01    0.625088E+00    0.110143E+00    0.514945E+00
   ------------------------------------------------------------------------

         :::::::::::::::::::::::::::::::::::::::::::::::::::::
         ::                  THERMODYNAMIC                  ::
         :::::::::::::::::::::::::::::::::::::::::::::::::::::
         :: total free energy        -132.438697291666 Eh   ::
         ::.................................................::
         :: total energy             -132.953642340359 Eh   ::
         :: zero point energy           0.583649877964 Eh   ::
         :: G(RRHO) w/o ZPVE           -0.068704829270 Eh   ::
         :: G(RRHO) contrib.            0.514945048694 Eh   ::
         :::::::::::::::::::::::::::::::::::::::::::::::::::::

           -------------------------------------------------
          | TOTAL ENERGY             -132.953642340359 Eh   |
          | TOTAL ENTHALPY           -132.328554490737 Eh   |
          | TOTAL FREE ENERGY        -132.438697291666 Eh   |
          | GRADIENT NORM               0.000071964395 Eh/α |
          | HOMO-LUMO GAP               0.793474863985 eV   |
           -------------------------------------------------

 * finished run on 2025/07/16 at 18:23:47.908
