   * xtb version 6.7.1 (edcfbbe) compiled by 'albert@albert-system' on 2024-07-22

   ID    Z sym.   atoms
    1    7 N      1, 7, 13, 34, 50
    2    6 C      2-6, 8-12, 14-19, 21-33, 35-40, 42-49, 51, 52
    3    8 O      20, 41
    4    1 H      53-79

          program call               : xtb data2507/toluene/CN-QP/CN-QP_toluene_S0_crest.xyz --gfn 2 --gbsa toluene --ohess vtight --parallel 40 --molden --ceasefiles --namespace data2507/toluene/CN-QP/CN-QP_toluene_S0_finalOpt
      * Solvation model:               GBSA
        Solvent                        toluene
        Solvent mass                       9.2140E+01 g/mol
          :  Hamiltonian                  GFN2-xTB          :
 * total energy  :  -132.9496348 Eh     change       -0.6079915E-08 Eh
 * total energy  :  -132.9496992 Eh     change       -0.6442496E-04 Eh
 * total energy  :  -132.9497381 Eh     change       -0.3890354E-04 Eh
 * total energy  :  -132.9497512 Eh     change       -0.1310420E-04 Eh
 * total energy  :  -132.9497863 Eh     change       -0.3507345E-04 Eh
 * total energy  :  -132.9498079 Eh     change       -0.2167377E-04 Eh
 * total energy  :  -132.9498346 Eh     change       -0.2664023E-04 Eh
 * total energy  :  -132.9498552 Eh     change       -0.2065968E-04 Eh
 * total energy  :  -132.9498681 Eh     change       -0.1283952E-04 Eh
 * total energy  :  -132.9498777 Eh     change       -0.9601442E-05 Eh
 * total energy  :  -132.9500512 Eh     change       -0.1631965E-05 Eh
 * total energy  :  -132.9500516 Eh     change       -0.3694580E-06 Eh
 * total energy  :  -132.9500521 Eh     change       -0.4719311E-06 Eh
 * total energy  :  -132.9500524 Eh     change       -0.3485722E-06 Eh
 * total energy  :  -132.9500526 Eh     change       -0.2225945E-06 Eh
 * total energy  :  -132.9500528 Eh     change       -0.1598362E-06 Eh
 * total energy  :  -132.9500530 Eh     change       -0.1522843E-06 Eh
 * total energy  :  -132.9500531 Eh     change       -0.1369615E-06 Eh
 * total energy  :  -132.9500531 Eh     change       -0.4214655E-09 Eh
   *** GEOMETRY OPTIMIZATION CONVERGED AFTER 68 ITERATIONS ***

 final structure:
================
79
 xtb: 6.7.1 (edcfbbe)
N           10.61001946356842       -1.12107947221683       -0.70436539600831
C            9.57676825969033       -0.69213595212575       -0.45103167562138
C            8.30681364575826       -0.15562369841100       -0.13398781368789
C            8.23465985200857        1.06366577832961        0.58029792365355
C            7.02126970363227        1.60662014901547        0.89500668465273
C            5.83520392049338        0.95300596896709        0.50601306584535
N            4.63688039325754        1.52440199283756        0.76655703180155
C            3.56306613932767        0.88201045618143        0.40216771662949
C            2.21898019544888        1.46588663207271        0.55713434321627
C            1.48345211905098        1.75124056966954       -0.59168110315918
C            0.15335148371141        2.10073309459126       -0.50221986565201
C           -0.47562707656724        2.14040315639866        0.73972656092839
N           -1.87125803778963        2.34212640511726        0.81848385218572
C           -2.70461026356520        1.29515429452512        1.22858532914398
C           -2.20745469610254        0.09935109229854        1.72978326018167
C           -3.06055336934367       -0.91678567845296        2.13321447022063
C           -4.42785289801916       -0.75824509926994        2.04034372338630
C           -4.94110189263935        0.42069151641998        1.52094094331235
C           -4.09374972209657        1.43344157157788        1.11157055463621
O           -4.68270055747812        2.55502572647633        0.58050744719787
C           -3.85000002273196        3.55948249942638        0.14582591557018
C           -4.44974986798061        4.67895556036959       -0.40106075385068
C           -3.67695110279222        5.74900582889052       -0.82949245742393
C           -2.30446303004920        5.69585448545346       -0.68997753524464
C           -1.69856999061501        4.57328362046521       -0.14594867804590
C           -2.45606592225042        3.48034911302781        0.25762771233603
C            0.27794434781275        1.94061025673495        1.89251586022820
C            1.61910926507219        1.61380556695151        1.80174275937207
C            3.63806316518118       -0.42651827014346       -0.19987470268412
C            2.36271802346593       -1.13470026140304       -0.41174234156227
C            1.82898380775459       -1.33324359979347       -1.67899720096345
C            0.53023640680868       -1.78799870323289       -1.82257872030617
C           -0.24467201086804       -2.06542133420009       -0.70059840975042
N           -1.61040025995159       -2.40054756252033       -0.83333038903147
C           -2.52633226904569       -1.43551869109498       -1.26753675214349
C           -2.12959398263160       -0.19775029842796       -1.75616948084626
C           -3.06252045409976        0.73471873658325       -2.18435205026146
C           -4.41094434441056        0.44882624710206       -2.12884652096958
C           -4.82578820124466       -0.77391913932571       -1.62292591789461
C           -3.89914475215358       -1.70379511517143       -1.18945226199947
O           -4.39517387212796       -2.87700353108019       -0.67497127656545
C           -3.48419353846355       -3.80395379343880       -0.22515497074933
C           -3.99066517048022       -4.98041078183341        0.29576607712704
C           -3.13254641242986       -5.97731503463413        0.73805107503875
C           -1.76773381479029       -5.79394901516340        0.63870403695420
C           -1.25550642130557       -4.61420365471444        0.11995192075400
C           -2.10142500622679       -3.59370335620831       -0.29740865931303
C            0.32872855654650       -1.97195675206290        0.56508518523137
C            1.61412683338212       -1.49559446375392        0.70694591223778
N            4.78232271944105       -0.96527684747515       -0.51104824184024
C            5.90885869275693       -0.28372530066187       -0.19224032035566
C            7.16265056618494       -0.82474578505007       -0.51791700981069
H            9.15223132707205        1.55475026382175        0.86781324156648
H            6.93913952573095        2.53824715218598        1.43258391431399
H            1.95644443489326        1.68243845659543       -1.56027862557709
H           -0.41458625249680        2.31494040298307       -1.39426043538292
H           -1.14092793042820       -0.04155384991768        1.79394324666288
H           -2.64695970453019       -1.83593883465340        2.52120510427712
H           -5.09681457107110       -1.54395910630121        2.35435076210380
H           -6.00371930328724        0.57228830064233        1.41540640639193
H           -5.52559733968475        4.69567401499275       -0.47812493697506
H           -4.15397125957439        6.61705050008370       -1.25672482859124
H           -1.69130204503753        6.52828704306277       -0.99943696183521
H           -0.62644831662192        4.54750205539258       -0.02860743668801
H           -0.19647789060521        2.02161785356920        2.85903184431767
H            2.19560652862764        1.43791609217964        2.69742293951834
H            2.42059468816950       -1.09901625579641       -2.55128228047084
H            0.10388842060854       -1.91049223670260       -2.80696975611023
H           -1.07951179293097        0.04218830625056       -1.79120824979140
H           -2.72611833784804        1.68894766490079       -2.56212625265835
H           -5.14182236727252        1.16865089992383       -2.46219467811893
H           -5.87215631540188       -1.02394190087389       -1.54682343909099
H           -5.06186822303167       -5.09901203545406        0.34235650775478
H           -3.53748491511706       -6.89045919072421        1.14508112756477
H           -1.08803576850527       -6.56841421952120        0.95963711377113
H           -0.18774015916970       -4.48604294159431        0.03294228750648
H           -0.24994379270394       -2.24539791568209        1.43376740126959
H            2.04007251826865       -1.38579677557378        1.69344685495378
H            7.20645984037477       -1.76027972109616       -1.05444693537888

          :  Hamiltonian                  GFN2-xTB          :
         :: gradient norm              0.000075521350 Eh/a0 ::
         :: HOMO-LUMO gap              0.776119683130 eV    ::
         :: SCC energy              -135.301579279274 Eh    ::
         :: -> dispersion             -0.132484485229 Eh    ::
         :: -> Gsolv                  -0.049307984938 Eh    ::
         :: repulsion energy           2.351526186047 Eh    ::

    * Orbital Energies and Occupations

         #    Occupation            Energy/Eh            Energy/eV
      -------------------------------------------------------------
         1        2.0000           -0.7310804             -19.8937
       ...           ...                  ...                  ...
       110        2.0000           -0.4252241             -11.5709
       111        2.0000           -0.4232909             -11.5183
       112        2.0000           -0.4232232             -11.5165
       113        2.0000           -0.4197561             -11.4221
       114        2.0000           -0.4179330             -11.3725
       115        2.0000           -0.4164569             -11.3324
       116        2.0000           -0.4142092             -11.2712
       117        2.0000           -0.4112660             -11.1911
       118        2.0000           -0.3939727             -10.7205
       119        2.0000           -0.3916853             -10.6583
       120        2.0000           -0.3736988             -10.1689
       121        2.0000           -0.3464347              -9.4270
       122        2.0000           -0.3463164              -9.4237 (HOMO)
       123        0.0000           -0.3177945              -8.6476 (LUMO)
       124                         -0.2864163              -7.7938
       125                         -0.2573989              -7.0042
       126                         -0.2509043              -6.8275
       127                         -0.2464955              -6.7075
       128                         -0.2437621              -6.6331
       129                         -0.2421566              -6.5894
       130                         -0.2409426              -6.5564
       131                         -0.2388109              -6.4984
       132                         -0.2331557              -6.3445
       133                         -0.2313245              -6.2947
       ...                                ...                  ...
       235                          1.1491968              31.2712
      -------------------------------------------------------------
                  HL-Gap            0.0285219 Eh            0.7761 eV

     #   Z          covCN         q      C6AA      α(0)
     1   7 N        0.911    -0.248    26.465     7.440
     2   6 C        1.913     0.121    28.118     8.564
     3   6 C        2.971     0.022    27.503     8.602
     4   6 C        2.922    -0.019    28.488     8.753
     5   6 C        2.916    -0.035    28.883     8.813
     6   6 C        2.971     0.082    26.159     8.389
     7   7 N        1.843    -0.234    26.983     7.698
     8   6 C        2.961     0.095    25.892     8.346
     9   6 C        2.979     0.000    28.016     8.682
    10   6 C        2.926    -0.031    28.763     8.795
    11   6 C        2.921    -0.039    28.977     8.828
    12   6 C        2.921     0.067    26.504     8.442
    13   7 N        2.750    -0.073    22.665     7.071
    14   6 C        2.922     0.042    27.062     8.531
    15   6 C        2.925    -0.064    29.600     8.922
    16   6 C        2.919    -0.039    28.971     8.827
    17   6 C        2.919    -0.040    28.988     8.829
    18   6 C        2.920    -0.058    29.435     8.897
    19   6 C        2.884     0.124    25.284     8.244
    20   8 O        1.708    -0.269    18.453     5.800
    21   6 C        2.883     0.123    25.293     8.245
    22   6 C        2.919    -0.057    29.428     8.896
    23   6 C        2.919    -0.041    29.011     8.833
    24   6 C        2.919    -0.039    28.972     8.827
    25   6 C        2.924    -0.060    29.489     8.905
    26   6 C        2.922     0.042    27.050     8.529
    27   6 C        2.922    -0.039    28.974     8.827
    28   6 C        2.921    -0.026    28.662     8.780
    29   6 C        2.961     0.095    25.897     8.347
    30   6 C        2.979     0.000    28.020     8.683
    31   6 C        2.921    -0.027    28.665     8.780
    32   6 C        2.922    -0.039    28.975     8.827
    33   6 C        2.921     0.067    26.504     8.442
    34   7 N        2.750    -0.074    22.674     7.072
    35   6 C        2.922     0.042    27.060     8.531
    36   6 C        2.925    -0.064    29.602     8.922
    37   6 C        2.919    -0.039    28.973     8.827
    38   6 C        2.919    -0.040    28.990     8.829
    39   6 C        2.920    -0.058    29.436     8.897
    40   6 C        2.884     0.124    25.285     8.244
    41   8 O        1.708    -0.269    18.455     5.800
    42   6 C        2.883     0.123    25.294     8.245
    43   6 C        2.919    -0.057    29.429     8.896
    44   6 C        2.919    -0.041    29.012     8.833
    45   6 C        2.919    -0.039    28.972     8.827
    46   6 C        2.924    -0.060    29.486     8.905
    47   6 C        2.922     0.042    27.049     8.529
    48   6 C        2.921    -0.039    28.976     8.827
    49   6 C        2.926    -0.031    28.766     8.796
    50   7 N        1.844    -0.237    27.043     7.707
    51   6 C        2.971     0.080    26.206     8.397
    52   6 C        2.927    -0.030    28.737     8.791
    53   1 H        0.926     0.062     2.179     2.309
    54   1 H        0.926     0.071     2.077     2.254
    55   1 H        0.926     0.040     2.455     2.450
    56   1 H        0.926     0.053     2.282     2.362
    57   1 H        0.926     0.039     2.461     2.453
    58   1 H        0.926     0.034     2.533     2.489
    59   1 H        0.926     0.040     2.442     2.444
    60   1 H        0.926     0.048     2.340     2.392
    61   1 H        0.926     0.048     2.340     2.392
    62   1 H        0.926     0.043     2.409     2.427
    63   1 H        0.926     0.042     2.416     2.431
    64   1 H        0.926     0.040     2.445     2.445
    65   1 H        0.926     0.056     2.251     2.346
    66   1 H        0.926     0.049     2.329     2.387
    67   1 H        0.926     0.049     2.336     2.390
    68   1 H        0.926     0.056     2.251     2.346
    69   1 H        0.926     0.039     2.459     2.452
    70   1 H        0.926     0.034     2.532     2.488
    71   1 H        0.926     0.040     2.444     2.444
    72   1 H        0.926     0.048     2.341     2.393
    73   1 H        0.926     0.048     2.340     2.392
    74   1 H        0.926     0.043     2.409     2.427
    75   1 H        0.926     0.042     2.418     2.432
    76   1 H        0.926     0.040     2.450     2.448
    77   1 H        0.926     0.053     2.284     2.363
    78   1 H        0.926     0.039     2.457     2.451
    79   1 H        0.926     0.066     2.131     2.283

molecular dipole:
                 x           y           z       tot (Debye)
 q only:       -0.424       0.593       0.335
   full:       -0.727       0.734       0.421       2.835

 projected vibrational frequencies (cm⁻¹)
eigval :       -0.00    -0.00    -0.00     0.00     0.00     0.00
eigval :       18.30    18.68    22.39    27.04    34.42    40.83
eigval :       48.35    51.76    54.51    61.90    66.48    69.04
eigval :       85.46    94.00    99.47   108.86   119.88   124.89
eigval :      127.23   140.03   152.51   172.46   191.95   200.42
eigval :      208.43   223.44   243.08   247.46   256.19   258.89
eigval :      271.04   275.52   297.55   318.54   332.37   343.99
eigval :      356.64   363.75   368.72   376.06   386.88   391.50
eigval :      397.51   403.04   415.28   426.96   429.04   431.21
eigval :      443.77   445.36   448.85   452.49   457.87   468.01
eigval :      491.23   503.21   510.40   511.21   522.58   524.35
eigval :      524.96   533.34   552.98   562.69   575.72   581.02
eigval :      588.55   595.98   600.08   608.99   613.89   617.26
eigval :      620.84   647.49   658.55   659.36   661.13   662.42
eigval :      670.73   686.63   689.31   703.47   709.76   732.55
eigval :      740.45   772.19   774.39   779.37   781.01   781.09
eigval :      798.69   800.57   817.75   820.37   825.13   835.80
eigval :      853.64   853.87   859.19   861.22   866.25   869.41
eigval :      870.76   875.48   876.72   893.42   896.89   898.74
eigval :      899.39   903.35   910.27   913.77   914.94   915.82
eigval :      916.49   916.83   917.37   917.54   925.12   926.39
eigval :      933.37   934.81   957.96   972.64  1008.02  1031.45
eigval :     1085.98  1087.05  1088.27  1093.07  1093.97  1106.66
eigval :     1106.86  1118.13  1119.12  1127.70  1130.14  1141.84
eigval :     1158.37  1168.68  1169.41  1173.89  1174.01  1180.64
eigval :     1181.87  1188.54  1189.31  1200.58  1201.19  1211.21
eigval :     1215.26  1220.83  1229.93  1242.34  1242.50  1254.96
eigval :     1259.85  1260.69  1263.45  1264.18  1281.45  1298.73
eigval :     1303.95  1305.11  1305.99  1306.46  1313.87  1318.25
eigval :     1334.32  1334.88  1353.57  1354.52  1382.19  1396.00
eigval :     1397.56  1398.20  1422.72  1423.18  1427.69  1442.22
eigval :     1442.35  1468.16  1479.88  1481.98  1482.65  1491.20
eigval :     1503.72  1503.93  1535.17  1544.00  1556.96  1557.55
eigval :     1567.39  1567.50  1579.99  1580.12  1586.87  1587.16
eigval :     1591.59  1591.83  1593.54  1603.28  1603.40  2367.14
eigval :     3079.35  3079.74  3080.73  3081.37  3085.88  3086.42
eigval :     3086.62  3086.77  3093.97  3094.79  3095.03  3096.48
eigval :     3096.77  3096.86  3097.27  3099.93  3101.16  3102.43
eigval :     3102.88  3103.64  3106.91  3107.98  3108.49  3108.77
eigval :     3109.65  3115.88  3116.61

   temp. (K)  partition function   enthalpy   heat capacity  entropy
                                   cal/mol     cal/K/mol   cal/K/mol   J/K/mol
 298.15  VIB  0.177E+18            23489.312    150.491    144.447
         ROT  0.833E+08              888.752      2.981     39.225
         INT  0.148E+26            24378.064    153.472    183.671
         TR   0.168E+29             1481.254      4.968     45.366
         TOT                       25859.3179   158.4404   229.0371   958.2913

       T/K    H(0)-H(T)+PV         H(T)/Eh          T*S/Eh         G(T)/Eh
   ------------------------------------------------------------------------
    298.15    0.412094E-01    0.625218E+00    0.108823E+00    0.516395E+00
   ------------------------------------------------------------------------

         :::::::::::::::::::::::::::::::::::::::::::::::::::::
         ::                  THERMODYNAMIC                  ::
         :::::::::::::::::::::::::::::::::::::::::::::::::::::
         :: total free energy        -132.433658308544 Eh   ::
         ::.................................................::
         :: total energy             -132.950053089866 Eh   ::
         :: zero point energy           0.584008262883 Eh   ::
         :: G(RRHO) w/o ZPVE           -0.067613481561 Eh   ::
         :: G(RRHO) contrib.            0.516394781322 Eh   ::
         :::::::::::::::::::::::::::::::::::::::::::::::::::::

           -------------------------------------------------
          | TOTAL ENERGY             -132.950053089866 Eh   |
          | TOTAL ENTHALPY           -132.324835380750 Eh   |
          | TOTAL FREE ENERGY        -132.433658308544 Eh   |
          | GRADIENT NORM               0.000075548637 Eh/α |
          | HOMO-LUMO GAP               0.776120170526 eV   |
           -------------------------------------------------

 * finished run on 2025/07/16 at 18:27:56.847
