   * xtb version 6.7.1 (edcfbbe) compiled by 'albert@albert-system' on 2024-07-22

   ID    Z sym.   atoms
    1    6 C      1-6, 8-10, 12-20
    2    7 N      7, 11
    3    1 H      21-32

          program call               : xtb data2507/toluene/BBCz/BBCz_toluene_T1_crest.xyz --gfn 2 --uhf 2 --gbsa toluene --ohess vtight --parallel 40 --molden --ceasefiles --namespace data2507/toluene/BBCz/BBCz_toluene_T1_finalOpt
      * Solvation model:               GBSA
        Solvent                        toluene
        Solvent mass                       9.2140E+01 g/mol
          :  Hamiltonian                  GFN2-xTB          :
 * total energy  :   -50.4750369 Eh     change       -0.1753683E-08 Eh
 * total energy  :   -50.4750441 Eh     change       -0.7258111E-05 Eh
 * total energy  :   -50.4750457 Eh     change       -0.1524629E-05 Eh
 * total energy  :   -50.4750464 Eh     change       -0.7746797E-06 Eh
 * total energy  :   -50.4750471 Eh     change       -0.6603808E-06 Eh
 * total energy  :   -50.4750474 Eh     change       -0.2947527E-06 Eh
 * total energy  :   -50.4750475 Eh     change       -0.9406283E-07 Eh
 * total energy  :   -50.4750477 Eh     change       -0.1777257E-06 Eh
 * total energy  :   -50.4750480 Eh     change       -0.3477616E-06 Eh
 * total energy  :   -50.4750482 Eh     change       -0.2139545E-06 Eh
 * total energy  :   -50.4750484 Eh     change       -0.1577713E-06 Eh
 * total energy  :   -50.4750485 Eh     change       -0.9977931E-07 Eh
   *** GEOMETRY OPTIMIZATION CONVERGED AFTER 12 ITERATIONS ***

 final structure:
================
32
 xtb: 6.7.1 (edcfbbe)
C           -5.36771899915261        0.58079799460674        0.00731453849570
C           -4.62999629706362        1.78173638103212        0.00314830660493
C           -3.25621682062435        1.78908419890680       -0.00099787480058
C           -2.57469966872457        0.56508645116634       -0.00095602656879
C           -3.34353948969039       -0.65050429731629        0.00273215794028
C           -4.72901957675049       -0.64479976245287        0.00698248284023
N           -2.46646712042088       -1.69320486633562        0.00208816184881
C           -1.18140880347264       -1.22146979817350       -0.00106950031899
C            0.00892012602255       -1.98083758693078       -0.00099650170352
C            1.18458630587322       -1.23200225080913       -0.00158057442145
N            2.47810491614709       -1.70051117184878        0.00086432838185
C            3.34869706304360       -0.65473572692321        0.00180254685709
C            4.73077684174051       -0.63893931873738        0.00565088004453
C            5.36315971682984        0.59381201517747        0.00678403406527
C            4.61614215928453        1.79422171033953        0.00379901746226
C            3.24796606574572        1.79760213748936       -0.00018026596483
C            2.56599834769114        0.56167684808645       -0.00106027884637
C            1.21183448678939        0.18174565637754       -0.00318174167633
C           -0.00420371485774        0.93254837198300       -0.00514089180580
C           -1.20489341680620        0.18692714317073       -0.00309001072283
H           -6.44611524833790        0.62534029213902        0.01086866404936
H           -5.17023031487534        2.71794825882980        0.00336748062015
H           -2.70490986961507        2.71751228734344       -0.00402192497077
H           -5.29038565489750       -1.56801054420215        0.01016181253011
H           -2.72308521993363       -2.66831685346866        0.00425797468715
H            0.00335198711314       -3.05862254792928        0.00061477341141
H            2.73810399035460       -2.67405243434044        0.00264551367146
H            5.29982207128984       -1.55738262321927        0.00798641003313
H            6.44103336225371        0.64516491562838        0.01011152649542
H            5.15492116448181        2.73155750287092        0.00487058202106
H            2.68958361856555        2.72148977754096       -0.00228470650918
H           -0.00035649620328        2.00771313139874       -0.00692274075070

          :  Hamiltonian                  GFN2-xTB          :
         :: gradient norm              0.000043027462 Eh/a0 ::
         :: HOMO-LUMO gap              0.389303089778 eV    ::
         :: SCC energy               -51.395366872930 Eh    ::
         :: -> dispersion             -0.038160881753 Eh    ::
         :: -> Gsolv                  -0.021475173686 Eh    ::
         :: repulsion energy           0.920318397085 Eh    ::

    * Orbital Energies and Occupations

         #    Occupation            Energy/Eh            Energy/eV
      -------------------------------------------------------------
         1        2.0000           -0.6777181             -18.4416
       ...           ...                  ...                  ...
        36        2.0000           -0.4449750             -12.1084
        37        2.0000           -0.4394852             -11.9590
        38        2.0000           -0.4270546             -11.6207
        39        2.0000           -0.4217849             -11.4774
        40        2.0000           -0.4174182             -11.3585
        41        2.0000           -0.4146394             -11.2829
        42        2.0000           -0.4113977             -11.1947
        43        2.0000           -0.4102714             -11.1641
        44        2.0000           -0.3889163             -10.5830
        45        2.0000           -0.3829098             -10.4195
        46        1.9880           -0.3610751              -9.8254
        47        1.0120           -0.3526978              -9.5974
        48        0.9995           -0.2470009              -6.7212 (HOMO)
        49        0.0005           -0.2326942              -6.3319 (LUMO)
        50                         -0.2088875              -5.6841
        51                         -0.1999110              -5.4399
        52                         -0.1842888              -5.0148
        53                         -0.1597335              -4.3466
        54                         -0.0936753              -2.5490
        55                         -0.0737012              -2.0055
        56                         -0.0485211              -1.3203
        57                          0.0025711               0.0700
        58                          0.0290748               0.7912
        59                          0.0948539               2.5811
       ...                                ...                  ...
        92                          0.7501416              20.4124
      -------------------------------------------------------------
                  HL-Gap            0.0143067 Eh            0.3893 eV

     #   Z          covCN         q      C6AA      α(0)
     1   6 C        2.921    -0.048    29.188     8.860
     2   6 C        2.917    -0.036    28.887     8.814
     3   6 C        2.907    -0.040    29.005     8.831
     4   6 C        3.083    -0.018    28.358     8.730
     5   6 C        3.063     0.046    26.909     8.506
     6   6 C        2.905    -0.053    29.310     8.877
     7   7 N        2.760    -0.088    22.953     7.116
     8   6 C        3.084     0.045    26.895     8.501
     9   6 C        2.900    -0.079    29.970     8.976
    10   6 C        3.081     0.048    26.827     8.491
    11   7 N        2.757    -0.099    23.175     7.150
    12   6 C        3.059     0.051    26.792     8.488
    13   6 C        2.904    -0.058    29.432     8.896
    14   6 C        2.921    -0.049    29.206     8.862
    15   6 C        2.915    -0.035    28.872     8.811
    16   6 C        2.905    -0.044    29.097     8.845
    17   6 C        3.082    -0.017    28.339     8.727
    18   6 C        3.054    -0.026    28.590     8.769
    19   6 C        2.901    -0.069    29.709     8.937
    20   6 C        3.053    -0.027    28.623     8.774
    21   1 H        0.926     0.025     2.653     2.547
    22   1 H        0.926     0.026     2.645     2.543
    23   1 H        0.926     0.026     2.637     2.539
    24   1 H        0.926     0.028     2.622     2.532
    25   1 H        0.860     0.169     1.277     1.770
    26   1 H        0.926     0.033     2.550     2.497
    27   1 H        0.860     0.168     1.287     1.777
    28   1 H        0.926     0.025     2.657     2.549
    29   1 H        0.926     0.024     2.678     2.559
    30   1 H        0.926     0.024     2.667     2.554
    31   1 H        0.926     0.025     2.660     2.550
    32   1 H        0.926     0.020     2.730     2.584

molecular dipole:
                 x           y           z       tot (Debye)
 q only:       -0.142      -1.504       0.002
   full:       -0.135      -1.958       0.004       4.988

 projected vibrational frequencies (cm⁻¹)
eigval :       -0.00    -0.00    -0.00    -0.00     0.00     0.00
eigval :       38.63    73.84   115.55   117.29   150.83   163.29
eigval :      194.04   260.84   295.99   315.78   330.29   345.03
eigval :      360.11   403.02   414.94   450.41   481.33   501.34
eigval :      506.84   515.96   523.34   535.85   552.68   557.60
eigval :      584.88   598.51   616.07   638.62   669.73   675.12
eigval :      695.95   699.22   708.00   731.81   744.37   790.81
eigval :      823.89   826.52   842.84   845.58   862.66   873.64
eigval :      900.20   902.52   911.98   963.35   971.09  1035.45
eigval :     1043.75  1123.02  1123.93  1133.25  1148.50  1155.41
eigval :     1161.83  1187.13  1191.37  1205.40  1226.64  1231.44
eigval :     1264.81  1305.33  1308.69  1343.27  1358.92  1365.25
eigval :     1370.77  1390.21  1396.60  1421.08  1444.38  1460.12
eigval :     1494.54  1502.32  1513.12  1521.44  1552.69  1592.97
eigval :     3065.26  3067.58  3068.57  3068.76  3081.92  3083.21
eigval :     3091.55  3092.75  3095.66  3124.82  3445.67  3454.72

   temp. (K)  partition function   enthalpy   heat capacity  entropy
                                   cal/mol     cal/K/mol   cal/K/mol   J/K/mol
 298.15  VIB  0.167E+05             7747.392     57.426     43.997
         ROT  0.245E+07              888.752      2.981     32.215
         INT  0.409E+11             8636.144     60.407     76.212
         TR   0.397E+28             1481.254      4.968     42.504
         TOT                       10117.3983    65.3751   118.7159   496.7075

       T/K    H(0)-H(T)+PV         H(T)/Eh          T*S/Eh         G(T)/Eh
   ------------------------------------------------------------------------
    298.15    0.161231E-01    0.253955E+00    0.564058E-01    0.197550E+00
   ------------------------------------------------------------------------

         :::::::::::::::::::::::::::::::::::::::::::::::::::::
         ::                  THERMODYNAMIC                  ::
         :::::::::::::::::::::::::::::::::::::::::::::::::::::
         :: total free energy         -50.277498847060 Eh   ::
         ::.................................................::
         :: total energy              -50.475048475922 Eh   ::
         :: zero point energy           0.237832298866 Eh   ::
         :: G(RRHO) w/o ZPVE           -0.040282670004 Eh   ::
         :: G(RRHO) contrib.            0.197549628862 Eh   ::
         :::::::::::::::::::::::::::::::::::::::::::::::::::::

           -------------------------------------------------
          | TOTAL ENERGY              -50.475048475922 Eh   |
          | TOTAL ENTHALPY            -50.221093076634 Eh   |
          | TOTAL FREE ENERGY         -50.277498847060 Eh   |
          | GRADIENT NORM               0.000042632769 Eh/α |
          | HOMO-LUMO GAP               0.389303968626 eV   |
           -------------------------------------------------

 * finished run on 2025/08/30 at 17:39:54.695
