   * xtb version 6.7.1 (edcfbbe) compiled by 'albert@albert-system' on 2024-07-22

   ID    Z sym.   atoms
    1    6 C      1-6, 8-10, 12-20
    2    7 N      7, 11
    3    1 H      21-32

          program call               : xtb data2507/toluene/BBCz/BBCz.xyz --gfn 2 --gbsa toluene --ohess vtight --parallel 40 --molden --ceasefiles --namespace data2507/toluene/BBCz/BBCz_toluene_S0_preOpt
      * Solvation model:               GBSA
        Solvent                        toluene
        Solvent mass                       9.2140E+01 g/mol
          :  Hamiltonian                  GFN2-xTB          :
 * total energy  :   -50.5753807 Eh     change       -0.3678906E-09 Eh
 * total energy  :   -50.5830154 Eh     change       -0.7634656E-02 Eh
 * total energy  :   -50.5841184 Eh     change       -0.1103009E-02 Eh
 * total energy  :   -50.5841648 Eh     change       -0.4637088E-04 Eh
 * total energy  :   -50.5841733 Eh     change       -0.8555562E-05 Eh
 * total energy  :   -50.5841744 Eh     change       -0.1041834E-05 Eh
 * total energy  :   -50.5841746 Eh     change       -0.2423376E-06 Eh
 * total energy  :   -50.5841747 Eh     change       -0.5455752E-07 Eh
   *** GEOMETRY OPTIMIZATION CONVERGED AFTER 8 ITERATIONS ***

 final structure:
================
32
 xtb: 6.7.1 (edcfbbe)
C           -5.33766298533382        0.52435016706984        0.00000310584064
C           -4.60243838068633        1.70725064579242        0.00000123091308
C           -3.22019662384213        1.68947765261318       -0.00000098179674
C           -2.56939803560788        0.46287425500772       -0.00000112173035
C           -3.32769755594936       -0.73141886666258        0.00000039887335
C           -4.71318517317761       -0.70993822072828        0.00000249981046
N           -2.46840120185282       -1.80294519436193       -0.00000016522599
C           -1.17254494235467       -1.35201512751732       -0.00000156708113
C           -0.00000031691091       -2.08954853185678       -0.00000318445554
C            1.17254455675345       -1.35201551645057       -0.00000258878888
N            2.46840066559132       -1.80294601641161       -0.00000127477611
C            3.32769737615213       -0.73141997441158       -0.00000012885894
C            4.71318500181198       -0.70993978589119        0.00000233099477
C            5.33766322069669        0.52434839428663        0.00000332798030
C            4.60243900629448        1.70724911901637        0.00000159313927
C            3.22019724600581        1.68947658272541       -0.00000087426558
C            2.56939825350433        0.46287339789740       -0.00000151979758
C            1.18451246106940        0.07146688579849       -0.00000273827052
C            0.00000016372601        0.79104469112442       -0.00000310857546
C           -1.18451237232535        0.07146728165879       -0.00000222629145
H           -6.41710476282976        0.57222660446525        0.00000464622749
H           -5.12551927364995        2.65271983846036        0.00000149372633
H           -2.65573184498131        2.61019371082438       -0.00000222888373
H           -5.28617340501210       -1.62578341284439        0.00000360814268
H           -2.74592074397174       -2.76967777583320       -0.00000045065250
H           -0.00000048780235       -3.16901418257493       -0.00000278768111
H            2.74591987858829       -2.76967869203861        0.00000001262969
H            5.28617293257259       -1.62578516623405        0.00000355125007
H            6.41710501388329        0.57222448355885        0.00000490556348
H            5.12552021750366        2.65271813492622        0.00000185318073
H            2.65573276316093        2.61019282228226       -0.00000206876183
H            0.00000034897373        1.86996979630903       -0.00000354237889

          :  Hamiltonian                  GFN2-xTB          :
         :: gradient norm              0.000055478480 Eh/a0 ::
         :: HOMO-LUMO gap              3.020852678784 eV    ::
         :: SCC energy               -51.527114353978 Eh    ::
         :: -> dispersion             -0.038267122930 Eh    ::
         :: -> Gsolv                  -0.020728096788 Eh    ::
         :: repulsion energy           0.942939701260 Eh    ::

    * Orbital Energies and Occupations

         #    Occupation            Energy/Eh            Energy/eV
      -------------------------------------------------------------
         1        2.0000           -0.6728613             -18.3095
       ...           ...                  ...                  ...
        35        2.0000           -0.4509741             -12.2716
        36        2.0000           -0.4473055             -12.1718
        37        2.0000           -0.4395605             -11.9610
        38        2.0000           -0.4282854             -11.6542
        39        2.0000           -0.4213318             -11.4650
        40        2.0000           -0.4168256             -11.3424
        41        2.0000           -0.4163413             -11.3292
        42        2.0000           -0.4129817             -11.2378
        43        2.0000           -0.4124845             -11.2243
        44        2.0000           -0.3922075             -10.6725
        45        2.0000           -0.3835574             -10.4371
        46        2.0000           -0.3602441              -9.8027
        47        2.0000           -0.3545944              -9.6490 (HOMO)
        48                         -0.2435801              -6.6282 (LUMO)
        49                         -0.2335942              -6.3564
        50                         -0.2103045              -5.7227
        51                         -0.1977996              -5.3824
        52                         -0.1797746              -4.8919
        53                         -0.1645333              -4.4772
        54                         -0.0884533              -2.4069
        55                         -0.0712012              -1.9375
        56                         -0.0466909              -1.2705
        57                          0.0068142               0.1854
        58                          0.0341067               0.9281
       ...                                ...                  ...
        92                          0.7614611              20.7204
      -------------------------------------------------------------
                  HL-Gap            0.1110143 Eh            3.0209 eV

     #   Z          covCN         q      C6AA      α(0)
     1   6 C        2.924    -0.036    28.906     8.817
     2   6 C        2.919    -0.045    29.107     8.847
     3   6 C        2.912    -0.036    28.907     8.816
     4   6 C        3.067    -0.017    28.365     8.733
     5   6 C        3.065     0.053    26.741     8.480
     6   6 C        2.909    -0.058    29.430     8.895
     7   7 N        2.754    -0.125    23.711     7.232
     8   6 C        3.070     0.054    26.726     8.477
     9   6 C        2.903    -0.086    30.166     9.006
    10   6 C        3.070     0.054    26.726     8.477
    11   7 N        2.754    -0.125    23.711     7.232
    12   6 C        3.065     0.053    26.741     8.480
    13   6 C        2.909    -0.058    29.430     8.895
    14   6 C        2.924    -0.036    28.906     8.817
    15   6 C        2.919    -0.045    29.107     8.847
    16   6 C        2.912    -0.036    28.907     8.816
    17   6 C        3.067    -0.017    28.365     8.733
    18   6 C        3.068    -0.026    28.586     8.767
    19   6 C        2.907    -0.038    28.947     8.822
    20   6 C        3.068    -0.026    28.586     8.767
    21   1 H        0.926     0.028     2.617     2.530
    22   1 H        0.926     0.025     2.654     2.547
    23   1 H        0.926     0.028     2.610     2.527
    24   1 H        0.926     0.026     2.639     2.540
    25   1 H        0.860     0.160     1.333     1.808
    26   1 H        0.926     0.027     2.623     2.532
    27   1 H        0.860     0.160     1.333     1.808
    28   1 H        0.926     0.026     2.639     2.540
    29   1 H        0.926     0.028     2.617     2.530
    30   1 H        0.926     0.025     2.654     2.547
    31   1 H        0.926     0.028     2.610     2.527
    32   1 H        0.926     0.033     2.542     2.493

molecular dipole:
                 x           y           z       tot (Debye)
 q only:       -0.000      -1.055       0.000
   full:       -0.000      -1.479       0.000       3.760

 projected vibrational frequencies (cm⁻¹)
eigval :       -0.00     0.00     0.00     0.00     0.00     0.00
eigval :       43.44    77.32   120.20   121.15   177.40   223.87
eigval :      227.11   265.25   305.59   334.08   355.83   394.17
eigval :      419.29   425.96   433.98   451.29   454.41   486.74
eigval :      529.33   535.11   543.08   560.57   561.90   609.27
eigval :      642.62   671.32   675.16   703.87   704.53   713.44
eigval :      770.41   771.69   798.09   806.04   810.79   856.84
eigval :      858.29   859.50   863.08   863.31   897.40   897.60
eigval :      919.00   919.10   982.68   995.61  1067.52  1068.19
eigval :     1124.93  1133.34  1136.50  1166.72  1176.90  1181.89
eigval :     1203.54  1204.76  1206.68  1226.43  1255.83  1271.64
eigval :     1302.63  1314.14  1348.60  1349.49  1366.65  1379.55
eigval :     1426.73  1430.58  1443.22  1482.56  1488.92  1528.23
eigval :     1570.95  1583.68  1588.17  1608.98  1611.49  1620.65
eigval :     3067.63  3067.65  3071.45  3071.45  3079.10  3079.29
eigval :     3081.06  3088.10  3088.22  3093.28  3482.46  3483.34

   temp. (K)  partition function   enthalpy   heat capacity  entropy
                                   cal/mol     cal/K/mol   cal/K/mol   J/K/mol
 298.15  VIB  0.624E+04             7163.039     54.249     40.342
         ROT  0.243E+07              888.752      2.981     32.202
         INT  0.152E+11             8051.792     57.230     72.545
         TR   0.397E+28             1481.254      4.968     42.504
         TOT                        9533.0456    62.1984   115.0488   481.3642

       T/K    H(0)-H(T)+PV         H(T)/Eh          T*S/Eh         G(T)/Eh
   ------------------------------------------------------------------------
    298.15    0.151919E-01    0.259548E+00    0.546634E-01    0.204884E+00
   ------------------------------------------------------------------------

         :::::::::::::::::::::::::::::::::::::::::::::::::::::
         ::                  THERMODYNAMIC                  ::
         :::::::::::::::::::::::::::::::::::::::::::::::::::::
         :: total free energy         -50.379290320197 Eh   ::
         ::.................................................::
         :: total energy              -50.584174652718 Eh   ::
         :: zero point energy           0.244355859740 Eh   ::
         :: G(RRHO) w/o ZPVE           -0.039471527219 Eh   ::
         :: G(RRHO) contrib.            0.204884332521 Eh   ::
         :::::::::::::::::::::::::::::::::::::::::::::::::::::

           -------------------------------------------------
          | TOTAL ENERGY              -50.584174652718 Eh   |
          | TOTAL ENTHALPY            -50.324626917736 Eh   |
          | TOTAL FREE ENERGY         -50.379290320197 Eh   |
          | GRADIENT NORM               0.000055464956 Eh/α |
          | HOMO-LUMO GAP               3.020852362018 eV   |
           -------------------------------------------------

 * finished run on 2025/08/30 at 17:38:29.972
