   * xtb version 6.7.1 (edcfbbe) compiled by 'albert@albert-system' on 2024-07-22

   ID    Z sym.   atoms
    1    6 C      1-6, 8-10, 12-20
    2    7 N      7, 11
    3    1 H      21-32

          program call               : xtb data2507/toluene/BBCz/BBCz_toluene_S0_crest.xyz --gfn 2 --gbsa toluene --ohess vtight --parallel 40 --molden --ceasefiles --namespace data2507/toluene/BBCz/BBCz_toluene_S0_finalOpt
      * Solvation model:               GBSA
        Solvent                        toluene
        Solvent mass                       9.2140E+01 g/mol
          :  Hamiltonian                  GFN2-xTB          :
 * total energy  :   -50.5841668 Eh     change       -0.1733298E-09 Eh
 * total energy  :   -50.5841730 Eh     change       -0.6279482E-05 Eh
 * total energy  :   -50.5841739 Eh     change       -0.8560190E-06 Eh
 * total energy  :   -50.5841739 Eh     change       -0.3612440E-07 Eh
 * total energy  :   -50.5841744 Eh     change       -0.4963824E-06 Eh
 * total energy  :   -50.5841746 Eh     change       -0.1484497E-06 Eh
 * total energy  :   -50.5841745 Eh     change        0.5574847E-07 Eh
 * total energy  :   -50.5841746 Eh     change       -0.9836860E-07 Eh
   *** GEOMETRY OPTIMIZATION CONVERGED AFTER 8 ITERATIONS ***

 final structure:
================
32
 xtb: 6.7.1 (edcfbbe)
C           -5.33760533987587        0.62066248835071       -0.00149332645959
C           -4.60236588455569        1.80355292723815       -0.00087865175660
C           -3.22010611839770        1.78574671683278        0.00013907254284
C           -2.56934460949572        0.55913380877601        0.00043685307688
C           -3.32765832963437       -0.63515749090259       -0.00022989312512
C           -4.71312277138622       -0.61365398002977       -0.00114767461974
N           -2.46838473506680       -1.70669002328766       -0.00008943773355
C           -1.17254735859797       -1.25578382327243        0.00028673378312
C            0.00000102242328       -1.99331080456115       -0.00017506447396
C            1.17255635445586       -1.25579358008154       -0.00010969890267
N            2.46838954443510       -1.70671102235723       -0.00102067316372
C            3.32767121379774       -0.63518691904155       -0.00104005370584
C            4.71313623806151       -0.61369338840190       -0.00226459751730
C            5.33762920291466        0.62062035702012       -0.00194893825530
C            4.60239923027418        1.80351873518854       -0.00035656353222
C            3.22013789797038        1.78572205500490        0.00078451952064
C            2.56936789752731        0.55911254794445        0.00034270485606
C            1.18451077463087        0.16770184431477        0.00082656658119
C            0.00001267654763        0.88730142972380        0.00137149971059
C           -1.18449106637199        0.16771138422135        0.00090149920197
H           -6.41703842499735        0.66853163172889       -0.00238068736205
H           -5.12539905875303        2.74904250577412       -0.00123366591939
H           -2.65563699869612        2.70646788007786        0.00066266121090
H           -5.28616896500549       -1.52946643487692       -0.00173248892885
H           -2.74591462985979       -2.67341983024348       -0.00081099325626
H           -0.00000456782059       -3.07278632768711       -0.00075698056691
H            2.74589842017944       -2.67344538133805       -0.00238591694099
H            5.28617664043784       -1.52951091247370       -0.00348975400399
H            6.41706276089078        0.66848121838655       -0.00290938291597
H            5.12544115686926        2.74900675861307       -0.00001016784477
H            2.65567403122263        2.70644462279990        0.00200862837895
H            0.00001708517624        1.96622923165910        0.00188823472168

          :  Hamiltonian                  GFN2-xTB          :
         :: gradient norm              0.000047663274 Eh/a0 ::
         :: HOMO-LUMO gap              3.020835480782 eV    ::
         :: SCC energy               -51.527116755970 Eh    ::
         :: -> dispersion             -0.038267327581 Eh    ::
         :: -> Gsolv                  -0.020728090559 Eh    ::
         :: repulsion energy           0.942942141093 Eh    ::

    * Orbital Energies and Occupations

         #    Occupation            Energy/Eh            Energy/eV
      -------------------------------------------------------------
         1        2.0000           -0.6728653             -18.3096
       ...           ...                  ...                  ...
        35        2.0000           -0.4509729             -12.2716
        36        2.0000           -0.4473075             -12.1719
        37        2.0000           -0.4395597             -11.9610
        38        2.0000           -0.4282852             -11.6542
        39        2.0000           -0.4213322             -11.4650
        40        2.0000           -0.4168259             -11.3424
        41        2.0000           -0.4163409             -11.3292
        42        2.0000           -0.4129806             -11.2378
        43        2.0000           -0.4124831             -11.2242
        44        2.0000           -0.3922047             -10.6724
        45        2.0000           -0.3835587             -10.4372
        46        2.0000           -0.3602397              -9.8026
        47        2.0000           -0.3545944              -9.6490 (HOMO)
        48                         -0.2435807              -6.6282 (LUMO)
        49                         -0.2335958              -6.3565
        50                         -0.2103035              -5.7227
        51                         -0.1977991              -5.3824
        52                         -0.1797736              -4.8919
        53                         -0.1645301              -4.4771
        54                         -0.0884528              -2.4069
        55                         -0.0712005              -1.9375
        56                         -0.0466886              -1.2705
        57                          0.0068265               0.1858
        58                          0.0341137               0.9283
       ...                                ...                  ...
        92                          0.7614899              20.7212
      -------------------------------------------------------------
                  HL-Gap            0.1110137 Eh            3.0208 eV

     #   Z          covCN         q      C6AA      α(0)
     1   6 C        2.924    -0.036    28.906     8.817
     2   6 C        2.919    -0.045    29.107     8.847
     3   6 C        2.912    -0.036    28.907     8.816
     4   6 C        3.067    -0.017    28.365     8.733
     5   6 C        3.065     0.053    26.741     8.480
     6   6 C        2.909    -0.058    29.430     8.896
     7   7 N        2.754    -0.125    23.711     7.232
     8   6 C        3.070     0.054    26.726     8.477
     9   6 C        2.903    -0.086    30.166     9.006
    10   6 C        3.070     0.054    26.726     8.477
    11   7 N        2.754    -0.125    23.711     7.232
    12   6 C        3.065     0.053    26.741     8.480
    13   6 C        2.909    -0.058    29.430     8.896
    14   6 C        2.924    -0.036    28.906     8.817
    15   6 C        2.919    -0.045    29.107     8.847
    16   6 C        2.912    -0.036    28.907     8.816
    17   6 C        3.067    -0.017    28.365     8.733
    18   6 C        3.068    -0.026    28.586     8.767
    19   6 C        2.907    -0.038    28.947     8.822
    20   6 C        3.068    -0.026    28.586     8.767
    21   1 H        0.926     0.028     2.617     2.530
    22   1 H        0.926     0.025     2.654     2.547
    23   1 H        0.926     0.028     2.610     2.527
    24   1 H        0.926     0.026     2.639     2.540
    25   1 H        0.860     0.160     1.332     1.808
    26   1 H        0.926     0.027     2.623     2.533
    27   1 H        0.860     0.160     1.332     1.808
    28   1 H        0.926     0.026     2.639     2.540
    29   1 H        0.926     0.028     2.617     2.530
    30   1 H        0.926     0.025     2.654     2.547
    31   1 H        0.926     0.028     2.610     2.527
    32   1 H        0.926     0.033     2.542     2.493

molecular dipole:
                 x           y           z       tot (Debye)
 q only:       -0.000      -1.055      -0.001
   full:       -0.000      -1.479      -0.001       3.760

 projected vibrational frequencies (cm⁻¹)
eigval :       -0.00    -0.00     0.00     0.00     0.00     0.00
eigval :       43.30    76.68   119.88   121.15   177.08   223.87
eigval :      226.94   265.23   305.59   334.03   355.70   394.39
eigval :      419.53   426.20   433.99   451.29   454.32   486.74
eigval :      529.33   534.98   542.92   560.57   561.90   609.27
eigval :      642.59   671.33   675.12   703.84   704.54   713.44
eigval :      770.71   771.90   798.11   806.03   810.98   856.79
eigval :      858.29   859.50   863.09   863.40   897.59   897.69
eigval :      919.02   919.12   982.68   995.61  1067.50  1068.17
eigval :     1124.92  1133.36  1136.49  1166.72  1176.90  1181.88
eigval :     1203.55  1204.76  1206.68  1226.45  1255.84  1271.64
eigval :     1302.62  1314.13  1348.62  1349.47  1366.65  1379.55
eigval :     1426.71  1430.58  1443.22  1482.54  1488.91  1528.26
eigval :     1570.95  1583.68  1588.19  1608.99  1611.50  1620.67
eigval :     3067.65  3067.67  3071.42  3071.44  3079.08  3079.28
eigval :     3080.96  3088.11  3088.22  3093.25  3482.46  3483.34

   temp. (K)  partition function   enthalpy   heat capacity  entropy
                                   cal/mol     cal/K/mol   cal/K/mol   J/K/mol
 298.15  VIB  0.632E+04             7164.603     54.241     40.362
         ROT  0.243E+07              888.752      2.981     32.202
         INT  0.154E+11             8053.355     57.222     72.564
         TR   0.397E+28             1481.254      4.968     42.504
         TOT                        9534.6091    62.1904   115.0685   481.4466

       T/K    H(0)-H(T)+PV         H(T)/Eh          T*S/Eh         G(T)/Eh
   ------------------------------------------------------------------------
    298.15    0.151944E-01    0.259549E+00    0.546728E-01    0.204876E+00
   ------------------------------------------------------------------------

         :::::::::::::::::::::::::::::::::::::::::::::::::::::
         ::                  THERMODYNAMIC                  ::
         :::::::::::::::::::::::::::::::::::::::::::::::::::::
         :: total free energy         -50.379298450802 Eh   ::
         ::.................................................::
         :: total energy              -50.584174614894 Eh   ::
         :: zero point energy           0.244354555544 Eh   ::
         :: G(RRHO) w/o ZPVE           -0.039478391452 Eh   ::
         :: G(RRHO) contrib.            0.204876164092 Eh   ::
         :::::::::::::::::::::::::::::::::::::::::::::::::::::

           -------------------------------------------------
          | TOTAL ENERGY              -50.584174614894 Eh   |
          | TOTAL ENTHALPY            -50.324625692584 Eh   |
          | TOTAL FREE ENERGY         -50.379298450802 Eh   |
          | GRADIENT NORM               0.000047705452 Eh/α |
          | HOMO-LUMO GAP               3.020835400463 eV   |
           -------------------------------------------------

 * finished run on 2025/08/30 at 17:39:08.958
