   * xtb version 6.7.1 (edcfbbe) compiled by 'albert@albert-system' on 2024-07-22

   ID    Z sym.   atoms
    1    6 C      1-6, 8-10, 12-20
    2    7 N      7, 11
    3    1 H      21-32

          program call               : xtb data2507/toluene/BBCz/BBCz_toluene_S0_finalOpt.xtbopt.xyz --gfn 2 --uhf 2 --gbsa toluene --ohess vtight --parallel 40 --molden --ceasefiles --namespace data2507/toluene/BBCz/BBCz_toluene_T1_preOpt
      * Solvation model:               GBSA
        Solvent                        toluene
        Solvent mass                       9.2140E+01 g/mol
          :  Hamiltonian                  GFN2-xTB          :
 * total energy  :   -50.4694298 Eh     change       -0.1467981E-09 Eh
 * total energy  :   -50.4738508 Eh     change       -0.4420943E-02 Eh
 * total energy  :   -50.4749410 Eh     change       -0.1090220E-02 Eh
 * total energy  :   -50.4749991 Eh     change       -0.5806464E-04 Eh
 * total energy  :   -50.4750344 Eh     change       -0.3531420E-04 Eh
 * total energy  :   -50.4750414 Eh     change       -0.7052674E-05 Eh
 * total energy  :   -50.4750447 Eh     change       -0.3234652E-05 Eh
 * total energy  :   -50.4750454 Eh     change       -0.7648771E-06 Eh
 * total energy  :   -50.4750456 Eh     change       -0.2080422E-06 Eh
 * total energy  :   -50.4750457 Eh     change       -0.7356223E-07 Eh
   *** GEOMETRY OPTIMIZATION CONVERGED AFTER 10 ITERATIONS ***

 final structure:
================
32
 xtb: 6.7.1 (edcfbbe)
C           -5.36619951951580        0.58911614189017       -0.00096354187420
C           -4.62380650683158        1.79019979380996       -0.00029995600050
C           -3.25298868105945        1.79614495317127        0.00025533535135
C           -2.57062389327507        0.56662839783706        0.00011665145450
C           -3.34629146160896       -0.64974965887852       -0.00054102118733
C           -4.73041003952422       -0.63944531020228       -0.00106890729593
N           -2.47234788069810       -1.69329262833854       -0.00067262678924
C           -1.18306245327064       -1.22258163498658       -0.00023541509957
C           -0.00000653352348       -1.97674594006026       -0.00052612129799
C            1.18306271669521       -1.22260078422223       -0.00037424894793
N            2.47234676362784       -1.69333631475976       -0.00097340841719
C            3.34630003969141       -0.64980787775058       -0.00087267441265
C            4.73041777856897       -0.63953223332169       -0.00155449586643
C            5.36621803078648        0.58900773101236       -0.00139105088098
C            4.62384619789113        1.79010040277015       -0.00050570200439
C            3.25303112876822        1.79607604361916        0.00016998213358
C            2.57064814811167        0.56657952951601       -0.00005273009374
C            1.20863158599014        0.18757932676220        0.00022686518297
C            0.00001706012707        0.93610944341312        0.00073089661669
C           -1.20860992590890        0.18759796152630        0.00030982548845
H           -6.44434438127970        0.63699420223632       -0.00141216149277
H           -5.16367255491476        2.72680103351205       -0.00024394662372
H           -2.69869589879240        2.72265758597955        0.00074502956027
H           -5.29511663932716       -1.56061283787147       -0.00159559669635
H           -2.73013176543407       -2.66780414510115       -0.00109377932880
H           -0.00001438763169       -3.05456204260493       -0.00100994954985
H            2.73011905468881       -2.66785168195841       -0.00149245558901
H            5.29511611845416       -1.56070681024097       -0.00223390464807
H            6.44436491965620        0.63686218614519       -0.00195448734730
H            5.16373099622312        2.72669426434166       -0.00037574165460
H            2.69875657802393        2.72260131218559        0.00083068056106
H            0.00002476469770        2.01125778473803        0.00123764205183

          :  Hamiltonian                  GFN2-xTB          :
         :: gradient norm              0.000117478550 Eh/a0 ::
         :: HOMO-LUMO gap              0.388534226981 eV    ::
         :: SCC energy               -51.395228353536 Eh    ::
         :: -> dispersion             -0.038160784307 Eh    ::
         :: -> Gsolv                  -0.021477200527 Eh    ::
         :: repulsion energy           0.920182630660 Eh    ::

    * Orbital Energies and Occupations

         #    Occupation            Energy/Eh            Energy/eV
      -------------------------------------------------------------
         1        2.0000           -0.6773201             -18.4308
       ...           ...                  ...                  ...
        36        2.0000           -0.4449577             -12.1079
        37        2.0000           -0.4394793             -11.9588
        38        2.0000           -0.4270238             -11.6199
        39        2.0000           -0.4217618             -11.4767
        40        2.0000           -0.4173613             -11.3570
        41        2.0000           -0.4144738             -11.2784
        42        2.0000           -0.4115010             -11.1975
        43        2.0000           -0.4102179             -11.1626
        44        2.0000           -0.3888927             -10.5823
        45        2.0000           -0.3828016             -10.4166
        46        1.9861           -0.3609549              -9.8221
        47        1.0139           -0.3528518              -9.6016
        48        0.9995           -0.2469046              -6.7186 (HOMO)
        49        0.0005           -0.2326263              -6.3301 (LUMO)
        50                         -0.2088211              -5.6823
        51                         -0.2000321              -5.4432
        52                         -0.1843465              -5.0163
        53                         -0.1595464              -4.3415
        54                         -0.0936279              -2.5477
        55                         -0.0736938              -2.0053
        56                         -0.0484172              -1.3175
        57                          0.0027009               0.0735
        58                          0.0291254               0.7925
        59                          0.0953945               2.5958
       ...                                ...                  ...
        92                          0.7494681              20.3941
      -------------------------------------------------------------
                  HL-Gap            0.0142783 Eh            0.3885 eV

     #   Z          covCN         q      C6AA      α(0)
     1   6 C        2.921    -0.048    29.203     8.862
     2   6 C        2.916    -0.035    28.874     8.811
     3   6 C        2.906    -0.042    29.054     8.838
     4   6 C        3.083    -0.017    28.346     8.728
     5   6 C        3.062     0.049    26.852     8.498
     6   6 C        2.904    -0.055    29.368     8.886
     7   7 N        2.759    -0.093    23.053     7.131
     8   6 C        3.083     0.046    26.869     8.498
     9   6 C        2.900    -0.078    29.959     8.975
    10   6 C        3.083     0.046    26.869     8.498
    11   7 N        2.759    -0.093    23.053     7.131
    12   6 C        3.062     0.049    26.852     8.498
    13   6 C        2.904    -0.055    29.368     8.886
    14   6 C        2.921    -0.048    29.203     8.862
    15   6 C        2.916    -0.035    28.874     8.811
    16   6 C        2.906    -0.042    29.053     8.838
    17   6 C        3.083    -0.017    28.345     8.728
    18   6 C        3.054    -0.027    28.616     8.773
    19   6 C        2.901    -0.069    29.706     8.937
    20   6 C        3.054    -0.027    28.616     8.773
    21   1 H        0.926     0.024     2.666     2.554
    22   1 H        0.926     0.025     2.656     2.548
    23   1 H        0.926     0.026     2.649     2.545
    24   1 H        0.926     0.026     2.639     2.541
    25   1 H        0.860     0.169     1.282     1.773
    26   1 H        0.926     0.033     2.549     2.497
    27   1 H        0.860     0.169     1.282     1.773
    28   1 H        0.926     0.026     2.639     2.541
    29   1 H        0.926     0.024     2.666     2.554
    30   1 H        0.926     0.025     2.656     2.548
    31   1 H        0.926     0.026     2.649     2.545
    32   1 H        0.926     0.020     2.732     2.585

molecular dipole:
                 x           y           z       tot (Debye)
 q only:        0.000      -1.508      -0.001
   full:        0.000      -1.962      -0.001       4.986

 projected vibrational frequencies (cm⁻¹)
eigval :       -0.00    -0.00     0.00     0.00     0.00     0.00
eigval :     -125.90    38.73    73.93   117.63   118.64   163.41
eigval :      194.32   261.52   286.96   296.03   323.25   323.26
eigval :      360.56   402.31   415.47   449.73   489.73   494.92
eigval :      503.14   523.29   524.40   529.04   551.29   552.59
eigval :      584.47   596.86   615.28   638.74   672.33   672.52
eigval :      693.64   697.97   707.53   737.92   738.79   790.52
eigval :      822.37   834.96   834.99   845.32   868.14   868.20
eigval :      901.16   901.37   905.78   965.89   968.22  1038.36
eigval :     1039.93  1123.50  1124.56  1133.50  1148.79  1155.09
eigval :     1161.57  1187.94  1190.72  1205.02  1226.80  1232.90
eigval :     1263.91  1305.74  1308.93  1343.57  1359.58  1364.65
eigval :     1370.81  1391.04  1396.66  1430.84  1432.26  1460.72
eigval :     1496.10  1500.39  1513.24  1517.09  1551.31  1593.54
eigval :     3066.12  3066.30  3068.30  3068.50  3082.43  3082.50
eigval :     3091.92  3092.30  3095.26  3124.83  3448.48  3450.94

   temp. (K)  partition function   enthalpy   heat capacity  entropy
                                   cal/mol     cal/K/mol   cal/K/mol   J/K/mol
 298.15  VIB  0.912E+04             7388.204     55.687     41.599
         ROT  0.245E+07              888.752      2.981     32.214
         INT  0.223E+11             8276.957     58.668     73.814
         TR   0.397E+28             1481.254      4.968     42.504
         TOT                        9758.2106    63.6362   116.3177   486.6734

       T/K    H(0)-H(T)+PV         H(T)/Eh          T*S/Eh         G(T)/Eh
   ------------------------------------------------------------------------
    298.15    0.155507E-01    0.252854E+00    0.552663E-01    0.197588E+00
   ------------------------------------------------------------------------

         :::::::::::::::::::::::::::::::::::::::::::::::::::::
         ::                  THERMODYNAMIC                  ::
         :::::::::::::::::::::::::::::::::::::::::::::::::::::
         :: total free energy         -50.277458196162 Eh   ::
         ::.................................................::
         :: total energy              -50.475045722874 Eh   ::
         :: zero point energy           0.237303138693 Eh   ::
         :: G(RRHO) w/o ZPVE           -0.039715611982 Eh   ::
         :: G(RRHO) contrib.            0.197587526711 Eh   ::
         :::::::::::::::::::::::::::::::::::::::::::::::::::::

           -------------------------------------------------
          | TOTAL ENERGY              -50.475045722874 Eh   |
          | TOTAL ENTHALPY            -50.222191885756 Eh   |
          | TOTAL FREE ENERGY         -50.277458196162 Eh   |
          | GRADIENT NORM               0.000117310448 Eh/α |
          | HOMO-LUMO GAP               0.388533222578 eV   |
           -------------------------------------------------

 * finished run on 2025/08/30 at 17:39:09.819
