   * xtb version 6.7.1 (edcfbbe) compiled by 'albert@albert-system' on 2024-07-22

   ID    Z sym.   atoms
    1    6 C      1, 3-7, 9-15, 17-32
    2    7 N      2, 8, 16
    3    1 H      33-57

          program call               : xtb data2507/toluene/InDM/InDM_toluene_S0_finalOpt.xtbopt.xyz --gfn 2 --uhf 2 --gbsa toluene --ohess vtight --parallel 40 --molden --ceasefiles --namespace data2507/toluene/InDM/InDM_toluene_T1_preOpt
      * Solvation model:               GBSA
        Solvent                        toluene
        Solvent mass                       9.2140E+01 g/mol
          :  Hamiltonian                  GFN2-xTB          :
 * total energy  :   -83.5592105 Eh     change       -0.7078000E-09 Eh
 * total energy  :   -83.5654984 Eh     change       -0.6287832E-02 Eh
 * total energy  :   -83.5680832 Eh     change       -0.2584798E-02 Eh
 * total energy  :   -83.5688748 Eh     change       -0.7916682E-03 Eh
 * total energy  :   -83.5696766 Eh     change       -0.8017798E-03 Eh
 * total energy  :   -83.5701886 Eh     change       -0.5119720E-03 Eh
 * total energy  :   -83.5705217 Eh     change       -0.3331016E-03 Eh
 * total energy  :   -83.5707779 Eh     change       -0.2561773E-03 Eh
 * total energy  :   -83.5710118 Eh     change       -0.2339386E-03 Eh
 * total energy  :   -83.5712086 Eh     change       -0.1967610E-03 Eh
 * total energy  :   -83.5717720 Eh     change       -0.1705816E-05 Eh
 * total energy  :   -83.5717729 Eh     change       -0.9010025E-06 Eh
 * total energy  :   -83.5717737 Eh     change       -0.7856477E-06 Eh
 * total energy  :   -83.5717743 Eh     change       -0.5350921E-06 Eh
 * total energy  :   -83.5717749 Eh     change       -0.6317128E-06 Eh
 * total energy  :   -83.5717756 Eh     change       -0.7457477E-06 Eh
 * total energy  :   -83.5717759 Eh     change       -0.2422362E-06 Eh
 * total energy  :   -83.5717762 Eh     change       -0.3137047E-06 Eh
 * total energy  :   -83.5717763 Eh     change       -0.8739413E-07 Eh
   *** GEOMETRY OPTIMIZATION CONVERGED AFTER 46 ITERATIONS ***

 final structure:
================
57
 xtb: 6.7.1 (edcfbbe)
C            6.33472371666455        0.78493700523254        0.91372741298004
N            5.31926960663187        1.51102780938157        0.19322198928925
C            5.72349295282881        2.72384453527274       -0.47261804914379
C            4.02949442518841        1.06775296670394        0.14439720482583
C            3.11238249336804        1.58565086263919       -0.79275121364315
C            1.81383616460956        1.14271005685472       -0.84276959113662
C            1.35820099572746        0.15297306706625        0.04027397369463
N            0.05045784998377       -0.29863771328495        0.00868878094840
C           -0.35676797198429       -1.66419098869278        0.00380040432752
C            0.46816403478450       -2.80297949369223       -0.12128148758160
C            1.78506891332221       -2.79234529810292       -0.64663940005720
C            2.51623556959321       -3.95389166003436       -0.72175408148379
C            1.98086940147011       -5.16734246031047       -0.30106542855847
C            0.66693054681025       -5.20624596922699        0.17109097100322
C           -0.07888780081501       -4.05993947033241        0.25071616437341
N           -1.68549288728396       -1.74337706227051        0.04120501052611
C           -2.17760205010797       -0.50697296412110       -0.01169893092332
C           -3.59932026369590       -0.29115410563658        0.12840211810075
C           -4.13038872813828        0.83850240914373        0.76354554794384
C           -5.49673380354169        0.98555099941901        0.89539459269042
C           -6.35994914181469        0.01704447947286        0.40479608841238
C           -5.84362062706617       -1.11928621492949       -0.20403041258182
C           -4.48009917897859       -1.27769408055098       -0.33351966492811
C           -1.11154701917532        0.45435182480002       -0.08696025910165
C           -1.19955243877571        1.87178194691364       -0.16960165624875
C           -2.23475685638183        2.46769644135698       -0.92871988952247
C           -2.35303805690162        3.83420736340545       -1.01450230942813
C           -1.45563929224426        4.66680625416847       -0.35189961600505
C           -0.43498178259402        4.09990412478816        0.40598745326146
C           -0.29885226303117        2.73506886850499        0.49590236700124
C            2.26474872804078       -0.37136063321006        0.97607807550567
C            3.56211503236227        0.07367236950252        1.02674805003295
H            6.32619044704594        1.02817163625042        1.98207091984106
H            7.31206060742879        1.04190057586188        0.50931379332608
H            6.19106972298254       -0.28950940582789        0.79775222952655
H            5.94673029250346        2.55005207524422       -1.53120884899058
H            6.61839973867917        3.11414232665339        0.00886429214898
H            4.94155692804007        3.47976615073425       -0.39845746095835
H            3.42920629057777        2.32250696384597       -1.51220826794457
H            1.13763765962425        1.54109192586355       -1.58406944804947
H            2.19677526543065       -1.87856668896148       -1.04448168652436
H            3.51671765989803       -3.92477124704851       -1.13079062407812
H            2.56590332673296       -6.07250370340383       -0.36006774018933
H            0.23747813206174       -6.14946579137504        0.47823844429831
H           -1.09178110913824       -4.07449784639549        0.62243602954620
H           -3.46616816809151        1.58287259568125        1.17579040292030
H           -5.89278813790456        1.86097101400513        1.39002204388947
H           -7.42813117815274        0.14162941893502        0.50494498089406
H           -6.51142661761771       -1.88176359120953       -0.57848655738016
H           -4.06385294663045       -2.15591745178628       -0.80365221111562
H           -2.92012312693420        1.82947001019984       -1.46745187064608
H           -3.14581709830274        4.26475481898541       -1.61035660742309
H           -1.55067201176243        5.73972410714406       -0.42456849964074
H            0.25582560559385        4.73979884699789        0.93758522440157
H            0.47734172585132        2.31454807749594        1.11778107500708
H            1.92277025352737       -1.12121398291174        1.67411028173116
H            4.21418115215133       -0.33409957280266        1.78116192961990

          :  Hamiltonian                  GFN2-xTB          :
         :: gradient norm              0.000116147277 Eh/a0 ::
         :: HOMO-LUMO gap              0.426626018803 eV    ::
         :: SCC energy               -85.064662847869 Eh    ::
         :: -> dispersion             -0.074024510737 Eh    ::
         :: -> Gsolv                  -0.039050536731 Eh    ::
         :: repulsion energy           1.492886563573 Eh    ::

    * Orbital Energies and Occupations

         #    Occupation            Energy/Eh            Energy/eV
      -------------------------------------------------------------
         1        2.0000           -0.6752267             -18.3739
       ...           ...                  ...                  ...
        67        2.0000           -0.4187385             -11.3945
        68        2.0000           -0.4140382             -11.2666
        69        2.0000           -0.4112440             -11.1905
        70        2.0000           -0.4105324             -11.1712
        71        2.0000           -0.4047720             -11.0144
        72        2.0000           -0.3987381             -10.8502
        73        2.0000           -0.3980881             -10.8325
        74        2.0000           -0.3947205             -10.7409
        75        2.0000           -0.3920196             -10.6674
        76        2.0000           -0.3778729             -10.2824
        77        1.9829           -0.3551174              -9.6632
        78        1.0171           -0.3474147              -9.4536
        79        0.9997           -0.2612844              -7.1099 (HOMO)
        80        0.0003           -0.2456062              -6.6833 (LUMO)
        81                         -0.2273753              -6.1872
        82                         -0.2216965              -6.0327
        83                         -0.2177990              -5.9266
        84                         -0.2132506              -5.8028
        85                         -0.2117360              -5.7616
        86                         -0.2104144              -5.7257
        87                         -0.1649541              -4.4886
        88                         -0.1496545              -4.0723
        89                         -0.0955718              -2.6006
        90                         -0.0879042              -2.3920
       ...                                ...                  ...
       153                          0.7031406              19.1334
      -------------------------------------------------------------
                  HL-Gap            0.0156782 Eh            0.4266 eV

     #   Z          covCN         q      C6AA      α(0)
     1   6 C        3.697    -0.059    21.814     6.681
     2   7 N        2.735    -0.042    22.060     6.976
     3   6 C        3.697    -0.059    21.812     6.681
     4   6 C        2.911     0.057    26.730     8.478
     5   6 C        2.920    -0.055    29.377     8.888
     6   6 C        2.916    -0.043    29.059     8.840
     7   6 C        2.906     0.054    26.783     8.486
     8   7 N        2.809    -0.071    22.622     7.064
     9   6 C        3.106     0.131    25.013     8.195
    10   6 C        2.969    -0.013    28.334     8.731
    11   6 C        2.916    -0.044    29.092     8.845
    12   6 C        2.914    -0.033    28.817     8.803
    13   6 C        2.917    -0.042    29.042     8.837
    14   6 C        2.913    -0.033    28.818     8.803
    15   6 C        2.926    -0.036    28.896     8.816
    16   7 N        1.885    -0.309    28.867     7.965
    17   6 C        3.132     0.081    26.002     8.348
    18   6 C        2.974     0.006    27.889     8.663
    19   6 C        2.921    -0.034    28.839     8.806
    20   6 C        2.917    -0.030    28.745     8.792
    21   6 C        2.919    -0.031    28.767     8.795
    22   6 C        2.916    -0.030    28.753     8.793
    23   6 C        2.926    -0.028    28.708     8.787
    24   6 C        3.010     0.014    27.688     8.632
    25   6 C        2.965    -0.009    28.235     8.716
    26   6 C        2.923    -0.041    29.021     8.834
    27   6 C        2.914    -0.034    28.836     8.806
    28   6 C        2.917    -0.045    29.108     8.847
    29   6 C        2.914    -0.034    28.839     8.806
    30   6 C        2.919    -0.043    29.058     8.840
    31   6 C        2.918    -0.042    29.051     8.839
    32   6 C        2.919    -0.058    29.441     8.898
    33   1 H        0.924     0.058     2.225     2.333
    34   1 H        0.925     0.069     2.096     2.264
    35   1 H        0.925     0.064     2.157     2.297
    36   1 H        0.924     0.058     2.226     2.333
    37   1 H        0.925     0.069     2.097     2.265
    38   1 H        0.925     0.063     2.161     2.299
    39   1 H        0.926     0.045     2.379     2.412
    40   1 H        0.926     0.032     2.563     2.503
    41   1 H        0.926     0.023     2.687     2.564
    42   1 H        0.925     0.027     2.631     2.536
    43   1 H        0.926     0.027     2.636     2.539
    44   1 H        0.926     0.028     2.615     2.529
    45   1 H        0.926     0.038     2.474     2.460
    46   1 H        0.926     0.030     2.587     2.515
    47   1 H        0.926     0.034     2.533     2.489
    48   1 H        0.926     0.036     2.505     2.475
    49   1 H        0.926     0.036     2.502     2.474
    50   1 H        0.926     0.043     2.403     2.424
    51   1 H        0.926     0.017     2.779     2.607
    52   1 H        0.926     0.022     2.706     2.573
    53   1 H        0.926     0.022     2.708     2.573
    54   1 H        0.925     0.023     2.692     2.566
    55   1 H        0.926     0.017     2.775     2.605
    56   1 H        0.926     0.031     2.576     2.510
    57   1 H        0.926     0.045     2.382     2.414

molecular dipole:
                 x           y           z       tot (Debye)
 q only:        3.317       1.165       0.165
   full:        3.442       1.465       0.140       9.514

 projected vibrational frequencies (cm⁻¹)
eigval :       -0.00    -0.00     0.00     0.00     0.00     0.00
eigval :       18.77    25.00    40.10    41.78    45.03    51.15
eigval :       60.37    63.25    76.78    94.04   104.20   112.56
eigval :      126.94   140.53   143.73   165.06   189.25   195.73
eigval :      209.49   226.95   240.17   246.98   255.45   282.89
eigval :      315.02   338.26   368.58   375.04   378.87   383.64
eigval :      392.54   409.63   421.28   435.18   449.52   476.68
eigval :      481.55   484.96   498.75   578.50   579.10   581.77
eigval :      584.65   591.88   600.96   621.22   637.68   644.23
eigval :      645.90   650.95   666.64   668.39   671.63   731.11
eigval :      732.28   744.31   755.41   777.93   796.74   829.96
eigval :      839.09   852.25   857.78   862.70   866.82   895.09
eigval :      897.70   908.25   912.65   913.99   917.38   918.95
eigval :      920.71   922.69   924.10   925.75   946.76   959.88
eigval :      972.27   984.06  1004.30  1046.36  1052.33  1065.62
eigval :     1071.43  1077.29  1083.60  1089.95  1104.64  1117.35
eigval :     1119.29  1121.49  1151.04  1157.06  1161.63  1171.74
eigval :     1175.62  1176.74  1181.00  1193.96  1198.86  1213.74
eigval :     1246.74  1258.05  1260.68  1274.24  1274.72  1280.26
eigval :     1284.05  1318.41  1322.33  1328.49  1330.79  1333.06
eigval :     1341.27  1369.75  1402.78  1408.10  1410.46  1413.08
eigval :     1417.77  1422.75  1427.89  1430.95  1438.54  1462.15
eigval :     1468.04  1473.69  1481.05  1484.73  1487.53  1489.93
eigval :     1491.16  1501.70  1526.73  1548.73  1553.05  1563.03
eigval :     1571.61  1598.74  2924.65  2926.00  3002.49  3004.80
eigval :     3024.38  3029.87  3060.94  3062.40  3062.70  3066.22
eigval :     3068.80  3071.98  3077.37  3083.06  3084.73  3085.07
eigval :     3086.74  3089.36  3091.34  3093.13  3096.31  3098.67
eigval :     3101.86  3113.94  3116.21

   temp. (K)  partition function   enthalpy   heat capacity  entropy
                                   cal/mol     cal/K/mol   cal/K/mol   J/K/mol
 298.15  VIB  0.885E+12            16033.773    100.234    100.062
         ROT  0.239E+08              888.752      2.981     36.743
         INT  0.211E+20            16922.525    103.215    136.805
         TR   0.820E+28             1481.254      4.968     43.944
         TOT                       18403.7793   108.1832   180.7493   756.2549

       T/K    H(0)-H(T)+PV         H(T)/Eh          T*S/Eh         G(T)/Eh
   ------------------------------------------------------------------------
    298.15    0.293283E-01    0.477241E+00    0.858798E-01    0.391361E+00
   ------------------------------------------------------------------------

         :::::::::::::::::::::::::::::::::::::::::::::::::::::
         ::                  THERMODYNAMIC                  ::
         :::::::::::::::::::::::::::::::::::::::::::::::::::::
         :: total free energy         -83.180415183478 Eh   ::
         ::.................................................::
         :: total energy              -83.571776283601 Eh   ::
         :: zero point energy           0.447912620866 Eh   ::
         :: G(RRHO) w/o ZPVE           -0.056551520743 Eh   ::
         :: G(RRHO) contrib.            0.391361100123 Eh   ::
         :::::::::::::::::::::::::::::::::::::::::::::::::::::

           -------------------------------------------------
          | TOTAL ENERGY              -83.571776283601 Eh   |
          | TOTAL ENTHALPY            -83.094535373622 Eh   |
          | TOTAL FREE ENERGY         -83.180415183478 Eh   |
          | GRADIENT NORM               0.000115393125 Eh/α |
          | HOMO-LUMO GAP               0.426624872764 eV   |
           -------------------------------------------------

 * finished run on 2025/08/24 at 04:57:04.944
