   * xtb version 6.7.1 (edcfbbe) compiled by 'albert@albert-system' on 2024-07-22

   ID    Z sym.   atoms
    1    6 C      1, 3-7, 9-15, 17-32
    2    7 N      2, 8, 16
    3    1 H      33-57

          program call               : xtb data2507/toluene/InDM/InDM.xyz --gfn 2 --gbsa toluene --ohess vtight --parallel 40 --molden --ceasefiles --namespace data2507/toluene/InDM/InDM_toluene_S0_preOpt
      * Solvation model:               GBSA
        Solvent                        toluene
        Solvent mass                       9.2140E+01 g/mol
          :  Hamiltonian                  GFN2-xTB          :
 * total energy  :   -83.6537748 Eh     change       -0.1848321E-08 Eh
 * total energy  :   -83.6611515 Eh     change       -0.7376629E-02 Eh
 * total energy  :   -83.6631217 Eh     change       -0.1970270E-02 Eh
 * total energy  :   -83.6636931 Eh     change       -0.5714191E-03 Eh
 * total energy  :   -83.6641034 Eh     change       -0.4102637E-03 Eh
 * total energy  :   -83.6643733 Eh     change       -0.2698529E-03 Eh
 * total energy  :   -83.6646914 Eh     change       -0.3181057E-03 Eh
 * total energy  :   -83.6651062 Eh     change       -0.4148803E-03 Eh
 * total energy  :   -83.6655307 Eh     change       -0.4244318E-03 Eh
 * total energy  :   -83.6658858 Eh     change       -0.3551208E-03 Eh
 * total energy  :   -83.6670236 Eh     change       -0.1172611E-05 Eh
 * total energy  :   -83.6670245 Eh     change       -0.9044805E-06 Eh
 * total energy  :   -83.6670251 Eh     change       -0.6440307E-06 Eh
 * total energy  :   -83.6670256 Eh     change       -0.5277172E-06 Eh
 * total energy  :   -83.6670261 Eh     change       -0.5093848E-06 Eh
 * total energy  :   -83.6670266 Eh     change       -0.5107058E-06 Eh
 * total energy  :   -83.6670271 Eh     change       -0.4671005E-06 Eh
 * total energy  :   -83.6670275 Eh     change       -0.4039337E-06 Eh
 * total energy  :   -83.6670275 Eh     change       -0.7750884E-08 Eh
   *** GEOMETRY OPTIMIZATION CONVERGED AFTER 44 ITERATIONS ***

 final structure:
================
57
 xtb: 6.7.1 (edcfbbe)
C            5.82907662424490        0.93370243121002        1.01650678462132
N            4.85253764457258        1.47955164033226        0.10450590380173
C            5.25554314598901        2.54709988524364       -0.77902593403793
C            3.58443718303543        0.97894570525318        0.06078262381795
C            2.67019834670726        1.38182139707049       -0.92832643539690
C            1.38968454169391        0.87502181318615       -0.96951054329966
C            0.96730149518607       -0.05520480071047       -0.02754998402377
N           -0.34719920461255       -0.56894933441199       -0.05995363745767
C           -0.72620199237637       -1.88241639817490       -0.09897265428776
C            0.17175647621830       -3.02154436081495       -0.20444218269377
C            1.37316421811175       -2.96654399895360       -0.90934385687402
C            2.18442023562830       -4.08365038270632       -0.98783880331944
C            1.80796322635130       -5.26846410263931       -0.37679087255990
C            0.60260350222766       -5.33801177589500        0.30419621285882
C           -0.21112313318789       -4.22505385036077        0.38918215382679
N           -2.03411127164809       -1.99918337674470       -0.05709080411268
C           -2.54291022347948       -0.73757312876551        0.00387591041471
C           -3.97899805481124       -0.52016200778798        0.10039844091007
C           -4.51461443037799        0.59876696638661        0.73669363567368
C           -5.88436504953614        0.76877406108510        0.81440276199049
C           -6.73974901172370       -0.17534268662392        0.26947180675305
C           -6.21616929513220       -1.30028947165345       -0.34777647882712
C           -4.84800558525459       -1.47358331893601       -0.43009617766328
C           -1.50145921679928        0.17801601148634       -0.00110534021457
C           -1.50296217604754        1.63536751877687        0.01550278192305
C           -2.32319667037845        2.33857644618995       -0.86691638094368
C           -2.32849375001537        3.72035837136810       -0.86645623601940
C           -1.51283259269416        4.42066045158649        0.00853717005074
C           -0.69725444379838        3.73025048031112        0.88959942955928
C           -0.69136749472290        2.34744885310406        0.89699611957422
C            1.85419917613989       -0.46366580491759        0.96219625485955
C            3.13559871123613        0.03909746782473        1.00584576827611
H            5.61399119964212        1.21502435171122        2.05330162003031
H            6.81531292862370        1.31047226762209        0.75714398882824
H            5.85603104995370       -0.15662030949414        0.94827191866702
H            5.35284267046002        2.20116306976305       -1.81424090233367
H            6.21715276763308        2.93840125421234       -0.45623114596149
H            4.53232243344501        3.36550195225997       -0.75024680674891
H            2.96004426554712        2.09021871312909       -1.68580296991170
H            0.70871278437459        1.19598032146090       -1.74482560801220
H            1.66777650462755       -2.05580267388983       -1.40898720514965
H            3.11417413608375       -4.02900092566463       -1.53551047024717
H            2.44699153688189       -6.13710023523751       -0.43856654447210
H            0.29779596249357       -6.26266258855489        0.77254610779004
H           -1.15399887027275       -4.26357151771295        0.91346097145460
H           -3.85528648060016        1.33074507753257        1.17999142603076
H           -6.28696597376768        1.64172200288547        1.30873367014090
H           -7.80965601704042       -0.03773395510712        0.33154308074841
H           -6.87839874870794       -2.04474984134710       -0.76673174494798
H           -4.42641842809468       -2.34757707612077       -0.90370389107015
H           -2.95432381496920        1.78936241870843       -1.55116473810565
H           -2.96835462071665        4.25319591681604       -1.55494361316880
H           -1.51557247785409        5.50077258574148        0.00474137037346
H           -0.06384996099018        4.27037847736783        1.57839057285887
H           -0.06322977039433        1.81455169660593        1.59628852572080
H            1.52951081245638       -1.18116318047140        1.70274601858891
H            3.78592818044068       -0.29532550253162        1.79629993171909

          :  Hamiltonian                  GFN2-xTB          :
         :: gradient norm              0.000066961024 Eh/a0 ::
         :: HOMO-LUMO gap              2.640554429049 eV    ::
         :: SCC energy               -85.180836591378 Eh    ::
         :: -> dispersion             -0.073719112724 Eh    ::
         :: -> Gsolv                  -0.037393624595 Eh    ::
         :: repulsion energy           1.513809062598 Eh    ::

    * Orbital Energies and Occupations

         #    Occupation            Energy/Eh            Energy/eV
      -------------------------------------------------------------
         1        2.0000           -0.6806170             -18.5205
       ...           ...                  ...                  ...
        66        2.0000           -0.4202445             -11.4354
        67        2.0000           -0.4173505             -11.3567
        68        2.0000           -0.4163077             -11.3283
        69        2.0000           -0.4128054             -11.2330
        70        2.0000           -0.4087936             -11.1238
        71        2.0000           -0.4063912             -11.0585
        72        2.0000           -0.4043062             -11.0017
        73        2.0000           -0.4026881             -10.9577
        74        2.0000           -0.3986202             -10.8470
        75        2.0000           -0.3937448             -10.7143
        76        2.0000           -0.3740157             -10.1775
        77        2.0000           -0.3593479              -9.7784
        78        2.0000           -0.3466381              -9.4325 (HOMO)
        79                         -0.2495995              -6.7919 (LUMO)
        80                         -0.2399093              -6.5283
        81                         -0.2275180              -6.1911
        82                         -0.2245971              -6.1116
        83                         -0.2206355              -6.0038
        84                         -0.2185490              -5.9470
        85                         -0.2162511              -5.8845
        86                         -0.2107472              -5.7347
        87                         -0.1676324              -4.5615
        88                         -0.1458517              -3.9688
        89                         -0.0949477              -2.5837
       ...                                ...                  ...
       153                          0.7089499              19.2915
      -------------------------------------------------------------
                  HL-Gap            0.0970386 Eh            2.6406 eV

     #   Z          covCN         q      C6AA      α(0)
     1   6 C        3.695    -0.051    21.670     6.659
     2   7 N        2.735    -0.074    22.687     7.074
     3   6 C        3.695    -0.051    21.668     6.659
     4   6 C        2.912     0.062    26.603     8.458
     5   6 C        2.924    -0.065    29.622     8.925
     6   6 C        2.919    -0.041    29.021     8.834
     7   6 C        2.911     0.041    27.087     8.534
     8   7 N        2.849    -0.046    22.126     6.986
     9   6 C        3.163     0.130    24.860     8.149
    10   6 C        2.974    -0.000    28.028     8.684
    11   6 C        2.922    -0.036    28.894     8.815
    12   6 C        2.919    -0.030    28.760     8.794
    13   6 C        2.919    -0.031    28.778     8.797
    14   6 C        2.918    -0.029    28.731     8.790
    15   6 C        2.928    -0.031    28.775     8.797
    16   7 N        1.912    -0.326    29.307     8.026
    17   6 C        3.165     0.053    26.487     8.411
    18   6 C        2.972     0.005    27.900     8.664
    19   6 C        2.923    -0.040    28.983     8.829
    20   6 C        2.918    -0.032    28.799     8.800
    21   6 C        2.919    -0.035    28.862     8.810
    22   6 C        2.918    -0.032    28.794     8.799
    23   6 C        2.927    -0.032    28.803     8.801
    24   6 C        3.073     0.017    27.563     8.608
    25   6 C        2.971     0.006    27.873     8.660
    26   6 C        2.925    -0.034    28.836     8.806
    27   6 C        2.918    -0.029    28.733     8.790
    28   6 C        2.919    -0.032    28.799     8.800
    29   6 C        2.918    -0.030    28.755     8.794
    30   6 C        2.924    -0.034    28.839     8.807
    31   6 C        2.919    -0.041    29.027     8.835
    32   6 C        2.924    -0.065    29.607     8.923
    33   1 H        0.924     0.047     2.352     2.398
    34   1 H        0.925     0.061     2.186     2.312
    35   1 H        0.924     0.052     2.293     2.368
    36   1 H        0.924     0.047     2.360     2.402
    37   1 H        0.925     0.061     2.187     2.313
    38   1 H        0.924     0.052     2.289     2.366
    39   1 H        0.926     0.039     2.464     2.455
    40   1 H        0.926     0.026     2.647     2.544
    41   1 H        0.926     0.028     2.614     2.528
    42   1 H        0.926     0.035     2.510     2.477
    43   1 H        0.926     0.037     2.490     2.467
    44   1 H        0.926     0.037     2.491     2.468
    45   1 H        0.926     0.042     2.425     2.435
    46   1 H        0.926     0.022     2.699     2.569
    47   1 H        0.926     0.028     2.608     2.525
    48   1 H        0.926     0.030     2.587     2.515
    49   1 H        0.926     0.030     2.582     2.513
    50   1 H        0.926     0.040     2.444     2.445
    51   1 H        0.926     0.027     2.634     2.538
    52   1 H        0.926     0.034     2.534     2.489
    53   1 H        0.926     0.035     2.522     2.483
    54   1 H        0.926     0.034     2.536     2.490
    55   1 H        0.926     0.026     2.645     2.543
    56   1 H        0.926     0.024     2.668     2.554
    57   1 H        0.926     0.040     2.455     2.450

molecular dipole:
                 x           y           z       tot (Debye)
 q only:        2.829       1.116       0.024
   full:        2.984       1.410       0.028       8.389

 projected vibrational frequencies (cm⁻¹)
eigval :       -0.00     0.00     0.00     0.00     0.00     0.00
eigval :       21.16    22.85    32.35    38.54    40.27    46.77
eigval :       52.40    58.91    64.50    74.07    82.30   111.70
eigval :      116.15   130.22   152.17   176.58   192.65   197.48
eigval :      215.98   240.11   240.54   253.02   263.36   287.59
eigval :      327.22   354.19   372.96   374.41   377.64   392.78
eigval :      404.48   415.92   447.62   453.13   474.93   487.92
eigval :      495.99   501.88   530.75   584.54   586.85   588.49
eigval :      598.39   604.53   623.75   652.64   659.86   660.71
eigval :      666.02   674.75   679.05   682.07   687.84   743.15
eigval :      759.12   763.02   765.66   784.28   794.17   840.15
eigval :      874.16   879.33   880.14   895.71   900.45   901.20
eigval :      902.82   910.98   926.87   930.41   930.66   931.40
eigval :      932.20   933.36   942.50   946.26   970.87   979.46
eigval :      999.01  1016.07  1036.51  1043.10  1080.99  1081.80
eigval :     1083.55  1083.93  1107.52  1113.37  1118.68  1119.73
eigval :     1121.29  1151.69  1165.58  1172.79  1179.64  1179.99
eigval :     1181.74  1195.86  1197.63  1201.02  1207.30  1222.55
eigval :     1269.83  1272.75  1279.23  1283.54  1286.20  1289.72
eigval :     1314.34  1318.73  1319.80  1328.90  1336.58  1356.64
eigval :     1380.77  1410.07  1414.21  1425.52  1428.54  1429.42
eigval :     1432.11  1440.87  1448.38  1459.80  1471.33  1476.82
eigval :     1488.36  1492.38  1503.26  1512.56  1528.38  1549.66
eigval :     1557.50  1577.39  1578.76  1580.48  1595.39  1596.84
eigval :     1598.63  1607.98  2920.04  2921.72  2967.04  2970.64
eigval :     3036.49  3043.45  3064.31  3067.68  3070.12  3070.85
eigval :     3071.04  3072.76  3074.17  3077.32  3078.11  3078.59
eigval :     3082.64  3085.04  3086.14  3091.19  3091.80  3094.67
eigval :     3097.25  3119.78  3122.41

   temp. (K)  partition function   enthalpy   heat capacity  entropy
                                   cal/mol     cal/K/mol   cal/K/mol   J/K/mol
 298.15  VIB  0.205E+13            15830.024     97.231     99.522
         ROT  0.235E+08              888.752      2.981     36.708
         INT  0.480E+20            16718.776    100.212    136.230
         TR   0.820E+28             1481.254      4.968     43.944
         TOT                       18200.0301   105.1798   180.1743   753.8493

       T/K    H(0)-H(T)+PV         H(T)/Eh          T*S/Eh         G(T)/Eh
   ------------------------------------------------------------------------
    298.15    0.290036E-01    0.481561E+00    0.856066E-01    0.395954E+00
   ------------------------------------------------------------------------

         :::::::::::::::::::::::::::::::::::::::::::::::::::::
         ::                  THERMODYNAMIC                  ::
         :::::::::::::::::::::::::::::::::::::::::::::::::::::
         :: total free energy         -83.271073439873 Eh   ::
         ::.................................................::
         :: total energy              -83.667027527770 Eh   ::
         :: zero point energy           0.452557122088 Eh   ::
         :: G(RRHO) w/o ZPVE           -0.056603034191 Eh   ::
         :: G(RRHO) contrib.            0.395954087897 Eh   ::
         :::::::::::::::::::::::::::::::::::::::::::::::::::::

           -------------------------------------------------
          | TOTAL ENERGY              -83.667027527770 Eh   |
          | TOTAL ENTHALPY            -83.185466811605 Eh   |
          | TOTAL FREE ENERGY         -83.271073439873 Eh   |
          | GRADIENT NORM               0.000066946048 Eh/α |
          | HOMO-LUMO GAP               2.640554835445 eV   |
           -------------------------------------------------

 * finished run on 2025/08/24 at 04:55:35.339
