   * xtb version 6.7.1 (edcfbbe) compiled by 'albert@albert-system' on 2024-07-22

   ID    Z sym.   atoms
    1    6 C      1, 3-7, 9-15, 17-32
    2    7 N      2, 8, 16
    3    1 H      33-57

          program call               : xtb data2507/toluene/InDM/InDM_toluene_S0_crest.xyz --gfn 2 --gbsa toluene --ohess vtight --parallel 40 --molden --ceasefiles --namespace data2507/toluene/InDM/InDM_toluene_S0_finalOpt
      * Solvation model:               GBSA
        Solvent                        toluene
        Solvent mass                       9.2140E+01 g/mol
          :  Hamiltonian                  GFN2-xTB          :
 * total energy  :   -83.6668544 Eh     change       -0.2152802E-08 Eh
 * total energy  :   -83.6669016 Eh     change       -0.4724850E-04 Eh
 * total energy  :   -83.6669249 Eh     change       -0.2330230E-04 Eh
 * total energy  :   -83.6669359 Eh     change       -0.1092914E-04 Eh
 * total energy  :   -83.6669504 Eh     change       -0.1456390E-04 Eh
 * total energy  :   -83.6669682 Eh     change       -0.1777787E-04 Eh
 * total energy  :   -83.6669793 Eh     change       -0.1106479E-04 Eh
 * total energy  :   -83.6669837 Eh     change       -0.4382431E-05 Eh
 * total energy  :   -83.6669880 Eh     change       -0.4286741E-05 Eh
 * total energy  :   -83.6669924 Eh     change       -0.4399890E-05 Eh
 * total energy  :   -83.6670046 Eh     change       -0.5936951E-06 Eh
 * total energy  :   -83.6670051 Eh     change       -0.5164235E-06 Eh
 * total energy  :   -83.6670057 Eh     change       -0.6179900E-06 Eh
 * total energy  :   -83.6670066 Eh     change       -0.8301394E-06 Eh
 * total energy  :   -83.6670074 Eh     change       -0.8777878E-06 Eh
 * total energy  :   -83.6670081 Eh     change       -0.6925865E-06 Eh
 * total energy  :   -83.6670084 Eh     change       -0.2628688E-06 Eh
 * total energy  :   -83.6670088 Eh     change       -0.3827405E-06 Eh
 * total energy  :   -83.6670088 Eh     change       -0.6807471E-07 Eh
   *** GEOMETRY OPTIMIZATION CONVERGED AFTER 24 ITERATIONS ***

 final structure:
================
57
 xtb: 6.7.1 (edcfbbe)
C            6.16828336289576        1.04563577718293        1.04424885576190
N            5.20115740234001        1.58610754536853        0.11928501727888
C            5.61284687263017        2.65593925201665       -0.75761291900534
C            3.92816318187410        1.09822594749323        0.07532730040832
C            3.02746652982546        1.49049731952981       -0.93029550351349
C            1.74187572275735        0.99700094759990       -0.97278436586510
C            1.30066190043163        0.09163745779193       -0.01532210149579
N           -0.02037798925336       -0.40488205782258       -0.04698969961553
C           -0.41755115182741       -1.71351032410800       -0.05692939316870
C            0.46503120360386       -2.86722370022041       -0.12842511817373
C            1.67090682302255       -2.84656928689061       -0.82753178891908
C            2.46619885112036       -3.97685300568063       -0.87433926019933
C            2.06934936600589       -5.14092400847751       -0.23686398473266
C            0.85983027115578       -5.17636792336764        0.43935747368362
C            0.06186880392211       -4.05012326640253        0.49253645009730
N           -1.72728461307478       -1.81122854254155       -0.02240259482165
C           -2.21862202680656       -0.54160370188971        0.00422858727522
C           -3.65189902439750       -0.30087265559332        0.08649629775061
C           -4.17372287543118        0.83722228440203        0.69980413168689
C           -5.54109103010744        1.02917341678437        0.76715492699679
C           -6.40778958403684        0.08858445878060        0.23412735452210
C           -5.89811017256368       -1.05454611350286       -0.36092621505866
C           -4.53231748004669       -1.25004032470592       -0.43248801271348
C           -1.16455313394210        0.35909856426304       -0.01492367677347
C           -1.14765143060190        1.81634190263128       -0.03407630511307
C           -1.95211701553629        2.50739267212250       -0.94030871660631
C           -1.93977585731257        3.88870287663135       -0.97462034625901
C           -1.12258056831114        4.60050410937104       -0.11042617957007
C           -0.32334569033708        3.92229992568080        0.79476674746088
C           -0.33476709162682        2.54014376672121        0.83660578508168
C            2.17456413494207       -0.30723063844394        0.98982942970742
C            3.46115985104862        0.18200985358210        1.03459204974298
H            5.96633665243300        1.36319856050540        2.07345938537183
H            7.16214214266586        1.38926793074239        0.76779314014758
H            6.16778905409026       -0.04615828320551        1.00832295387371
H            5.73125887728621        2.31007950447490       -1.79063552852145
H            6.56582222200137        3.05381310922103       -0.41743934270994
H            4.88371690406084        3.46936330812758       -0.74245620889692
H            3.33280134805306        2.17900215642738       -1.69999889001605
H            1.07143571494702        1.30892963927490       -1.76086350982201
H            1.98146596470246       -1.95242420659623       -1.34721618240698
H            3.39955561678328       -3.94894508349511       -1.41790743723571
H            2.69590369604623       -6.01997971851962       -0.27405623467982
H            0.53919538337546       -6.08485183749507        0.92834476047217
H           -0.88424145579797       -4.06240974776264        1.01222361716092
H           -3.50552123052570        1.56678877377666        1.13373412419464
H           -5.93306843382166        1.91644278524161        1.24421199525218
H           -7.47579739370747        0.24323985942634        0.28814338828159
H           -6.56935345413875       -1.79599479231655       -0.77076499030590
H           -4.12158494647477       -2.13846814215163       -0.88845299024176
H           -2.58491556517500        1.94926720031590       -1.61572793162870
H           -2.56715572218003        4.41194579088201       -1.68169874850637
H           -1.11147640149907        5.68012502127580       -0.14125317474423
H            0.31069364199159        4.47169715162271        1.47559541597674
H            0.28070011807574        2.01714304867852        1.55439733198681
H            1.83533651248625       -1.00567157999705        1.74198914633152
H            4.10094714275929       -0.14268813876065        1.83768017791647

          :  Hamiltonian                  GFN2-xTB          :
         :: gradient norm              0.000054904209 Eh/a0 ::
         :: HOMO-LUMO gap              2.639241414976 eV    ::
         :: SCC energy               -85.180856526176 Eh    ::
         :: -> dispersion             -0.073715761274 Eh    ::
         :: -> Gsolv                  -0.037375698668 Eh    ::
         :: repulsion energy           1.513847676070 Eh    ::

    * Orbital Energies and Occupations

         #    Occupation            Energy/Eh            Energy/eV
      -------------------------------------------------------------
         1        2.0000           -0.6806366             -18.5211
       ...           ...                  ...                  ...
        66        2.0000           -0.4202225             -11.4348
        67        2.0000           -0.4173120             -11.3556
        68        2.0000           -0.4163382             -11.3291
        69        2.0000           -0.4128144             -11.2333
        70        2.0000           -0.4088264             -11.1247
        71        2.0000           -0.4064128             -11.0591
        72        2.0000           -0.4043279             -11.0023
        73        2.0000           -0.4027041             -10.9581
        74        2.0000           -0.3986625             -10.8482
        75        2.0000           -0.3937728             -10.7151
        76        2.0000           -0.3740132             -10.1774
        77        2.0000           -0.3593891              -9.7795
        78        2.0000           -0.3465789              -9.4309 (HOMO)
        79                         -0.2495885              -6.7916 (LUMO)
        80                         -0.2398435              -6.5265
        81                         -0.2275490              -6.1919
        82                         -0.2245957              -6.1116
        83                         -0.2206487              -6.0042
        84                         -0.2186123              -5.9487
        85                         -0.2162924              -5.8856
        86                         -0.2108183              -5.7367
        87                         -0.1676588              -4.5622
        88                         -0.1459198              -3.9707
        89                         -0.0949961              -2.5850
       ...                                ...                  ...
       153                          0.7088029              19.2875
      -------------------------------------------------------------
                  HL-Gap            0.0969903 Eh            2.6392 eV

     #   Z          covCN         q      C6AA      α(0)
     1   6 C        3.695    -0.051    21.671     6.659
     2   7 N        2.735    -0.075    22.691     7.075
     3   6 C        3.695    -0.051    21.669     6.659
     4   6 C        2.912     0.062    26.603     8.458
     5   6 C        2.924    -0.065    29.620     8.925
     6   6 C        2.919    -0.041    29.020     8.834
     7   6 C        2.911     0.041    27.086     8.534
     8   7 N        2.849    -0.046    22.125     6.986
     9   6 C        3.163     0.130    24.858     8.149
    10   6 C        2.974    -0.000    28.028     8.684
    11   6 C        2.922    -0.036    28.893     8.815
    12   6 C        2.919    -0.030    28.760     8.794
    13   6 C        2.919    -0.031    28.778     8.797
    14   6 C        2.918    -0.029    28.730     8.790
    15   6 C        2.928    -0.031    28.775     8.797
    16   7 N        1.912    -0.326    29.308     8.027
    17   6 C        3.165     0.053    26.485     8.410
    18   6 C        2.972     0.005    27.899     8.664
    19   6 C        2.923    -0.039    28.981     8.828
    20   6 C        2.918    -0.032    28.799     8.800
    21   6 C        2.919    -0.035    28.861     8.810
    22   6 C        2.918    -0.032    28.793     8.799
    23   6 C        2.927    -0.032    28.802     8.801
    24   6 C        3.073     0.017    27.564     8.608
    25   6 C        2.971     0.006    27.872     8.660
    26   6 C        2.925    -0.034    28.837     8.806
    27   6 C        2.918    -0.029    28.733     8.790
    28   6 C        2.919    -0.032    28.799     8.800
    29   6 C        2.918    -0.030    28.755     8.794
    30   6 C        2.924    -0.034    28.839     8.807
    31   6 C        2.919    -0.041    29.027     8.835
    32   6 C        2.924    -0.065    29.606     8.923
    33   1 H        0.924     0.047     2.360     2.402
    34   1 H        0.925     0.061     2.187     2.313
    35   1 H        0.924     0.053     2.285     2.364
    36   1 H        0.924     0.047     2.359     2.402
    37   1 H        0.925     0.061     2.187     2.313
    38   1 H        0.924     0.052     2.290     2.366
    39   1 H        0.926     0.039     2.464     2.454
    40   1 H        0.926     0.026     2.646     2.544
    41   1 H        0.926     0.028     2.614     2.529
    42   1 H        0.926     0.035     2.510     2.477
    43   1 H        0.926     0.037     2.489     2.467
    44   1 H        0.926     0.037     2.491     2.468
    45   1 H        0.926     0.042     2.425     2.435
    46   1 H        0.926     0.022     2.700     2.569
    47   1 H        0.926     0.029     2.608     2.525
    48   1 H        0.926     0.030     2.587     2.515
    49   1 H        0.926     0.030     2.581     2.512
    50   1 H        0.926     0.040     2.446     2.446
    51   1 H        0.926     0.027     2.635     2.538
    52   1 H        0.926     0.034     2.534     2.489
    53   1 H        0.926     0.035     2.521     2.483
    54   1 H        0.926     0.034     2.536     2.490
    55   1 H        0.926     0.026     2.645     2.543
    56   1 H        0.926     0.024     2.667     2.554
    57   1 H        0.926     0.039     2.456     2.451

molecular dipole:
                 x           y           z       tot (Debye)
 q only:        2.836       1.085       0.026
   full:        2.994       1.380       0.028       8.378

 projected vibrational frequencies (cm⁻¹)
eigval :       -0.00    -0.00     0.00     0.00     0.00     0.00
eigval :       21.37    23.12    31.22    38.86    40.79    46.97
eigval :       53.11    58.72    65.36    74.73    82.15   111.27
eigval :      116.42   127.38   151.75   174.54   190.63   197.81
eigval :      215.24   239.81   240.49   253.20   263.50   288.01
eigval :      326.09   353.35   373.33   374.03   378.34   392.50
eigval :      404.99   415.69   447.24   452.84   474.67   487.79
eigval :      495.69   502.24   529.66   584.37   586.75   588.34
eigval :      598.17   604.16   623.79   652.07   659.57   660.49
eigval :      665.98   673.83   678.58   682.00   685.45   743.18
eigval :      758.97   762.65   765.56   785.10   794.87   842.15
eigval :      874.26   878.89   879.69   896.16   899.57   901.11
eigval :      902.67   911.41   926.82   930.79   931.35   931.55
eigval :      932.14   932.80   942.42   946.32   970.92   979.54
eigval :      999.07  1016.13  1036.49  1043.90  1081.09  1081.86
eigval :     1083.41  1083.56  1106.39  1113.28  1118.58  1119.20
eigval :     1120.90  1151.48  1165.37  1172.67  1178.90  1180.03
eigval :     1180.15  1195.90  1197.71  1200.96  1207.17  1222.30
eigval :     1269.27  1272.78  1279.12  1283.16  1286.18  1289.34
eigval :     1314.29  1318.66  1319.83  1328.84  1336.33  1356.84
eigval :     1380.79  1410.18  1414.04  1425.55  1428.32  1428.96
eigval :     1432.03  1440.74  1448.39  1459.78  1472.79  1477.00
eigval :     1488.43  1492.22  1502.75  1512.74  1528.16  1549.61
eigval :     1557.53  1577.28  1578.68  1580.40  1595.40  1596.79
eigval :     1598.75  1608.08  2918.99  2920.10  2971.19  2971.68
eigval :     3034.97  3042.06  3063.99  3067.42  3069.74  3070.60
eigval :     3070.79  3072.56  3073.84  3077.27  3078.13  3078.64
eigval :     3082.33  3084.55  3085.96  3090.90  3091.11  3093.48
eigval :     3097.19  3118.95  3121.59

   temp. (K)  partition function   enthalpy   heat capacity  entropy
                                   cal/mol     cal/K/mol   cal/K/mol   J/K/mol
 298.15  VIB  0.204E+13            15838.642     97.287     99.603
         ROT  0.235E+08              888.752      2.981     36.709
         INT  0.480E+20            16727.395    100.268    136.311
         TR   0.820E+28             1481.254      4.968     43.944
         TOT                       18208.6486   105.2362   180.2551   754.1875

       T/K    H(0)-H(T)+PV         H(T)/Eh          T*S/Eh         G(T)/Eh
   ------------------------------------------------------------------------
    298.15    0.290173E-01    0.481516E+00    0.856450E-01    0.395871E+00
   ------------------------------------------------------------------------

         :::::::::::::::::::::::::::::::::::::::::::::::::::::
         ::                  THERMODYNAMIC                  ::
         :::::::::::::::::::::::::::::::::::::::::::::::::::::
         :: total free energy         -83.271138082325 Eh   ::
         ::.................................................::
         :: total energy              -83.667008849014 Eh   ::
         :: zero point energy           0.452498473255 Eh   ::
         :: G(RRHO) w/o ZPVE           -0.056627706566 Eh   ::
         :: G(RRHO) contrib.            0.395870766689 Eh   ::
         :::::::::::::::::::::::::::::::::::::::::::::::::::::

           -------------------------------------------------
          | TOTAL ENERGY              -83.667008849014 Eh   |
          | TOTAL ENTHALPY            -83.185493047224 Eh   |
          | TOTAL FREE ENERGY         -83.271138082325 Eh   |
          | GRADIENT NORM               0.000054889209 Eh/α |
          | HOMO-LUMO GAP               2.639241534499 eV   |
           -------------------------------------------------

 * finished run on 2025/08/24 at 04:57:00.814
