   * xtb version 6.7.1 (edcfbbe) compiled by 'albert@albert-system' on 2024-07-22

   ID    Z sym.   atoms
    1    6 C      1, 3-7, 9-15, 17-32
    2    7 N      2, 8, 16
    3    1 H      33-57

          program call               : xtb data2507/toluene/InDM/InDM_toluene_T1_crest.xyz --gfn 2 --uhf 2 --gbsa toluene --ohess vtight --parallel 40 --molden --ceasefiles --namespace data2507/toluene/InDM/InDM_toluene_T1_finalOpt
      * Solvation model:               GBSA
        Solvent                        toluene
        Solvent mass                       9.2140E+01 g/mol
          :  Hamiltonian                  GFN2-xTB          :
 * total energy  :   -83.5715985 Eh     change       -0.3636998E-08 Eh
 * total energy  :   -83.5716875 Eh     change       -0.8898731E-04 Eh
 * total energy  :   -83.5717249 Eh     change       -0.3738385E-04 Eh
 * total energy  :   -83.5717349 Eh     change       -0.9952929E-05 Eh
 * total energy  :   -83.5717460 Eh     change       -0.1112845E-04 Eh
 * total energy  :   -83.5717538 Eh     change       -0.7766572E-05 Eh
 * total energy  :   -83.5717581 Eh     change       -0.4379312E-05 Eh
 * total energy  :   -83.5717599 Eh     change       -0.1771084E-05 Eh
 * total energy  :   -83.5717613 Eh     change       -0.1382646E-05 Eh
 * total energy  :   -83.5717629 Eh     change       -0.1654832E-05 Eh
 * total energy  :   -83.5717680 Eh     change       -0.7386553E-06 Eh
 * total energy  :   -83.5717688 Eh     change       -0.7239663E-06 Eh
 * total energy  :   -83.5717688 Eh     change       -0.3340872E-07 Eh
 * total energy  :   -83.5717691 Eh     change       -0.3541514E-06 Eh
 * total energy  :   -83.5717694 Eh     change       -0.2958266E-06 Eh
 * total energy  :   -83.5717694 Eh     change       -0.1145963E-07 Eh
 * total energy  :   -83.5717697 Eh     change       -0.2046908E-06 Eh
 * total energy  :   -83.5717699 Eh     change       -0.1994687E-06 Eh
 * total energy  :   -83.5717699 Eh     change       -0.8578596E-08 Eh
   *** GEOMETRY OPTIMIZATION CONVERGED AFTER 22 ITERATIONS ***

 final structure:
================
57
 xtb: 6.7.1 (edcfbbe)
C            6.31178258499867        0.91411390270892        0.91945048587842
N            5.28023065635518        1.61812725695364        0.19982682902690
C            5.65443523294605        2.84298993180913       -0.46152673141578
C            4.00186735216120        1.14321274415586        0.14787900509607
C            3.07194337583783        1.64448619238649       -0.78570731870827
C            1.78399148936599        1.17174875994297       -0.83681535231823
C            1.35245792668210        0.16688500337078        0.04121606265362
N            0.05500595456121       -0.31336753425901        0.00955853183056
C           -0.32200158489857       -1.68756252244675       -0.00224809154338
C            0.52831389145649       -2.80655781885169       -0.13487244849810
C            1.84355763622065       -2.76248989475858       -0.66281758030521
C            2.60257243556569       -3.90564770014346       -0.74295622087692
C            2.09740205992104       -5.13303751944483       -0.32538478644349
C            0.78525352168812       -5.20533543704837        0.14789671551486
C            0.01192888086361       -4.07776833098502        0.23252052009084
N           -1.64866821870452       -1.79622579143006        0.03679548580939
C           -2.16786583493627       -0.57071583751056       -0.00897977914165
C           -3.59400583669695       -0.38673360526604        0.13279853722562
C           -4.14911620625181        0.72701432055822        0.77535552061976
C           -5.51831181906296        0.84410917600210        0.90769290999044
C           -6.36061976707655       -0.13921925343121        0.41032014865360
C           -5.82008689037273       -1.26030016424446       -0.20569074051348
C           -4.45344926634508       -1.38869799862851       -0.33590984039536
C           -1.12340626710480        0.41431358348237       -0.08055304151692
C           -1.24271966931102        1.82998572722832       -0.15417354303128
C           -2.29270425337855        2.40770602466839       -0.90700904171881
C           -2.44209334103000        3.77175857522379       -0.98297111376245
C           -1.56189310814889        4.61979760500473       -0.31691047348583
C           -0.52655831134103        4.07083191393698        0.43421321779563
C           -0.35969911285703        2.70881375816702        0.51471505010520
C            2.27256497440791       -0.34253350484424        0.97207727881702
C            3.55936769631113        0.13209463769724        1.02370092669804
H            6.20226004121664       -0.16278479777228        0.78855022838058
H            6.28703289495528        1.14274123165821        1.99073654626176
H            7.28393766318700        1.20631404299306        0.52696489498886
H            5.87852000736335        2.67916350881336       -1.52153182809361
H            6.54137898581443        3.25200439306833        0.01908351351099
H            4.85536276109488        3.58027503083442       -0.38184425974591
H            3.37056539239087        2.39263205644931       -1.50128327731985
H            1.09786122908475        1.55836996503127       -1.57521748879046
H            2.23204365350755       -1.83784605724385       -1.05884081066023
H            3.60130919056924       -3.85081876857763       -1.15361242244670
H            2.70419558925182       -6.02353657350560       -0.38789655574515
H            0.37899757490404       -6.15966926080243        0.45215304955705
H           -0.99989603259229       -4.11847292308608        0.60520206559557
H           -3.50098907310452        1.48268830185299        1.19258940860444
H           -5.93291118027181        1.70761859246082        1.40801326843237
H           -7.43123740841948       -0.03807107978144        0.51087374368145
H           -6.47140962530711       -2.03433753365956       -0.58540269466280
H           -4.01860204657393       -2.25468893058254       -0.81186127058553
H           -2.96484985441552        1.75792415150406       -1.44855949795532
H           -3.24584144781603        4.18840098322282       -1.57400254192001
H           -1.68123141102562        5.69077337042258       -0.38193294762049
H            0.15130190719252        4.72247013042554        0.96820845878214
H            0.42744350883905        2.30180229199139        1.13178352308854
H            1.94932351008121       -1.10476301097600        1.66560367643852
H            4.22205526674748       -0.26593196824462        1.77402321189288

          :  Hamiltonian                  GFN2-xTB          :
         :: gradient norm              0.000046112466 Eh/a0 ::
         :: HOMO-LUMO gap              0.427437912801 eV    ::
         :: SCC energy               -85.064646016657 Eh    ::
         :: -> dispersion             -0.074035788567 Eh    ::
         :: -> Gsolv                  -0.039047040400 Eh    ::
         :: repulsion energy           1.492876153783 Eh    ::

    * Orbital Energies and Occupations

         #    Occupation            Energy/Eh            Energy/eV
      -------------------------------------------------------------
         1        2.0000           -0.6752253             -18.3738
       ...           ...                  ...                  ...
        67        2.0000           -0.4187306             -11.3942
        68        2.0000           -0.4140348             -11.2665
        69        2.0000           -0.4112297             -11.1901
        70        2.0000           -0.4105509             -11.1717
        71        2.0000           -0.4047785             -11.0146
        72        2.0000           -0.3987256             -10.8499
        73        2.0000           -0.3980752             -10.8322
        74        2.0000           -0.3947222             -10.7409
        75        2.0000           -0.3920055             -10.6670
        76        2.0000           -0.3778747             -10.2825
        77        1.9831           -0.3551195              -9.6633
        78        1.0169           -0.3473991              -9.4532
        79        0.9997           -0.2613009              -7.1104 (HOMO)
        80        0.0003           -0.2455930              -6.6829 (LUMO)
        81                         -0.2273683              -6.1870
        82                         -0.2217110              -6.0331
        83                         -0.2177669              -5.9257
        84                         -0.2132416              -5.8026
        85                         -0.2117124              -5.7610
        86                         -0.2104238              -5.7259
        87                         -0.1649473              -4.4884
        88                         -0.1496607              -4.0725
        89                         -0.0955313              -2.5995
        90                         -0.0879030              -2.3920
       ...                                ...                  ...
       153                          0.7031004              19.1323
      -------------------------------------------------------------
                  HL-Gap            0.0157080 Eh            0.4274 eV

     #   Z          covCN         q      C6AA      α(0)
     1   6 C        3.697    -0.059    21.814     6.681
     2   7 N        2.735    -0.042    22.058     6.975
     3   6 C        3.696    -0.059    21.812     6.681
     4   6 C        2.911     0.057    26.730     8.478
     5   6 C        2.920    -0.055    29.377     8.888
     6   6 C        2.916    -0.043    29.059     8.840
     7   6 C        2.906     0.054    26.782     8.486
     8   7 N        2.809    -0.071    22.622     7.064
     9   6 C        3.106     0.131    25.013     8.195
    10   6 C        2.969    -0.013    28.334     8.731
    11   6 C        2.916    -0.044    29.092     8.845
    12   6 C        2.914    -0.033    28.817     8.803
    13   6 C        2.917    -0.042    29.042     8.837
    14   6 C        2.913    -0.033    28.818     8.803
    15   6 C        2.926    -0.036    28.897     8.816
    16   7 N        1.885    -0.309    28.868     7.965
    17   6 C        3.132     0.081    26.001     8.348
    18   6 C        2.974     0.006    27.889     8.663
    19   6 C        2.921    -0.034    28.838     8.806
    20   6 C        2.917    -0.030    28.745     8.792
    21   6 C        2.919    -0.031    28.767     8.795
    22   6 C        2.916    -0.030    28.753     8.793
    23   6 C        2.926    -0.028    28.708     8.787
    24   6 C        3.010     0.014    27.689     8.632
    25   6 C        2.965    -0.009    28.235     8.716
    26   6 C        2.923    -0.041    29.021     8.834
    27   6 C        2.914    -0.034    28.836     8.806
    28   6 C        2.917    -0.045    29.108     8.847
    29   6 C        2.914    -0.034    28.839     8.806
    30   6 C        2.919    -0.043    29.058     8.840
    31   6 C        2.918    -0.042    29.052     8.839
    32   6 C        2.919    -0.058    29.442     8.898
    33   1 H        0.924     0.064     2.158     2.297
    34   1 H        0.924     0.058     2.224     2.332
    35   1 H        0.925     0.069     2.096     2.264
    36   1 H        0.924     0.058     2.226     2.333
    37   1 H        0.925     0.069     2.097     2.265
    38   1 H        0.925     0.063     2.161     2.299
    39   1 H        0.926     0.045     2.379     2.412
    40   1 H        0.926     0.032     2.563     2.503
    41   1 H        0.926     0.023     2.687     2.564
    42   1 H        0.925     0.027     2.631     2.536
    43   1 H        0.926     0.027     2.636     2.539
    44   1 H        0.926     0.028     2.615     2.529
    45   1 H        0.926     0.038     2.475     2.460
    46   1 H        0.926     0.030     2.587     2.515
    47   1 H        0.926     0.034     2.532     2.489
    48   1 H        0.926     0.036     2.505     2.475
    49   1 H        0.926     0.036     2.502     2.474
    50   1 H        0.926     0.043     2.404     2.425
    51   1 H        0.926     0.017     2.779     2.607
    52   1 H        0.926     0.022     2.707     2.573
    53   1 H        0.926     0.022     2.708     2.573
    54   1 H        0.925     0.023     2.692     2.566
    55   1 H        0.926     0.017     2.774     2.605
    56   1 H        0.926     0.031     2.576     2.510
    57   1 H        0.926     0.045     2.382     2.413

molecular dipole:
                 x           y           z       tot (Debye)
 q only:        3.290       1.244       0.168
   full:        3.407       1.545       0.145       9.517

 projected vibrational frequencies (cm⁻¹)
eigval :       -0.00    -0.00     0.00     0.00     0.00     0.00
eigval :       18.30    25.22    39.84    41.60    45.47    50.94
eigval :       60.53    63.68    76.66    94.55   105.56   112.90
eigval :      130.11   138.17   144.28   163.91   189.97   195.42
eigval :      209.16   226.95   240.14   246.86   255.42   282.62
eigval :      315.15   337.97   369.10   375.30   378.98   383.51
eigval :      392.59   409.36   420.78   435.04   449.42   476.05
eigval :      481.57   484.68   498.29   577.83   578.93   581.71
eigval :      584.49   591.80   600.77   621.09   637.44   643.38
eigval :      646.18   650.57   666.39   668.40   671.70   731.09
eigval :      731.98   744.14   754.57   777.79   795.90   829.09
eigval :      839.32   851.98   857.81   862.00   866.52   895.00
eigval :      897.16   907.60   912.63   913.81   916.97   917.43
eigval :      920.94   922.34   923.05   924.08   946.87   959.87
eigval :      972.00   984.13  1004.10  1046.23  1052.20  1065.17
eigval :     1071.11  1076.90  1083.24  1090.09  1104.52  1116.80
eigval :     1118.18  1121.15  1150.04  1156.70  1161.90  1170.85
eigval :     1175.38  1176.47  1180.58  1193.25  1198.79  1212.84
eigval :     1246.52  1258.18  1260.74  1273.86  1274.39  1279.87
eigval :     1283.45  1318.23  1322.31  1328.53  1330.60  1332.82
eigval :     1341.21  1369.13  1402.91  1407.86  1410.66  1412.94
eigval :     1417.54  1422.71  1427.73  1430.86  1438.37  1461.85
eigval :     1468.13  1473.10  1480.95  1484.56  1487.37  1490.34
eigval :     1491.14  1501.75  1526.74  1549.02  1553.12  1562.87
eigval :     1571.47  1598.65  2924.46  2926.56  3001.85  3003.64
eigval :     3024.62  3030.63  3060.87  3062.34  3062.61  3065.55
eigval :     3069.33  3072.28  3077.39  3083.28  3084.97  3085.14
eigval :     3087.01  3089.35  3091.03  3092.99  3096.23  3098.96
eigval :     3102.97  3114.02  3116.51

   temp. (K)  partition function   enthalpy   heat capacity  entropy
                                   cal/mol     cal/K/mol   cal/K/mol   J/K/mol
 298.15  VIB  0.881E+12            16034.875    100.275    100.046
         ROT  0.239E+08              888.752      2.981     36.743
         INT  0.211E+20            16923.627    103.256    136.789
         TR   0.820E+28             1481.254      4.968     43.944
         TOT                       18404.8810   108.2241   180.7328   756.1862

       T/K    H(0)-H(T)+PV         H(T)/Eh          T*S/Eh         G(T)/Eh
   ------------------------------------------------------------------------
    298.15    0.293300E-01    0.477187E+00    0.858720E-01    0.391315E+00
   ------------------------------------------------------------------------

         :::::::::::::::::::::::::::::::::::::::::::::::::::::
         ::                  THERMODYNAMIC                  ::
         :::::::::::::::::::::::::::::::::::::::::::::::::::::
         :: total free energy         -83.180455116677 Eh   ::
         ::.................................................::
         :: total energy              -83.571769863728 Eh   ::
         :: zero point energy           0.447856709162 Eh   ::
         :: G(RRHO) w/o ZPVE           -0.056541962111 Eh   ::
         :: G(RRHO) contrib.            0.391314747051 Eh   ::
         :::::::::::::::::::::::::::::::::::::::::::::::::::::

           -------------------------------------------------
          | TOTAL ENERGY              -83.571769863728 Eh   |
          | TOTAL ENTHALPY            -83.094583109754 Eh   |
          | TOTAL FREE ENERGY         -83.180455116677 Eh   |
          | GRADIENT NORM               0.000046221348 Eh/α |
          | HOMO-LUMO GAP               0.427435788522 eV   |
           -------------------------------------------------

 * finished run on 2025/08/24 at 04:58:52.325
