   * xtb version 6.7.1 (edcfbbe) compiled by 'albert@albert-system' on 2024-07-22

   ID    Z sym.   atoms
    1    6 C      1-6, 8-13, 15-18, 20-33, 35, 36
    2    8 O      7
    3    7 N      14, 19, 34
    4    1 H      37-55

          program call               : xtb data2507/gas/PXZ-11-DPPZ/PXZ-11-DPPZ_gas_S0_crest.xyz --gfn 2 --ohess vtight --parallel 40 --molden --ceasefiles --namespace data2507/gas/PXZ-11-DPPZ/PXZ-11-DPPZ_gas_S0_finalOpt
          :  Hamiltonian                  GFN2-xTB          :
 * total energy  :   -91.1014716 Eh     change       -0.7592291E-09 Eh
 * total energy  :   -91.1014730 Eh     change       -0.1399731E-05 Eh
 * total energy  :   -91.1014735 Eh     change       -0.5252631E-06 Eh
 * total energy  :   -91.1014740 Eh     change       -0.4759023E-06 Eh
 * total energy  :   -91.1014744 Eh     change       -0.4376061E-06 Eh
 * total energy  :   -91.1014747 Eh     change       -0.2898030E-06 Eh
 * total energy  :   -91.1014749 Eh     change       -0.2085317E-06 Eh
 * total energy  :   -91.1014751 Eh     change       -0.1797269E-06 Eh
 * total energy  :   -91.1014752 Eh     change       -0.1523420E-06 Eh
 * total energy  :   -91.1014753 Eh     change       -0.9496851E-07 Eh
   *** GEOMETRY OPTIMIZATION CONVERGED AFTER 10 ITERATIONS ***

 final structure:
================
55
 xtb: 6.7.1 (edcfbbe)
C           -4.94947468982375        3.34164775326714        1.79378827832931
C           -3.60410052091097        3.07802214915491        1.95151089360359
C           -3.04231823753938        1.93783293833721        1.39774128937409
C           -3.81578752068302        1.04362672058474        0.66832983202403
C           -5.18746982805833        1.30379613524753        0.54351821099480
C           -5.74190529802927        2.44477456634421        1.09360281951588
O           -6.04743520547096        0.44886975376789       -0.09990872191050
C           -5.51024927229497       -0.67504842530087       -0.67409037720850
C           -6.37771606816016       -1.50729189829481       -1.35686498844079
C           -5.90234234173320       -2.64584390711522       -1.99052168970748
C           -4.55231140308669       -2.93015993020155       -1.95540009937249
C           -3.67824938006490       -2.09855049597194       -1.27212413910669
C           -4.14407443996452       -0.97630410199153       -0.59788661465686
N           -3.28883258479403       -0.12241222217139        0.10336849578527
C           -1.93226951021979       -0.46435088353832        0.26567937966530
C           -1.61120497154665       -1.66727187528018        0.94212921393678
C           -0.31455750612938       -2.03657888498362        1.13654988239809
C            0.73355726380062       -1.21614860202455        0.66221838963459
N            2.00686647868645       -1.58057316307864        0.85177192412987
C            2.95545934354318       -0.78421912308538        0.39182106727277
C            4.33874137668587       -1.15808281667696        0.58308689096327
C            4.63909272719420       -2.35084939562412        1.24720156014123
C            5.94431284642375       -2.73570509601672        1.44477375825894
C            6.97257102694594       -1.92549883152159        0.97651357662671
C            6.69009197132473       -0.74732480395224        0.32040732467161
C            5.37204800336930       -0.32833097649476        0.10412027110758
C            5.04681223062556        0.91230425107023       -0.58622044549652
C            6.02860588180719        1.77849466656925       -1.08177502738056
C            5.69624099138302        2.94690952920147       -1.73192745170349
C            4.36341883325689        3.29810421868706       -1.91377640386497
C            3.37624447304353        2.46755360821715       -1.43768843772076
C            3.69984645808736        1.27956889547046       -0.77623564082520
C            2.63595181459815        0.43080669854900       -0.28671248983334
N            1.38333279750893        0.80132828014171       -0.47636097929694
C            0.41312261360481       -0.00124113699832       -0.01446387354600
C           -0.93614982150221        0.35244435362317       -0.20808127838822
H           -5.39025005145145        4.23005868778390        2.21759613378710
H           -2.97624019963527        3.75541659517281        2.50955387273606
H           -1.99265419553370        1.73940838295798        1.54494679751632
H           -6.80038580819161        2.60787895687212        0.96817947671341
H           -7.42289183850413       -1.24365181056061       -1.38376095394302
H           -6.58714028077979       -3.29200599191223       -2.51657232238900
H           -4.16345183102064       -3.79916756794047       -2.46344662922472
H           -2.62279731949853       -2.32196953382569       -1.26953758779187
H           -2.42013481081156       -2.27917640682058        1.31398187816047
H           -0.05557582198497       -2.94526464208266        1.65711583567126
H            3.81533030727584       -2.95347783999458        1.59609388995342
H            6.17135990537012       -3.65795710238825        1.95830805032384
H            8.00112679917317       -2.21962920781706        1.12690413018386
H            7.51441855455661       -0.14607435719749       -0.02824500185892
H            7.07316829443534        1.54064548127689       -0.95987334978525
H            6.47886339893607        3.59311065046997       -2.10207711740793
H            4.10859146178881        4.21481943050322       -2.42413682188444
H            2.33158002143922        2.70678021815475       -1.55972343364462
H           -1.15993201164089        1.26703355123749       -0.73521798869035

          :  Hamiltonian                  GFN2-xTB          :
         :: gradient norm              0.000051659117 Eh/a0 ::
         :: HOMO-LUMO gap              1.114404766140 eV    ::
         :: SCC energy               -92.722850834193 Eh    ::
         :: -> dispersion             -0.076432390606 Eh    ::
         :: repulsion energy           1.621375490016 Eh    ::

    * Orbital Energies and Occupations

         #    Occupation            Energy/Eh            Energy/eV
      -------------------------------------------------------------
         1        2.0000           -0.7269548             -19.7814
       ...           ...                  ...                  ...
        72        2.0000           -0.4250750             -11.5669
        73        2.0000           -0.4240506             -11.5390
        74        2.0000           -0.4195905             -11.4176
        75        2.0000           -0.4175568             -11.3623
        76        2.0000           -0.4146546             -11.2833
        77        2.0000           -0.4116779             -11.2023
        78        2.0000           -0.4100005             -11.1567
        79        2.0000           -0.4023279             -10.9479
        80        2.0000           -0.3939273             -10.7193
        81        2.0000           -0.3903013             -10.6206
        82        2.0000           -0.3880542             -10.5595
        83        2.0000           -0.3498433              -9.5197
        84        2.0000           -0.3425532              -9.3213 (HOMO)
        85                         -0.3015994              -8.2069 (LUMO)
        86                         -0.2665270              -7.2526
        87                         -0.2538111              -6.9066
        88                         -0.2372797              -6.4567
        89                         -0.2288078              -6.2262
        90                         -0.2266948              -6.1687
        91                         -0.2226015              -6.0573
        92                         -0.2115312              -5.7561
        93                         -0.2033109              -5.5324
        94                         -0.1968739              -5.3572
        95                         -0.1936310              -5.2690
       ...                                ...                  ...
       163                          0.7151247              19.4595
      -------------------------------------------------------------
                  HL-Gap            0.0409537 Eh            1.1144 eV

     #   Z          covCN         q      C6AA      α(0)
     1   6 C        2.919    -0.040    28.986     8.829
     2   6 C        2.919    -0.038    28.943     8.822
     3   6 C        2.924    -0.059    29.472     8.903
     4   6 C        2.920     0.042    27.049     8.529
     5   6 C        2.885     0.125    25.256     8.239
     6   6 C        2.920    -0.056    29.387     8.890
     7   8 O        1.709    -0.254    18.206     5.761
     8   6 C        2.884     0.125    25.252     8.238
     9   6 C        2.920    -0.056    29.397     8.891
    10   6 C        2.919    -0.040    28.986     8.829
    11   6 C        2.919    -0.039    28.959     8.825
    12   6 C        2.924    -0.059    29.460     8.901
    13   6 C        2.923     0.043    27.045     8.528
    14   7 N        2.752    -0.067    22.545     7.052
    15   6 C        2.918     0.066    26.518     8.444
    16   6 C        2.918    -0.039    28.962     8.825
    17   6 C        2.916    -0.040    29.003     8.831
    18   6 C        2.967     0.079    26.228     8.400
    19   7 N        1.848    -0.239    27.105     7.716
    20   6 C        2.962     0.082    26.167     8.391
    21   6 C        2.988    -0.001    28.048     8.688
    22   6 C        2.924    -0.027    28.678     8.782
    23   6 C        2.917    -0.028    28.711     8.787
    24   6 C        2.918    -0.027    28.680     8.782
    25   6 C        2.922    -0.034    28.838     8.806
    26   6 C        2.976     0.007    27.867     8.659
    27   6 C        2.976     0.007    27.858     8.658
    28   6 C        2.922    -0.034    28.839     8.806
    29   6 C        2.918    -0.027    28.672     8.781
    30   6 C        2.917    -0.028    28.711     8.787
    31   6 C        2.924    -0.027    28.670     8.781
    32   6 C        2.988    -0.001    28.052     8.688
    33   6 C        2.961     0.084    26.121     8.383
    34   7 N        1.849    -0.242    27.174     7.726
    35   6 C        2.966     0.081    26.191     8.394
    36   6 C        2.920    -0.057    29.406     8.893
    37   1 H        0.926     0.039     2.468     2.457
    38   1 H        0.926     0.037     2.488     2.467
    39   1 H        0.926     0.037     2.484     2.465
    40   1 H        0.926     0.051     2.310     2.377
    41   1 H        0.926     0.051     2.311     2.377
    42   1 H        0.926     0.038     2.469     2.457
    43   1 H        0.926     0.037     2.496     2.470
    44   1 H        0.926     0.035     2.514     2.480
    45   1 H        0.926     0.047     2.362     2.403
    46   1 H        0.926     0.056     2.243     2.342
    47   1 H        0.926     0.059     2.212     2.326
    48   1 H        0.926     0.036     2.505     2.475
    49   1 H        0.926     0.034     2.526     2.486
    50   1 H        0.926     0.036     2.503     2.474
    51   1 H        0.926     0.036     2.501     2.473
    52   1 H        0.926     0.034     2.523     2.484
    53   1 H        0.926     0.036     2.501     2.473
    54   1 H        0.926     0.059     2.205     2.322
    55   1 H        0.926     0.058     2.219     2.330

molecular dipole:
                 x           y           z       tot (Debye)
 q only:        0.723      -0.040       0.018
   full:        0.821      -0.071       0.035       2.096

 projected vibrational frequencies (cm⁻¹)
eigval :       -0.00    -0.00     0.00     0.00     0.00     0.00
eigval :       14.28    19.80    24.96    46.63    58.73    59.39
eigval :       83.89    94.24   106.84   117.38   136.21   151.62
eigval :      195.75   202.24   230.40   250.18   252.70   258.26
eigval :      282.01   291.54   303.04   347.90   369.66   377.43
eigval :      383.11   394.94   399.19   402.21   418.89   429.65
eigval :      436.89   440.20   443.35   454.95   509.81   515.60
eigval :      521.10   523.85   531.66   551.43   557.54   578.17
eigval :      580.24   588.99   595.73   622.47   625.20   659.94
eigval :      661.86   669.17   671.69   682.47   701.37   706.70
eigval :      734.35   762.31   768.06   769.14   778.81   779.30
eigval :      789.58   793.35   822.38   838.37   855.67   857.05
eigval :      863.11   865.85   869.72   879.76   886.12   897.23
eigval :      901.12   914.20   916.22   917.25   917.40   920.89
eigval :      926.74   928.99   929.59   941.44   986.69  1023.62
eigval :     1061.34  1084.83  1090.43  1091.26  1101.67  1108.72
eigval :     1113.09  1142.70  1149.23  1149.33  1165.76  1175.59
eigval :     1181.25  1181.43  1184.07  1199.51  1202.48  1219.06
eigval :     1234.68  1242.17  1248.81  1257.22  1262.02  1283.86
eigval :     1286.88  1296.18  1304.82  1311.49  1325.25  1334.25
eigval :     1341.41  1346.66  1355.16  1371.08  1413.24  1422.69
eigval :     1426.30  1426.92  1436.62  1444.28  1462.62  1476.19
eigval :     1485.93  1487.22  1501.64  1502.40  1532.87  1555.97
eigval :     1567.60  1569.38  1580.10  1587.34  1589.49  1597.29
eigval :     1599.60  1603.48  3076.62  3077.30  3084.64  3088.02
eigval :     3089.02  3089.22  3089.88  3098.33  3099.77  3099.85
eigval :     3101.00  3102.32  3105.28  3108.79  3109.29  3109.62
eigval :     3110.54  3112.94  3113.47

   temp. (K)  partition function   enthalpy   heat capacity  entropy
                                   cal/mol     cal/K/mol   cal/K/mol   J/K/mol
 298.15  VIB  0.249E+11            14766.917     99.390     88.925
         ROT  0.359E+08              888.752      2.981     37.552
         INT  0.894E+18            15655.670    102.371    126.477
         TR   0.959E+28             1481.254      4.968     44.257
         TOT                       17136.9236   107.3388   170.7338   714.3501

       T/K    H(0)-H(T)+PV         H(T)/Eh          T*S/Eh         G(T)/Eh
   ------------------------------------------------------------------------
    298.15    0.273094E-01    0.437622E+00    0.811211E-01    0.356501E+00
   ------------------------------------------------------------------------

         :::::::::::::::::::::::::::::::::::::::::::::::::::::
         ::                  THERMODYNAMIC                  ::
         :::::::::::::::::::::::::::::::::::::::::::::::::::::
         :: total free energy         -90.744974178353 Eh   ::
         ::.................................................::
         :: total energy              -91.101475344176 Eh   ::
         :: zero point energy           0.410312859036 Eh   ::
         :: G(RRHO) w/o ZPVE           -0.053811693214 Eh   ::
         :: G(RRHO) contrib.            0.356501165822 Eh   ::
         :::::::::::::::::::::::::::::::::::::::::::::::::::::

           -------------------------------------------------
          | TOTAL ENERGY              -91.101475344176 Eh   |
          | TOTAL ENTHALPY            -90.663853059019 Eh   |
          | TOTAL FREE ENERGY         -90.744974178353 Eh   |
          | GRADIENT NORM               0.000051644263 Eh/α |
          | HOMO-LUMO GAP               1.114407950999 eV   |
           -------------------------------------------------

 * finished run on 2025/09/05 at 11:35:29.568
