   * xtb version 6.7.1 (edcfbbe) compiled by 'albert@albert-system' on 2024-07-22

   ID    Z sym.   atoms
    1    6 C      1-6, 8-13, 15-18, 20-33, 35, 36
    2    8 O      7
    3    7 N      14, 19, 34
    4    1 H      37-55

          program call               : xtb data2507/gas/PXZ-11-DPPZ/PXZ-11-DPPZ_gas_S0_finalOpt.xtbopt.xyz --gfn 2 --spinpol --tblite --uhf 2 --ohess vtight --parallel 40 --molden --ceasefiles --namespace data2507/gas/PXZ-11-DPPZ/PXZ-11-DPPZ_gas_T1_preOpt
 * total energy  :   -91.0551590 Eh     change       -0.1484807E-08 Eh
 * total energy  :   -91.0583254 Eh     change       -0.3166427E-02 Eh
 * total energy  :   -91.0593512 Eh     change       -0.1025754E-02 Eh
 * total energy  :   -91.0594820 Eh     change       -0.1307817E-03 Eh
 * total energy  :   -91.0595441 Eh     change       -0.6209345E-04 Eh
 * total energy  :   -91.0595591 Eh     change       -0.1501698E-04 Eh
 * total energy  :   -91.0595723 Eh     change       -0.1320653E-04 Eh
 * total energy  :   -91.0596018 Eh     change       -0.2949861E-04 Eh
 * total energy  :   -91.0596220 Eh     change       -0.2022165E-04 Eh
 * total energy  :   -91.0596415 Eh     change       -0.1944866E-04 Eh
 * total energy  :   -91.0597597 Eh     change       -0.6430626E-06 Eh
 * total energy  :   -91.0597602 Eh     change       -0.4567213E-06 Eh
 * total energy  :   -91.0597604 Eh     change       -0.2598169E-06 Eh
 * total energy  :   -91.0597606 Eh     change       -0.1462435E-06 Eh
 * total energy  :   -91.0597608 Eh     change       -0.2480345E-06 Eh
 * total energy  :   -91.0597611 Eh     change       -0.2435550E-06 Eh
 * total energy  :   -91.0597614 Eh     change       -0.3155926E-06 Eh
 * total energy  :   -91.0597618 Eh     change       -0.4166978E-06 Eh
 * total energy  :   -91.0597618 Eh     change       -0.1866709E-08 Eh
   *** GEOMETRY OPTIMIZATION CONVERGED AFTER 44 ITERATIONS ***

 final structure:
================
55
 xtb: 6.7.1 (edcfbbe)
C           -4.98451265102428        3.26383265958096        1.91431167041125
C           -3.65465886057561        2.95658792543398        2.13265449393783
C           -3.09041603172943        1.83061053953866        1.55684099368330
C           -3.84807581172463        0.99431827662548        0.74321982524592
C           -5.20353783596154        1.30286099531716        0.54635172761155
C           -5.76000148521047        2.42978919786586        1.12388125008129
O           -6.03292468069632        0.51134436808807       -0.20442249062778
C           -5.49111125813030       -0.60545470715109       -0.78455922488735
C           -6.33376690277696       -1.39247977407893       -1.54856732308042
C           -5.84635371028780       -2.52495123701672       -2.18245815430074
C           -4.51005267213450       -2.85621637620710       -2.05861062705056
C           -3.66103029665376       -2.07395723618524       -1.29390542796337
C           -4.13817011921062       -0.94745637357466       -0.63141593290282
N           -3.31528171947802       -0.14261564816725        0.14711068077868
C           -1.95536664857265       -0.49110545604468        0.34782901175335
C           -1.63487803899752       -1.62844049129208        1.08071152411856
C           -0.31155359633469       -1.97869409824157        1.27521508396071
C            0.72253530499118       -1.20071954225070        0.75659248340070
N            2.00549579530626       -1.50823999085932        0.92528990740314
C            2.98360740605305       -0.75953741532554        0.42688567112009
C            4.35463669252592       -1.11177226458297        0.62237757743068
C            4.66272539279152       -2.27336574912395        1.34965032728607
C            5.96487065885363       -2.64771096297325        1.55509768722174
C            6.99670720729292       -1.86549048653883        1.03572648343805
C            6.71350894348828       -0.72550292799243        0.32252433489879
C            5.39309125789245       -0.31130536964176        0.09289238067543
C            5.06027554349539        0.88157732853486       -0.65108583294927
C            6.02935090846290        1.73289886673491       -1.20247119304208
C            5.68071480076915        2.86161289527980       -1.90448810856062
C            4.33777162190623        3.19164061838967       -2.08814553654690
C            3.36411415918429        2.38231659604337       -1.56370583885007
C            3.70203077700815        1.22511771901296       -0.84272336385144
C            2.65554896781601        0.40982865024350       -0.31023105336033
N            1.37892714359073        0.73285086203412       -0.48600794211579
C            0.38790610334526       -0.01055571371233        0.00347164765922
C           -0.95196476881193        0.30878127168547       -0.18894396763202
H           -5.42520347594855        4.14166256260619        2.35954076079413
H           -3.04475627396989        3.59133099335539        2.75660588287869
H           -2.05485026699308        1.59328127157281        1.74104125454110
H           -6.80363279048855        2.63346970383195        0.94531175413104
H           -7.36744272092770       -1.09880710109345       -1.63689212398962
H           -6.51024168265411       -3.13494854089153       -2.77420363732944
H           -4.11654453294061       -3.72709769912371       -2.55955999507968
H           -2.61745629352292       -2.33307718198097       -1.21089905186780
H           -2.42479445571379       -2.23546713294799        1.49635072158469
H           -0.05243767321502       -2.85920714095863        1.84113190549633
H            3.84272857203068       -2.85822390248774        1.73780165234121
H            6.19433173273835       -3.54239789145167        2.11459558559903
H            8.02424528071310       -2.15799258455388        1.19519786205043
H            7.53481423789926       -0.14411184744456       -0.06529119901018
H            7.07654989757076        1.50722042471773       -1.07849108961856
H            6.45082150454750        3.49735742481053       -2.31629642398524
H            4.07046522525110        4.08038305191009       -2.64028980578078
H            2.31675615259928        2.61137834280014       -1.68880987357988
H           -1.20065906096655        1.18589568445520       -0.76557432424665

 projected vibrational frequencies (cm⁻¹)
eigval :       -0.00    -0.00    -0.00     0.00     0.00     0.00
eigval :       13.64    19.29    25.49    48.19    56.18    60.27
eigval :       84.02   102.58   105.67   112.81   134.68   149.45
eigval :      189.26   192.15   228.51   244.80   247.88   257.86
eigval :      269.71   283.90   300.71   343.86   370.04   375.77
eigval :      386.49   395.40   403.00   404.07   417.01   429.08
eigval :      429.82   439.54   446.82   455.05   505.82   511.12
eigval :      519.67   523.11   525.23   543.90   554.46   575.84
eigval :      578.70   586.46   590.32   612.26   621.57   628.84
eigval :      661.06   664.29   666.00   673.09   678.92   691.01
eigval :      700.90   724.33   759.37   764.85   777.16   777.90
eigval :      778.80   789.46   799.24   813.67   832.54   851.47
eigval :      855.62   864.02   864.40   865.16   873.86   880.48
eigval :      898.04   899.12   908.20   913.03   915.38   915.78
eigval :      915.84   919.58   921.17   922.40   992.20  1010.00
eigval :     1059.45  1082.61  1087.53  1088.18  1098.52  1111.01
eigval :     1115.97  1132.94  1144.68  1150.54  1165.42  1174.70
eigval :     1179.90  1180.17  1182.39  1202.36  1204.37  1222.91
eigval :     1224.50  1240.27  1247.31  1256.34  1257.53  1260.16
eigval :     1275.41  1282.22  1300.19  1313.87  1314.74  1328.91
eigval :     1338.45  1342.20  1349.21  1357.22  1371.69  1391.07
eigval :     1409.64  1416.36  1422.20  1429.12  1442.97  1463.63
eigval :     1466.06  1471.48  1479.92  1494.66  1517.40  1531.99
eigval :     1537.03  1553.11  1562.43  1571.65  1583.26  1584.63
eigval :     1594.14  1594.55  3075.23  3075.89  3084.11  3085.35
eigval :     3090.26  3092.03  3092.25  3096.12  3097.64  3098.36
eigval :     3099.36  3101.34  3101.87  3104.20  3108.31  3109.30
eigval :     3111.05  3113.95  3114.53

   temp. (K)  partition function   enthalpy   heat capacity  entropy
                                   cal/mol     cal/K/mol   cal/K/mol   J/K/mol
 298.15  VIB  0.311E+11            14924.850    100.475     89.873
         ROT  0.360E+08              888.752      2.981     37.559
         INT  0.112E+19            15813.602    103.456    127.433
         TR   0.959E+28             1481.254      4.968     44.257
         TOT                       17294.8558   108.4240   171.6891   718.3473

       T/K    H(0)-H(T)+PV         H(T)/Eh          T*S/Eh         G(T)/Eh
   ------------------------------------------------------------------------
    298.15    0.275611E-01    0.435469E+00    0.815750E-01    0.353894E+00
   ------------------------------------------------------------------------

         :::::::::::::::::::::::::::::::::::::::::::::::::::::
         ::                  THERMODYNAMIC                  ::
         :::::::::::::::::::::::::::::::::::::::::::::::::::::
         :: total free energy         -90.705867550633 Eh   ::
         ::.................................................::
         :: total energy              -91.059761816120 Eh   ::
         :: zero point energy           0.407908196590 Eh   ::
         :: G(RRHO) w/o ZPVE           -0.054013931103 Eh   ::
         :: G(RRHO) contrib.            0.353894265488 Eh   ::
         :::::::::::::::::::::::::::::::::::::::::::::::::::::

           -------------------------------------------------
          | TOTAL ENERGY              -91.059761816120 Eh   |
          | TOTAL ENTHALPY            -90.624292512507 Eh   |
          | TOTAL FREE ENERGY         -90.705867550633 Eh   |
          | GRADIENT NORM               0.000042406986 Eh/α |
           -------------------------------------------------

 * finished run on 2025/09/05 at 11:35:35.206
