   * xtb version 6.7.1 (edcfbbe) compiled by 'albert@albert-system' on 2024-07-22

   ID    Z sym.   atoms
    1    6 C      1-6, 8-13, 15-18, 20-33, 35, 36
    2    8 O      7
    3    7 N      14, 19, 34
    4    1 H      37-55

          program call               : xtb data2507/gas/PXZ-11-DPPZ/PXZ-11-DPPZ.xyz --gfn 2 --ohess vtight --parallel 40 --molden --ceasefiles --namespace data2507/gas/PXZ-11-DPPZ/PXZ-11-DPPZ_gas_S0_preOpt
          :  Hamiltonian                  GFN2-xTB          :
 * total energy  :   -91.0813759 Eh     change       -0.1097433E-08 Eh
 * total energy  :   -91.0951808 Eh     change       -0.1380487E-01 Eh
 * total energy  :   -91.0989743 Eh     change       -0.3793461E-02 Eh
 * total energy  :   -91.0996441 Eh     change       -0.6698213E-03 Eh
 * total energy  :   -91.1000322 Eh     change       -0.3881218E-03 Eh
 * total energy  :   -91.1001069 Eh     change       -0.7467935E-04 Eh
 * total energy  :   -91.1001405 Eh     change       -0.3364784E-04 Eh
 * total energy  :   -91.1001593 Eh     change       -0.1879948E-04 Eh
 * total energy  :   -91.1001770 Eh     change       -0.1763734E-04 Eh
 * total energy  :   -91.1002226 Eh     change       -0.4564436E-04 Eh
 * total energy  :   -91.1014380 Eh     change       -0.7764980E-06 Eh
 * total energy  :   -91.1014389 Eh     change       -0.9672996E-06 Eh
 * total energy  :   -91.1014403 Eh     change       -0.1306568E-05 Eh
 * total energy  :   -91.1014419 Eh     change       -0.1650946E-05 Eh
 * total energy  :   -91.1014437 Eh     change       -0.1804866E-05 Eh
 * total energy  :   -91.1014454 Eh     change       -0.1697117E-05 Eh
 * total energy  :   -91.1014469 Eh     change       -0.1515124E-05 Eh
 * total energy  :   -91.1014483 Eh     change       -0.1379757E-05 Eh
 * total energy  :   -91.1014483 Eh     change       -0.7053828E-08 Eh
   *** GEOMETRY OPTIMIZATION CONVERGED AFTER 68 ITERATIONS ***

 final structure:
================
55
 xtb: 6.7.1 (edcfbbe)
C           -5.92046391061486        2.45420187342873        2.40869086458171
C           -4.56824383137912        2.72827142688496        2.37810422623253
C           -3.72085591408712        1.98711090610991        1.56865710832333
C           -4.21655073623365        0.96861537547570        0.76388402401260
C           -5.58483743285702        0.67452102091406        0.83045889223760
C           -6.42537230154526        1.41619907764056        1.63945887660888
O           -6.15007926036681       -0.35537273251370        0.12199917774989
C           -5.31746807490998       -1.12017911346607       -0.65680505156459
C           -5.90032510071038       -2.16334878565091       -1.35227301463831
C           -5.13538536861613       -2.96155054379316       -2.18935847408464
C           -3.78868736826634       -2.69751762433847       -2.33452364910218
C           -3.19833411269651       -1.65547581394606       -1.63592800242244
C           -3.94455502729577       -0.86288312400233       -0.77304018795152
N           -3.38848523879166        0.20524580756013       -0.06233799009221
C           -2.02728359538351        0.54191727880555       -0.20000385347019
C           -1.69081107974993        1.81000738162427       -0.73437118209658
C           -0.38923640647625        2.17397811405421       -0.90567542640733
C            0.64755362063262        1.28432458139664       -0.54496348769860
N            1.92565436823624        1.63978839656407       -0.71986049744303
C            2.86340261377998        0.78188240225625       -0.35939200440690
C            4.25137744621647        1.13839459340380       -0.55012702044934
C            4.56753786841196        2.36916120971342       -1.13250533855951
C            5.87748363143880        2.73434067951600       -1.33623794567789
C            6.89457681356110        1.86531222400755       -0.95767126310660
C            6.59653118152752        0.65028863563470       -0.38036152217837
C            5.27340987652844        0.25119495924196       -0.15771663202006
C            4.93199908339060       -1.02660220098208        0.45238486986740
C            5.90231492808815       -1.93664744754124        0.88829340279823
C            5.55453350555298       -3.14137224242864        1.45934901845085
C            4.21719388762758       -3.48703149624144        1.61707093651555
C            3.24102930128284       -2.61214746587272        1.20152579427651
C            3.58033193968409       -1.38560675301329        0.62361660015972
C            2.52784755693714       -0.48410187052006        0.20963726354355
N            1.27047333835087       -0.85164576255241        0.37079137378699
C            0.31106500682555        0.00871497025325       -0.00068223587847
C           -1.04278455024053       -0.34233720488856        0.16344861037699
H           -6.58441723769396        3.02999088270925        3.03386154785093
H           -4.15680966895333        3.51800005480205        2.98766633289015
H           -2.66297429170257        2.19889279575905        1.56893991774729
H           -7.47311745259068        1.16206557906672        1.65618940323610
H           -6.95870600818601       -2.32901635905453       -1.22941679969499
H           -5.59851130476462       -3.77386001362657       -2.72681798322121
H           -3.18226436017134       -3.29759308761577       -2.99532525494003
H           -2.14790802472470       -1.45297889368099       -1.77246469815704
H           -2.49189486971721        2.47669381388887       -1.01872060034556
H           -0.11810966036418        3.13123577245867       -1.32271267510331
H            3.75208020107079        3.01585625312067       -1.41586816273854
H            6.11673742946345        3.68554685445895       -1.78765521977082
H            7.92663028349288        2.14212983647345       -1.11673211503250
H            7.41240189441680        0.00260230064931       -0.10205907376808
H            6.94989562247698       -1.70345873765116        0.78464068392190
H            6.32852292469568       -3.82038143860739        1.78638902368883
H            3.95030968024630       -4.43297156882503        2.06397929062325
H            2.19328939413107       -2.84403365003848        1.31066250497443
H           -1.27971320897664       -1.30836912701633        0.58191261756004

          :  Hamiltonian                  GFN2-xTB          :
         :: gradient norm              0.000066590217 Eh/a0 ::
         :: HOMO-LUMO gap              1.099592538687 eV    ::
         :: SCC energy               -92.722913958346 Eh    ::
         :: -> dispersion             -0.076410384171 Eh    ::
         :: repulsion energy           1.621465650128 Eh    ::

    * Orbital Energies and Occupations

         #    Occupation            Energy/Eh            Energy/eV
      -------------------------------------------------------------
         1        2.0000           -0.7266534             -19.7732
       ...           ...                  ...                  ...
        72        2.0000           -0.4250859             -11.5672
        73        2.0000           -0.4240892             -11.5401
        74        2.0000           -0.4197841             -11.4229
        75        2.0000           -0.4177295             -11.3670
        76        2.0000           -0.4144371             -11.2774
        77        2.0000           -0.4115133             -11.1978
        78        2.0000           -0.4102366             -11.1631
        79        2.0000           -0.4025197             -10.9531
        80        2.0000           -0.3940304             -10.7221
        81        2.0000           -0.3904265             -10.6240
        82        2.0000           -0.3880390             -10.5591
        83        2.0000           -0.3500868              -9.5263
        84        2.0000           -0.3422826              -9.3140 (HOMO)
        85                         -0.3018734              -8.2144 (LUMO)
        86                         -0.2667422              -7.2584
        87                         -0.2539869              -6.9113
        88                         -0.2370367              -6.4501
        89                         -0.2286245              -6.2212
        90                         -0.2267796              -6.1710
        91                         -0.2226564              -6.0588
        92                         -0.2115109              -5.7555
        93                         -0.2034986              -5.5375
        94                         -0.1970076              -5.3608
        95                         -0.1935592              -5.2670
       ...                                ...                  ...
       163                          0.7148449              19.4519
      -------------------------------------------------------------
                  HL-Gap            0.0404092 Eh            1.0996 eV

     #   Z          covCN         q      C6AA      α(0)
     1   6 C        2.919    -0.040    28.989     8.829
     2   6 C        2.919    -0.039    28.959     8.825
     3   6 C        2.924    -0.059    29.463     8.901
     4   6 C        2.923     0.043    27.043     8.528
     5   6 C        2.884     0.125    25.254     8.239
     6   6 C        2.920    -0.056    29.397     8.891
     7   8 O        1.709    -0.254    18.209     5.761
     8   6 C        2.884     0.125    25.257     8.239
     9   6 C        2.920    -0.056    29.389     8.890
    10   6 C        2.919    -0.040    28.989     8.829
    11   6 C        2.919    -0.038    28.943     8.822
    12   6 C        2.924    -0.059    29.472     8.903
    13   6 C        2.921     0.043    27.047     8.528
    14   7 N        2.752    -0.068    22.555     7.054
    15   6 C        2.918     0.066    26.513     8.444
    16   6 C        2.918    -0.039    28.959     8.825
    17   6 C        2.916    -0.040    29.000     8.831
    18   6 C        2.967     0.079    26.227     8.400
    19   7 N        1.848    -0.239    27.102     7.716
    20   6 C        2.962     0.082    26.165     8.390
    21   6 C        2.988    -0.001    28.048     8.687
    22   6 C        2.924    -0.027    28.677     8.782
    23   6 C        2.917    -0.028    28.711     8.787
    24   6 C        2.918    -0.027    28.679     8.782
    25   6 C        2.922    -0.034    28.837     8.806
    26   6 C        2.976     0.007    27.866     8.659
    27   6 C        2.976     0.007    27.857     8.658
    28   6 C        2.922    -0.034    28.838     8.806
    29   6 C        2.918    -0.027    28.671     8.781
    30   6 C        2.917    -0.028    28.710     8.787
    31   6 C        2.924    -0.027    28.669     8.781
    32   6 C        2.988    -0.001    28.052     8.688
    33   6 C        2.961     0.084    26.119     8.383
    34   7 N        1.849    -0.242    27.167     7.725
    35   6 C        2.966     0.081    26.190     8.394
    36   6 C        2.920    -0.056    29.393     8.891
    37   1 H        0.926     0.038     2.471     2.458
    38   1 H        0.926     0.036     2.498     2.471
    39   1 H        0.926     0.035     2.520     2.482
    40   1 H        0.926     0.051     2.312     2.378
    41   1 H        0.926     0.051     2.311     2.377
    42   1 H        0.926     0.038     2.470     2.457
    43   1 H        0.926     0.037     2.490     2.468
    44   1 H        0.926     0.037     2.495     2.470
    45   1 H        0.926     0.047     2.360     2.402
    46   1 H        0.926     0.056     2.242     2.341
    47   1 H        0.926     0.059     2.212     2.326
    48   1 H        0.926     0.036     2.504     2.475
    49   1 H        0.926     0.034     2.525     2.485
    50   1 H        0.926     0.036     2.502     2.473
    51   1 H        0.926     0.036     2.500     2.472
    52   1 H        0.926     0.035     2.522     2.484
    53   1 H        0.926     0.036     2.500     2.473
    54   1 H        0.926     0.059     2.205     2.322
    55   1 H        0.926     0.058     2.218     2.329

molecular dipole:
                 x           y           z       tot (Debye)
 q only:        0.752       0.036      -0.022
   full:        0.851       0.067      -0.036       2.173

 projected vibrational frequencies (cm⁻¹)
eigval :       -0.00    -0.00    -0.00    -0.00     0.00     0.00
eigval :       14.16    19.54    24.61    45.58    58.33    59.02
eigval :       83.80    94.15   106.76   116.52   135.69   151.18
eigval :      194.57   201.97   230.05   249.77   252.69   258.40
eigval :      282.13   290.92   302.16   348.26   369.47   376.83
eigval :      383.57   395.01   399.20   402.21   418.92   429.32
eigval :      436.74   439.87   443.69   453.75   509.86   515.26
eigval :      520.92   523.53   531.65   551.39   557.59   578.10
eigval :      580.15   589.02   595.80   622.76   625.14   659.85
eigval :      661.72   669.06   671.70   682.49   701.41   706.68
eigval :      734.39   762.30   768.09   769.19   778.65   779.09
eigval :      789.65   793.24   821.89   838.34   855.45   857.14
eigval :      863.10   865.37   869.83   879.78   884.87   896.95
eigval :      900.15   914.14   915.87   917.17   917.40   920.91
eigval :      926.03   929.01   929.60   941.39   986.79  1023.62
eigval :     1061.31  1084.83  1090.28  1091.07  1101.62  1108.60
eigval :     1112.82  1142.49  1149.03  1149.24  1165.85  1175.66
eigval :     1181.24  1181.41  1183.91  1199.28  1202.19  1218.87
eigval :     1234.68  1242.16  1248.67  1257.16  1262.00  1283.94
eigval :     1286.91  1296.27  1304.71  1311.49  1325.21  1334.74
eigval :     1341.48  1346.87  1355.32  1371.11  1412.91  1422.83
eigval :     1426.30  1426.91  1436.64  1444.31  1462.70  1476.17
eigval :     1486.13  1487.46  1501.83  1502.70  1532.77  1555.94
eigval :     1567.56  1569.38  1580.18  1587.31  1589.56  1597.28
eigval :     1599.60  1603.59  3076.68  3077.36  3084.73  3088.10
eigval :     3089.06  3089.16  3089.70  3098.18  3099.51  3099.83
eigval :     3100.91  3102.36  3105.07  3108.08  3109.25  3109.65
eigval :     3110.48  3112.86  3113.40

   temp. (K)  partition function   enthalpy   heat capacity  entropy
                                   cal/mol     cal/K/mol   cal/K/mol   J/K/mol
 298.15  VIB  0.272E+11            14777.705     99.371     89.029
         ROT  0.359E+08              888.752      2.981     37.552
         INT  0.976E+18            15666.457    102.352    126.581
         TR   0.959E+28             1481.254      4.968     44.257
         TOT                       17147.7114   107.3202   170.8380   714.7864

       T/K    H(0)-H(T)+PV         H(T)/Eh          T*S/Eh         G(T)/Eh
   ------------------------------------------------------------------------
    298.15    0.273266E-01    0.437600E+00    0.811707E-01    0.356429E+00
   ------------------------------------------------------------------------

         :::::::::::::::::::::::::::::::::::::::::::::::::::::
         ::                  THERMODYNAMIC                  ::
         :::::::::::::::::::::::::::::::::::::::::::::::::::::
         :: total free energy         -90.745019155841 Eh   ::
         ::.................................................::
         :: total energy              -91.101448308218 Eh   ::
         :: zero point energy           0.410273199687 Eh   ::
         :: G(RRHO) w/o ZPVE           -0.053844047310 Eh   ::
         :: G(RRHO) contrib.            0.356429152376 Eh   ::
         :::::::::::::::::::::::::::::::::::::::::::::::::::::

           -------------------------------------------------
          | TOTAL ENERGY              -91.101448308218 Eh   |
          | TOTAL ENTHALPY            -90.663848490990 Eh   |
          | TOTAL FREE ENERGY         -90.745019155841 Eh   |
          | GRADIENT NORM               0.000066588595 Eh/α |
          | HOMO-LUMO GAP               1.099591520338 eV   |
           -------------------------------------------------

 * finished run on 2025/09/05 at 11:33:23.154
