   * xtb version 6.7.1 (edcfbbe) compiled by 'albert@albert-system' on 2024-07-22

   ID    Z sym.   atoms
    1    6 C      1-6, 8-13, 15-18, 20-33, 35, 36
    2    8 O      7
    3    7 N      14, 19, 34
    4    1 H      37-55

          program call               : xtb data2507/gas/PXZ-11-DPPZ/PXZ-11-DPPZ_gas_T1_crest.xyz --gfn 2 --spinpol --tblite --uhf 2 --ohess vtight --parallel 40 --molden --ceasefiles --namespace data2507/gas/PXZ-11-DPPZ/PXZ-11-DPPZ_gas_T1_finalOpt
 * total energy  :   -91.0597435 Eh     change        0.3257470E-07 Eh
 * total energy  :   -91.0597654 Eh     change       -0.2181315E-04 Eh
 * total energy  :   -91.0597695 Eh     change       -0.4169767E-05 Eh
 * total energy  :   -91.0597702 Eh     change       -0.6586274E-06 Eh
 * total energy  :   -91.0597705 Eh     change       -0.3600324E-06 Eh
 * total energy  :   -91.0597707 Eh     change       -0.1276147E-06 Eh
 * total energy  :   -91.0597710 Eh     change       -0.3585007E-06 Eh
 * total energy  :   -91.0597713 Eh     change       -0.2580402E-06 Eh
 * total energy  :   -91.0597714 Eh     change       -0.1479077E-06 Eh
 * total energy  :   -91.0597715 Eh     change       -0.1101445E-06 Eh
 * total energy  :   -91.0597717 Eh     change       -0.1083573E-06 Eh
 * total energy  :   -91.0597717 Eh     change       -0.4173540E-07 Eh
   *** GEOMETRY OPTIMIZATION CONVERGED AFTER 12 ITERATIONS ***

 final structure:
================
55
 xtb: 6.7.1 (edcfbbe)
C           -5.83083966800490        2.47506795093419       -2.27054960417790
C           -4.49531790690521        2.81017854797068       -2.14854983122679
C           -3.65133169905103        2.05211002207187       -1.35443109473895
C           -4.13315505023078        0.94658646695191       -0.66087595956858
C           -5.48557109998224        0.60076151947263       -0.81029083181000
C           -6.32301337796693        1.36354131962308       -1.60396617619189
O           -6.03155510420513       -0.49630576050753       -0.19708494680703
C           -5.20728335768497       -1.26293236346767        0.58464403156910
C           -5.76784289879948       -2.36877592238712        1.19781960895299
C           -4.99670968722702       -3.17664557623400        2.01920344500984
C           -3.66698917350313       -2.86480197604797        2.23183985119446
C           -3.09858963185683       -1.75985425564059        1.62047926104223
C           -3.85222026941674       -0.94997155005409        0.77702173512559
N           -3.31522676515330        0.16575950209517        0.14620278593846
C           -1.95354339644733        0.51383056503197        0.33764879962340
C           -1.62715420803258        1.66192152383498        1.05057552118389
C           -0.30175462836200        2.00709728350071        1.24073203026761
C            0.72794181582153        1.21429120433616        0.73595123690330
N            2.01277259855399        1.51384498176724        0.90518297412363
C            2.98655382604932        0.75204152149239        0.41825104150449
C            4.35980121440883        1.09242075443062        0.61925335482842
C            4.67497069385332        2.25252571625490        1.34587457490835
C            5.97950344069692        2.61351240469896        1.55987906327829
C            7.00669057090089        1.81914079811768        1.04980724021770
C            6.71654023255046        0.68093100444010        0.33657425005696
C            5.39348308359275        0.28038074301912        0.09808599397045
C            5.05349266772301       -0.91018530324382       -0.64638910488797
C            6.01732434436582       -1.76762122857667       -1.19751964461069
C            5.66171657749343       -2.89400321307405       -1.89978740367714
C            4.31676781148192       -3.21573505483939       -2.08354670738975
C            3.34811403257929       -2.40014744742435       -1.55957610460878
C            3.69320060149840       -1.24468731566795       -0.83920100781613
C            2.65170714626634       -0.42062224993858       -0.31051443982969
N            1.37327114147251       -0.73763610447737       -0.48369043004973
C            0.38667187397761        0.01639305214311       -0.00173888407401
C           -0.95493092084728       -0.29952329179833       -0.18740764665222
H           -6.49067323618974        3.06603137163553       -2.88569138765137
H           -4.09855752217659        3.66503842433725       -2.67393376687874
H           -2.60821733859871        2.31343654486122       -1.27218876930385
H           -7.35637358910981        1.06788193648971       -1.68930740516579
H           -6.81101014432209       -2.57717997714400        1.02202793846084
H           -5.44067656144565       -4.03804882029203        2.49239416674860
H           -3.06053507246007       -3.47936160081786        2.87893007743317
H           -2.06305860064187       -1.51828268698621        1.79945167551521
H           -2.41385017982267        2.28048848217338        1.45514306305574
H           -0.03767597218525        2.89473989306018        1.79305372077053
H            3.85844109576052        2.84648182259279        1.72746094013341
H            6.21444972693895        3.50669508881898        2.11950137253412
H            8.03610370943995        2.10066461220259        1.21677141745529
H            7.53437551137727        0.08956164766974       -0.04340373321003
H            7.06588761952697       -1.54814148084221       -1.07396637974970
H            6.42786199540510       -3.53430210429389       -2.31192627298896
H            4.04401590893262       -4.10266526938642       -2.63594027957031
H            2.29933906551499       -2.62220178401791       -1.68542678300451
H           -1.20892535845368       -1.18488831906900       -0.74890024446561

 projected vibrational frequencies (cm⁻¹)
eigval :       -0.00    -0.00    -0.00     0.00     0.00     0.00
eigval :       13.44    19.20    25.44    47.95    55.59    60.08
eigval :       84.10   102.58   105.64   112.41   134.41   149.29
eigval :      189.01   191.85   228.32   244.50   247.83   257.94
eigval :      269.66   283.34   300.34   344.01   370.01   375.81
eigval :      386.57   395.42   402.80   404.10   417.11   428.83
eigval :      429.89   439.36   446.91   454.71   505.89   510.88
eigval :      519.83   523.06   525.29   543.85   554.45   575.81
eigval :      578.58   586.43   589.95   612.43   621.31   628.97
eigval :      661.24   664.34   665.94   673.12   679.08   691.11
eigval :      699.56   724.36   759.24   764.99   777.28   778.01
eigval :      778.93   789.03   799.02   813.50   832.52   851.45
eigval :      855.38   864.10   864.45   864.93   873.98   880.16
eigval :      898.02   899.15   908.32   913.15   915.60   915.68
eigval :      916.00   919.37   921.39   922.63   992.17  1010.11
eigval :     1060.32  1082.22  1087.18  1088.28  1098.56  1110.86
eigval :     1115.95  1132.43  1145.98  1150.63  1166.54  1175.13
eigval :     1180.15  1180.72  1182.58  1203.80  1204.09  1222.81
eigval :     1225.08  1240.44  1247.61  1256.58  1258.04  1260.19
eigval :     1275.79  1282.75  1300.51  1314.10  1314.88  1329.48
eigval :     1338.65  1342.23  1349.58  1357.21  1371.80  1391.25
eigval :     1409.50  1416.61  1422.52  1429.35  1443.29  1463.87
eigval :     1466.27  1471.73  1478.36  1494.92  1517.35  1531.84
eigval :     1536.71  1553.22  1562.47  1571.63  1583.69  1584.78
eigval :     1594.24  1594.51  3075.38  3075.97  3084.22  3085.33
eigval :     3090.29  3092.20  3092.51  3096.13  3097.65  3098.78
eigval :     3099.66  3101.43  3101.91  3104.17  3107.92  3109.13
eigval :     3110.88  3114.07  3114.50

   temp. (K)  partition function   enthalpy   heat capacity  entropy
                                   cal/mol     cal/K/mol   cal/K/mol   J/K/mol
 298.15  VIB  0.325E+11            14929.662    100.458     89.929
         ROT  0.360E+08              888.752      2.981     37.559
         INT  0.117E+19            15818.414    103.439    127.488
         TR   0.959E+28             1481.254      4.968     44.257
         TOT                       17299.6682   108.4074   171.7441   718.5773

       T/K    H(0)-H(T)+PV         H(T)/Eh          T*S/Eh         G(T)/Eh
   ------------------------------------------------------------------------
    298.15    0.275688E-01    0.435488E+00    0.816012E-01    0.353887E+00
   ------------------------------------------------------------------------

         :::::::::::::::::::::::::::::::::::::::::::::::::::::
         ::                  THERMODYNAMIC                  ::
         :::::::::::::::::::::::::::::::::::::::::::::::::::::
         :: total free energy         -90.705884837238 Eh   ::
         ::.................................................::
         :: total energy              -91.059771715165 Eh   ::
         :: zero point energy           0.407919269123 Eh   ::
         :: G(RRHO) w/o ZPVE           -0.054032391196 Eh   ::
         :: G(RRHO) contrib.            0.353886877927 Eh   ::
         :::::::::::::::::::::::::::::::::::::::::::::::::::::

           -------------------------------------------------
          | TOTAL ENERGY              -91.059771715165 Eh   |
          | TOTAL ENTHALPY            -90.624283669961 Eh   |
          | TOTAL FREE ENERGY         -90.705884837238 Eh   |
          | GRADIENT NORM               0.000053997984 Eh/α |
           -------------------------------------------------

 * finished run on 2025/09/05 at 11:38:28.751
