   * xtb version 6.7.1 (edcfbbe) compiled by 'albert@albert-system' on 2024-07-22

   ID    Z sym.   atoms
    1    6 C      1-6, 8, 10-18, 20-44, 46-62
    2    7 N      7, 19, 45
    3    8 O      9, 63
    4    1 H      64-108

          program call               : xtb data2507/toluene/Cbz-MI/Cbz-MI_toluene_S0_finalOpt.xtbopt.xyz --gfn 2 --uhf 2 --gbsa toluene --ohess vtight --parallel 40 --molden --ceasefiles --namespace data2507/toluene/Cbz-MI/Cbz-MI_toluene_T1_preOpt
      * Solvation model:               GBSA
        Solvent                        toluene
        Solvent mass                       9.2140E+01 g/mol
          :  Hamiltonian                  GFN2-xTB          :
 * total energy  :  -164.1499086 Eh     change       -0.1366260E-08 Eh
 * total energy  :  -164.1574617 Eh     change       -0.7553071E-02 Eh
 * total energy  :  -164.1593991 Eh     change       -0.1937393E-02 Eh
 * total energy  :  -164.1597325 Eh     change       -0.3334292E-03 Eh
 * total energy  :  -164.1602005 Eh     change       -0.4679891E-03 Eh
 * total energy  :  -164.1606013 Eh     change       -0.4007586E-03 Eh
 * total energy  :  -164.1611444 Eh     change       -0.5431594E-03 Eh
 * total energy  :  -164.1616510 Eh     change       -0.5065751E-03 Eh
 * total energy  :  -164.1619549 Eh     change       -0.3039288E-03 Eh
 * total energy  :  -164.1621272 Eh     change       -0.1723016E-03 Eh
 * total energy  :  -164.1843722 Eh     change       -0.9104573E-06 Eh
 * total energy  :  -164.1843729 Eh     change       -0.7442539E-06 Eh
 * total energy  :  -164.1843737 Eh     change       -0.8405295E-06 Eh
 * total energy  :  -164.1843746 Eh     change       -0.8653124E-06 Eh
 * total energy  :  -164.1843759 Eh     change       -0.1256711E-05 Eh
 * total energy  :  -164.1843772 Eh     change       -0.1368056E-05 Eh
 * total energy  :  -164.1843788 Eh     change       -0.1580546E-05 Eh
 * total energy  :  -164.1843805 Eh     change       -0.1714872E-05 Eh
 * total energy  :  -164.1843805 Eh     change       -0.9749328E-08 Eh
   *** GEOMETRY OPTIMIZATION CONVERGED AFTER 1140 ITERATIONS ***

 final structure:
================
108
 xtb: 6.7.1 (edcfbbe)
C            9.42010655559858        3.39221481066118       -3.62728534259744
C            8.71151794604924        2.57895621424966       -2.54937004394957
C            9.15833676725447        1.11782806946322       -2.56017917454966
C            8.40299857093908        0.24138550961438       -1.56038963474262
C            8.71414365595413        0.58378267427612       -0.10482436212313
C            8.05541257924223       -0.39331575082438        0.87168467248733
N            6.61580716861720       -0.35627362985222        0.79111213227355
C            5.84862763254719       -1.37704705753814        0.24421817361485
O            6.33250310974796       -2.41379285825486       -0.20550536401651
C            4.47188752757252       -0.92328169707076        0.29743229720961
C            3.41196631325858       -1.53962152611968       -0.42328325648682
C            3.44364548519717       -2.91677516896934       -0.73282247227419
C            2.39492799651923       -3.52055482853170       -1.37782091636259
C            1.27118972423802       -2.78711808672935       -1.79229011288062
C            0.14994553038421       -3.43375673158594       -2.46062663234719
C           -0.22500198829415       -4.74302183172367       -2.13471717127845
C           -1.30339509003182       -5.34848225627440       -2.74082898001987
C           -2.04311715561912       -4.66529289999585       -3.70743104027347
N           -3.14348800665541       -5.26953555453394       -4.31817567073299
C           -4.39076791833380       -4.69523035318346       -4.48121580996344
C           -4.86256470513315       -3.46522878757997       -4.04272240029230
C           -6.18023325870362       -3.14499742309614       -4.31401664070370
C           -7.01735810293661       -4.02630077297545       -4.99378745060256
C           -6.56144682333970       -5.26498755783040       -5.40657447130226
C           -5.24226491473384       -5.60732762924829       -5.14669222163055
C           -4.45843442952103       -6.78703015593129       -5.40102632835907
C           -4.72824147974715       -7.99233936069395       -6.03278157937859
C           -3.71453634017325       -8.92763776884893       -6.13403802389257
C           -2.44328649502610       -8.66378406465188       -5.63011644530989
C           -2.15095490041556       -7.46918910788387       -4.99774524892493
C           -3.17223896902336       -6.53763891778533       -4.86811661665219
C           -1.67017325716624       -3.36534041596318       -4.05356070685018
C           -0.59632661786191       -2.76286079838908       -3.43737975972233
C            1.26758548930242       -1.40526153081843       -1.54823104068399
C            2.30018702024145       -0.79689146681056       -0.88391629260662
C            4.45823261204081        0.32554204163240        0.99332772536782
C            3.34439686947621        0.99900627290988        1.56668700253980
C            2.14283776504793        0.31749352765376        1.86921508710736
C            1.06301084173400        0.98196019716123        2.38908954773057
C            1.10613062093345        2.36285524555124        2.63409903977611
C           -0.06327449520351        3.07256787438351        3.13512975517270
C           -0.97331120925489        2.45316266931610        4.00049122389204
C           -2.09240407859835        3.11630609734804        4.45233240652848
C           -2.34815051973441        4.42652984827922        4.04405033982246
N           -3.49498030013117        5.09169620950334        4.48105749624348
C           -3.54322382604275        6.37454222567369        4.99419295312968
C           -2.50781221942748        7.26007767986055        5.26149689728449
C           -2.83260945324786        8.48478525965269        5.81556969791299
C           -4.15121383261216        8.82308469574828        6.10962060950659
C           -5.18356937700809        7.93395806330998        5.87227707776394
C           -4.88162919342713        6.69965457587498        5.31545987188005
C           -5.67599473342938        5.55111265872477        4.96820458695743
C           -7.03517775517465        5.27930532564391        5.02842038844916
C           -7.48509576457844        4.05173603611309        4.57754126311647
C           -6.59971255495528        3.11249635665134        4.05468498179852
C           -5.24140974569433        3.36226004819017        3.98277944528949
C           -4.78005696944971        4.58097077090458        4.46200828372388
C           -1.44483652440628        5.05867352913853        3.18793268670504
C           -0.32183348748921        4.39345183379169        2.74874783892317
C            2.31323947154092        3.03424556821474        2.38096677079271
C            3.40691917254984        2.37325293658749        1.88357849720157
C            5.83768237007168        0.70164833942056        1.24163949574944
O            6.30693799061478        1.69985914022711        1.78476931167005
H            9.09293282993020        4.42932504603896       -3.59994667744243
H            9.20439517027285        2.98850814968603       -4.61458160006276
H           10.49717487785252        3.36723856367019       -3.47500698694291
H            8.91992766988159        3.02105773013487       -1.57350383917664
H            7.63109234655621        2.62441942335445       -2.70940755871053
H           10.22838237546592        1.06522357780737       -2.34560848243405
H            9.00168766400718        0.71161524545589       -3.56294069139440
H            7.32751491030730        0.33789901246017       -1.73391635765081
H            8.66560107346321       -0.80569620002468       -1.73542031123436
H            8.36156512183100        1.58825523735379        0.13348038503256
H            9.79311599958107        0.55016280086139        0.05869166695270
H            8.35072586711441       -1.42306735451386        0.65020905794445
H            8.34649356865828       -0.13755079457191        1.89642405750501
H            4.30619884945174       -3.49196122279503       -0.43468869769716
H            2.44957199013334       -4.57744005707568       -1.59297194150490
H            0.31208001614066       -5.27364535194083       -1.36355443677794
H           -1.60288139715114       -6.34331679442869       -2.44719751229705
H           -4.22983493734578       -2.78348444080629       -3.49577331352492
H           -6.56942361858294       -2.19200896306517       -3.98719423360187
H           -8.03999779356231       -3.73947264478922       -5.18927446141419
H           -7.21696000013671       -5.95556277230741       -5.91512393549780
H           -5.70777238721402       -8.19022866862607       -6.44099370728766
H           -3.90448534104818       -9.87332376308403       -6.61971627598537
H           -1.66647594507479       -9.40606119245539       -5.73986353189183
H           -1.15615839317257       -7.26749302967329       -4.63158036856238
H           -2.21309499893303       -2.84567581138077       -4.82871602582104
H           -0.30370311160470       -1.77022375751311       -3.74311085980759
H            0.42476536944701       -0.80977910223167       -1.86562506939467
H            2.28221617711593        0.27008620808925       -0.72481478308802
H            2.09097331119382       -0.74774449241506        1.70592691164294
H            0.15443262387937        0.43350041472012        2.58756765004514
H           -0.77755334377334        1.45176551302936        4.35192038028513
H           -2.76472966731042        2.63560359319961        5.14699451168149
H           -1.48003166175052        7.00074313561649        5.05942825526533
H           -2.04496960022513        9.19218914548498        6.02919540519918
H           -4.36503995935879        9.79027348906919        6.53981022686449
H           -6.20288966064092        8.18952269808634        6.11916469859730
H           -7.72444761001719        6.01454804030037        5.41512907405111
H           -8.53887283302450        3.81912488943629        4.61906772148526
H           -6.98230759380752        2.16979644847245        3.69232525007472
H           -4.56861127480396        2.63555511599170        3.55450962467464
H           -1.65007392000037        6.06158552229034        2.84494769375563
H            0.34571881082849        4.88588670844194        2.05842565559867
H            2.39336832864594        4.08753721143960        2.60570967962237
H            4.33125695055307        2.90087416587693        1.70823753844266

          :  Hamiltonian                  GFN2-xTB          :
         :: gradient norm              0.000065492213 Eh/a0 ::
         :: HOMO-LUMO gap              1.460544087876 eV    ::
         :: SCC energy              -167.081004840354 Eh    ::
         :: -> dispersion             -0.141042279562 Eh    ::
         :: -> Gsolv                  -0.081837121410 Eh    ::
         :: repulsion energy           2.896624307390 Eh    ::

    * Orbital Energies and Occupations

         #    Occupation            Energy/Eh            Energy/eV
      -------------------------------------------------------------
         1        2.0000           -0.6944173             -18.8961
       ...           ...                  ...                  ...
       141        2.0000           -0.4127937             -11.2327
       142        2.0000           -0.4127798             -11.2323
       143        2.0000           -0.4093420             -11.1388
       144        2.0000           -0.4058612             -11.0440
       145        2.0000           -0.4034163             -10.9775
       146        2.0000           -0.3914207             -10.6511
       147        2.0000           -0.3866161             -10.5204
       148        2.0000           -0.3866123             -10.5203
       149        2.0000           -0.3864431             -10.5157
       150        1.9998           -0.3743370             -10.1862
       151        1.9796           -0.3698794             -10.0649
       152        1.0206           -0.3625301              -9.8649
       153        1.0000           -0.3148559              -8.5677 (HOMO)
       154                         -0.2611816              -7.1071 (LUMO)
       155                         -0.2607685              -7.0959
       156                         -0.2512853              -6.8378
       157                         -0.2509144              -6.8277
       158                         -0.2367388              -6.4420
       159                         -0.2366807              -6.4404
       160                         -0.2301540              -6.2628
       161                         -0.2301488              -6.2627
       162                         -0.2290333              -6.2323
       163                         -0.2227314              -6.0608
       164                         -0.2227119              -6.0603
       ...                                ...                  ...
       297                          0.7362182              20.0335
      -------------------------------------------------------------
                  HL-Gap            0.0536743 Eh            1.4606 eV

     #   Z          covCN         q      C6AA      α(0)
     1   6 C        3.752    -0.103    22.522     6.768
     2   6 C        3.800    -0.052    21.508     6.603
     3   6 C        3.802    -0.060    21.645     6.624
     4   6 C        3.801    -0.050    21.480     6.598
     5   6 C        3.802    -0.060    21.652     6.625
     6   6 C        3.740     0.021    20.300     6.428
     7   7 N        2.800    -0.139    24.000     7.276
     8   6 C        2.845     0.257    22.678     7.805
     9   8 O        0.857    -0.494    23.655     6.521
    10   6 C        3.029    -0.054    29.311     8.880
    11   6 C        2.967     0.026    27.411     8.588
    12   6 C        2.919    -0.032    28.789     8.799
    13   6 C        2.919    -0.031    28.770     8.796
    14   6 C        2.974     0.015    27.678     8.630
    15   6 C        2.974     0.015    27.668     8.628
    16   6 C        2.923    -0.030    28.743     8.792
    17   6 C        2.918    -0.040    29.003     8.831
    18   6 C        2.912     0.064    26.569     8.452
    19   7 N        2.801    -0.024    21.712     6.921
    20   6 C        3.071     0.046    26.887     8.502
    21   6 C        2.910    -0.047    29.164     8.855
    22   6 C        2.923    -0.032    28.805     8.801
    23   6 C        2.920    -0.037    28.918     8.818
    24   6 C        2.912    -0.031    28.782     8.797
    25   6 C        3.065    -0.014    28.285     8.721
    26   6 C        3.066    -0.014    28.286     8.721
    27   6 C        2.912    -0.031    28.783     8.797
    28   6 C        2.920    -0.037    28.917     8.818
    29   6 C        2.923    -0.032    28.803     8.801
    30   6 C        2.910    -0.047    29.163     8.855
    31   6 C        3.071     0.046    26.886     8.502
    32   6 C        2.919    -0.040    29.004     8.831
    33   6 C        2.923    -0.030    28.752     8.793
    34   6 C        2.919    -0.033    28.812     8.802
    35   6 C        2.919    -0.033    28.811     8.802
    36   6 C        3.030    -0.054    29.322     8.882
    37   6 C        2.968     0.026    27.412     8.588
    38   6 C        2.919    -0.033    28.812     8.802
    39   6 C        2.919    -0.033    28.811     8.802
    40   6 C        2.975     0.015    27.680     8.630
    41   6 C        2.974     0.015    27.669     8.628
    42   6 C        2.923    -0.030    28.751     8.793
    43   6 C        2.919    -0.040    29.006     8.832
    44   6 C        2.912     0.064    26.569     8.452
    45   7 N        2.801    -0.024    21.712     6.920
    46   6 C        3.071     0.046    26.886     8.502
    47   6 C        2.910    -0.047    29.162     8.855
    48   6 C        2.923    -0.032    28.803     8.801
    49   6 C        2.920    -0.037    28.916     8.818
    50   6 C        2.912    -0.031    28.783     8.797
    51   6 C        3.065    -0.014    28.286     8.721
    52   6 C        3.065    -0.014    28.284     8.721
    53   6 C        2.912    -0.031    28.782     8.797
    54   6 C        2.920    -0.037    28.918     8.818
    55   6 C        2.923    -0.032    28.805     8.801
    56   6 C        2.910    -0.047    29.166     8.856
    57   6 C        3.071     0.046    26.888     8.502
    58   6 C        2.918    -0.040    29.005     8.832
    59   6 C        2.924    -0.030    28.744     8.792
    60   6 C        2.919    -0.031    28.773     8.796
    61   6 C        2.919    -0.031    28.785     8.798
    62   6 C        2.844     0.258    22.661     7.802
    63   8 O        0.857    -0.493    23.625     6.517
    64   1 H        0.925     0.035     2.513     2.479
    65   1 H        0.925     0.035     2.519     2.482
    66   1 H        0.925     0.036     2.506     2.476
    67   1 H        0.924     0.030     2.591     2.517
    68   1 H        0.924     0.026     2.651     2.546
    69   1 H        0.924     0.035     2.517     2.481
    70   1 H        0.924     0.034     2.531     2.488
    71   1 H        0.924     0.020     2.739     2.588
    72   1 H        0.924     0.032     2.551     2.498
    73   1 H        0.924     0.047     2.362     2.403
    74   1 H        0.924     0.043     2.404     2.425
    75   1 H        0.924     0.056     2.242     2.342
    76   1 H        0.924     0.045     2.380     2.412
    77   1 H        0.926     0.049     2.326     2.385
    78   1 H        0.926     0.044     2.400     2.422
    79   1 H        0.926     0.049     2.330     2.387
    80   1 H        0.926     0.050     2.320     2.382
    81   1 H        0.926     0.039     2.461     2.453
    82   1 H        0.926     0.037     2.485     2.465
    83   1 H        0.926     0.035     2.514     2.479
    84   1 H        0.926     0.037     2.484     2.464
    85   1 H        0.926     0.038     2.480     2.463
    86   1 H        0.926     0.035     2.518     2.481
    87   1 H        0.926     0.036     2.497     2.471
    88   1 H        0.926     0.038     2.473     2.459
    89   1 H        0.926     0.050     2.315     2.379
    90   1 H        0.926     0.050     2.320     2.382
    91   1 H        0.926     0.047     2.357     2.401
    92   1 H        0.926     0.040     2.448     2.447
    93   1 H        0.926     0.040     2.451     2.448
    94   1 H        0.926     0.047     2.360     2.402
    95   1 H        0.926     0.050     2.323     2.383
    96   1 H        0.926     0.050     2.315     2.379
    97   1 H        0.926     0.038     2.473     2.459
    98   1 H        0.926     0.036     2.497     2.471
    99   1 H        0.926     0.035     2.517     2.481
   100   1 H        0.926     0.038     2.481     2.463
   101   1 H        0.926     0.037     2.483     2.464
   102   1 H        0.926     0.035     2.514     2.480
   103   1 H        0.926     0.037     2.485     2.465
   104   1 H        0.926     0.039     2.460     2.452
   105   1 H        0.926     0.050     2.320     2.382
   106   1 H        0.926     0.049     2.329     2.387
   107   1 H        0.926     0.044     2.399     2.422
   108   1 H        0.926     0.049     2.326     2.385

molecular dipole:
                 x           y           z       tot (Debye)
 q only:       -6.586       0.304      -0.665
   full:       -6.349       0.247      -0.573      16.215

 projected vibrational frequencies (cm⁻¹)
eigval :       -0.00    -0.00    -0.00    -0.00    -0.00     0.00
eigval :        5.17     6.93     9.44    11.69    13.63    17.33
eigval :       22.58    25.73    30.09    37.08    48.10    49.94
eigval :       57.08    61.15    64.05    65.94    81.10    83.31
eigval :       88.49    89.61    96.68   105.59   106.38   113.73
eigval :      117.25   118.67   120.62   137.49   146.28   147.39
eigval :      162.25   176.08   181.81   211.20   214.57   216.55
eigval :      221.61   231.75   250.80   252.49   256.40   268.99
eigval :      271.29   272.54   284.96   292.45   294.49   309.74
eigval :      312.26   341.55   350.96   358.52   368.54   372.31
eigval :      379.38   385.20   388.73   389.88   390.57   398.50
eigval :      409.96   411.21   418.59   419.80   422.40   432.81
eigval :      435.37   440.73   460.86   465.03   490.31   493.50
eigval :      502.82   515.69   515.88   528.47   530.78   539.06
eigval :      539.76   541.47   542.41   548.55   581.25   581.48
eigval :      582.31   593.28   594.00   594.92   600.25   607.79
eigval :      615.67   615.90   631.68   657.00   671.58   674.79
eigval :      675.54   679.40   683.66   689.05   693.93   699.28
eigval :      705.49   710.64   711.05   730.38   750.27   752.81
eigval :      760.84   764.40   769.55   769.85   773.62   779.48
eigval :      779.87   798.31   807.08   807.75   831.49   832.44
eigval :      844.28   845.66   854.59   857.97   859.48   861.99
eigval :      872.35   873.28   874.21   876.20   880.42   891.24
eigval :      896.75   896.86   902.98   904.31   904.54   905.33
eigval :      915.95   916.78   920.20   920.42   920.56   921.20
eigval :      922.46   922.73   923.40   926.43   926.61   926.96
eigval :      927.61   932.62   934.61   972.40   981.36   987.56
eigval :     1010.23  1010.46  1010.85  1010.90  1013.08  1046.48
eigval :     1066.35  1067.00  1068.69  1068.75  1069.73  1071.65
eigval :     1072.00  1083.91  1101.30  1114.19  1114.89  1126.18
eigval :     1128.26  1133.89  1136.02  1137.48  1145.81  1146.73
eigval :     1149.72  1154.97  1158.69  1173.53  1173.73  1177.53
eigval :     1177.82  1180.23  1180.99  1194.46  1196.12  1203.87
eigval :     1204.35  1206.94  1230.56  1230.69  1230.80  1238.71
eigval :     1239.57  1248.77  1262.71  1263.00  1264.73  1272.44
eigval :     1273.31  1276.18  1287.81  1288.27  1288.30  1290.76
eigval :     1291.16  1296.81  1298.90  1307.19  1313.51  1313.87
eigval :     1315.74  1323.02  1323.30  1328.06  1333.21  1348.70
eigval :     1348.76  1354.22  1355.71  1357.48  1360.53  1364.82
eigval :     1370.59  1373.68  1406.95  1407.26  1409.30  1411.14
eigval :     1416.61  1417.58  1417.81  1420.57  1423.84  1427.28
eigval :     1430.31  1461.13  1464.28  1464.44  1466.74  1476.25
eigval :     1481.71  1481.96  1487.83  1491.14  1493.08  1493.48
eigval :     1495.34  1495.51  1496.38  1499.88  1503.45  1538.13
eigval :     1538.16  1541.61  1553.86  1569.63  1569.66  1582.15
eigval :     1582.62  1585.85  1585.88  1587.85  1587.91  1603.15
eigval :     1605.35  1645.81  1653.96  2931.25  2950.11  2954.03
eigval :     2958.79  2962.53  2970.55  2974.26  2979.19  2985.04
eigval :     3000.73  3024.04  3027.45  3034.01  3076.92  3077.18
eigval :     3077.44  3077.74  3081.24  3081.26  3083.00  3083.25
eigval :     3083.39  3083.85  3084.22  3084.64  3087.22  3087.50
eigval :     3088.79  3088.85  3091.38  3091.59  3092.63  3092.78
eigval :     3096.78  3097.11  3097.93  3097.98  3098.35  3098.43
eigval :     3098.57  3099.97  3100.23  3101.50  3108.19  3108.42

   temp. (K)  partition function   enthalpy   heat capacity  entropy
                                   cal/mol     cal/K/mol   cal/K/mol   J/K/mol
 298.15  VIB  0.474E+27            31518.561    193.575    200.903
         ROT  0.388E+09              888.752      2.981     42.284
         INT  0.184E+36            32407.313    196.556    243.188
         TR   0.226E+29             1481.254      4.968     45.955
         TOT                       33888.5672   201.5243   289.1421  1209.7705

       T/K    H(0)-H(T)+PV         H(T)/Eh          T*S/Eh         G(T)/Eh
   ------------------------------------------------------------------------
    298.15    0.540049E-01    0.902230E+00    0.137381E+00    0.764849E+00
   ------------------------------------------------------------------------

         :::::::::::::::::::::::::::::::::::::::::::::::::::::
         ::                  THERMODYNAMIC                  ::
         :::::::::::::::::::::::::::::::::::::::::::::::::::::
         :: total free energy        -163.419531712983 Eh   ::
         ::.................................................::
         :: total energy             -164.184380533160 Eh   ::
         :: zero point energy           0.848224692606 Eh   ::
         :: G(RRHO) w/o ZPVE           -0.083375872429 Eh   ::
         :: G(RRHO) contrib.            0.764848820177 Eh   ::
         :::::::::::::::::::::::::::::::::::::::::::::::::::::

           -------------------------------------------------
          | TOTAL ENERGY             -164.184380533160 Eh   |
          | TOTAL ENTHALPY           -163.282150971100 Eh   |
          | TOTAL FREE ENERGY        -163.419531712983 Eh   |
          | GRADIENT NORM               0.000065231521 Eh/α |
          | HOMO-LUMO GAP               1.460551098666 eV   |
           -------------------------------------------------

 * finished run on 2025/08/25 at 11:47:31.385
