   * xtb version 6.7.1 (edcfbbe) compiled by 'albert@albert-system' on 2024-07-22

   ID    Z sym.   atoms
    1    6 C      1-6, 8, 10-18, 20-44, 46-62
    2    7 N      7, 19, 45
    3    8 O      9, 63
    4    1 H      64-108

          program call               : xtb data2507/toluene/Cbz-MI/Cbz-MI_toluene_T1_crest.xyz --gfn 2 --uhf 2 --gbsa toluene --ohess vtight --parallel 40 --molden --ceasefiles --namespace data2507/toluene/Cbz-MI/Cbz-MI_toluene_T1_finalOpt
      * Solvation model:               GBSA
        Solvent                        toluene
        Solvent mass                       9.2140E+01 g/mol
          :  Hamiltonian                  GFN2-xTB          :
 * total energy  :  -164.1833683 Eh     change       -0.3095209E-08 Eh
 * total energy  :  -164.1836876 Eh     change       -0.3193283E-03 Eh
 * total energy  :  -164.1838591 Eh     change       -0.1714592E-03 Eh
 * total energy  :  -164.1839176 Eh     change       -0.5852715E-04 Eh
 * total energy  :  -164.1839898 Eh     change       -0.7220636E-04 Eh
 * total energy  :  -164.1840265 Eh     change       -0.3663638E-04 Eh
 * total energy  :  -164.1840543 Eh     change       -0.2785709E-04 Eh
 * total energy  :  -164.1840803 Eh     change       -0.2593347E-04 Eh
 * total energy  :  -164.1840959 Eh     change       -0.1568514E-04 Eh
 * total energy  :  -164.1841217 Eh     change       -0.2572319E-04 Eh
 * total energy  :  -164.1842987 Eh     change       -0.2028515E-06 Eh
 * total energy  :  -164.1842992 Eh     change       -0.4925270E-06 Eh
 * total energy  :  -164.1842995 Eh     change       -0.2894151E-06 Eh
 * total energy  :  -164.1842997 Eh     change       -0.2411695E-06 Eh
 * total energy  :  -164.1842999 Eh     change       -0.2385553E-06 Eh
 * total energy  :  -164.1843002 Eh     change       -0.2230224E-06 Eh
 * total energy  :  -164.1843004 Eh     change       -0.2764136E-06 Eh
 * total energy  :  -164.1843008 Eh     change       -0.3789276E-06 Eh
 * total energy  :  -164.1843009 Eh     change       -0.8113162E-07 Eh
   *** GEOMETRY OPTIMIZATION CONVERGED AFTER 68 ITERATIONS ***

 final structure:
================
108
 xtb: 6.7.1 (edcfbbe)
C           -1.02869753142591        5.47086615546150        3.22393018623824
C           -0.46336942529312        6.79550764077028        2.72431318982906
C           -1.52964225880999        7.62019458419465        2.00638887503400
C           -1.03620096991139        8.97867880104058        1.50573420344327
C            0.11081205309051        8.94192893351997        0.49369753945440
C           -0.21299473678864        8.23717290713961       -0.82785089544400
N           -0.15610417707607        6.79743413885901       -0.74181460989780
C            0.99254507098764        6.07579638603057       -0.44824532259198
O            2.08985191799367        6.59855136864244       -0.25696071805611
C            0.61889981506530        4.67452858249538       -0.49223869297202
C            1.56255934130822        3.61075152873988       -0.49541850167704
C            2.81776683823062        3.74893354707015        0.13581230087753
C            3.70732651869421        2.70641334847840        0.17692166650647
C            3.42291898120570        1.47765582014832       -0.44076184609729
C            4.36275632916014        0.36652183534650       -0.37865946728928
C            4.48388564434339       -0.54185760714708       -1.43744054373274
C            5.35957128043035       -1.60242073814044       -1.37081835086408
C            6.14432297814659       -1.79808049064132       -0.23303500530546
N            7.02014435429121       -2.88234333371553       -0.15657001944614
C            8.34309746672167       -2.83013018605641        0.24137579583448
C            9.12172074252026       -1.73233723754072        0.58244743855084
C           10.44480157446077       -1.95797046415671        0.91558350568566
C           10.98977081156516       -3.23955000765489        0.90126853271502
C           10.22708852115149       -4.33301924960238        0.53342335395739
C            8.89678637128795       -4.13076869673077        0.19568162597856
C            7.84490714235928       -5.00766239939527       -0.24651875378577
C            7.77208650279314       -6.37649322512757       -0.46083587690479
C            6.56720091026340       -6.91920234171728       -0.86882724300104
C            5.44284858398785       -6.11643734275566       -1.04436632632578
C            5.49172994399932       -4.75016735088554       -0.83619135269162
C            6.70642715321811       -4.19535845335692       -0.45625958366295
C            6.03719821778821       -0.89735028566839        0.82794825069641
C            5.16600057489579        0.16634404662259        0.75095872284509
C            2.20441424955998        1.35857306885510       -1.12640450876327
C            1.29936815195076        2.38726366290022       -1.15399585928035
C           -0.78599836194723        4.61308061862931       -0.74554080730330
C           -1.66469664501394        3.50783903525956       -0.57670976509733
C           -1.32314241791821        2.40863235006586        0.24538107876660
C           -2.15903527089620        1.33035608419342        0.37103903389573
C           -3.39525171807307        1.28507545569647       -0.29219952410166
C           -4.26404754996796        0.12153178242497       -0.17883533654827
C           -3.72386703034382       -1.16592272852032       -0.06915447454657
C           -4.53560131859351       -2.27429216751137        0.02232265868118
C           -5.92422793525379       -2.13222258316408        0.01879720563285
N           -6.74850183309751       -3.25482168165310        0.11700092776030
C           -6.61306149887769       -4.27750402542786        1.03775774752768
C           -5.71403512232248       -4.40960121804093        2.08759273697939
C           -5.81756916289165       -5.53188214866308        2.88894200721040
C           -6.79566011798193       -6.49763161926490        2.66478047086710
C           -7.71319910842812       -6.35612314618302        1.63967058307149
C           -7.62834198490777       -5.23817336726277        0.82245956845133
C           -8.40813933930988       -4.76613155368126       -0.29101228559441
C           -9.50511532959709       -5.27614206204990       -0.97022124367615
C          -10.00840262810354       -4.56408005105935       -2.04366740999934
C           -9.41899715998199       -3.36957893604986       -2.45029406256097
C           -8.32470390204620       -2.84256169971217       -1.78910053529508
C           -7.83343900756640       -3.53762210670679       -0.69214403965086
C           -6.47572167782895       -0.85393847410270       -0.08348227988891
C           -5.65802995736400        0.24978004478457       -0.18542190476961
C           -3.76506993164738        2.40048086819386       -1.06078119884002
C           -2.93275325471520        3.48169162942422       -1.19699499970995
C           -1.24298696829770        5.96761395738666       -0.98786440018756
O           -2.35350431448922        6.39176251811420       -1.30449320358015
H           -0.25306851413240        4.88088952923059        3.70752280615092
H           -1.43088172339984        4.89596295442804        2.39128125608513
H           -1.83091930971760        5.64279553173153        3.93886234453289
H           -0.06997019679152        7.36908364937809        3.56756617209144
H            0.36784011386622        6.59110042813971        2.04683798199074
H           -2.35751124672253        7.79695451999327        2.69938899743387
H           -1.93296979717965        7.04601068557248        1.17126694434364
H           -1.88206215927873        9.50097872171918        1.05038714659739
H           -0.70436058432420        9.56946528999855        2.36398801895816
H            0.99308155900890        8.47050869146224        0.92774149451231
H            0.37819826958118        9.97345321619204        0.25302404166298
H           -1.22221643783595        8.48505927816710       -1.16946899571153
H            0.51285117905513        8.55737466841881       -1.58517805825532
H            3.05957984361784        4.69067203642188        0.60288405479483
H            4.65695475137793        2.84596329180452        0.67186476181100
H            3.91144173188376       -0.38851386007270       -2.33928047499722
H            5.46586672961409       -2.27247323586520       -2.21065775185370
H            8.71669673237841       -0.73217232464895        0.57644295507521
H           11.07013482939291       -1.12076106467700        1.18857126872425
H           12.02649999203400       -3.37579888324675        1.17116174976785
H           10.65613879211705       -5.32310678731848        0.50344441615604
H            8.63749544897252       -7.00259961942210       -0.30501862795955
H            6.49022893681343       -7.98206958536510       -1.04393102013712
H            4.51038539473420       -6.57113610854890       -1.34467561606242
H            4.60843185089820       -4.14182703721750       -0.95391280343544
H            6.61849839241891       -1.05913144759648        1.72326193204208
H            5.07053236050809        0.83103040750794        1.59578934530850
H            1.96095056152571        0.43163998160940       -1.62363204291276
H            0.37815515362542        2.27824248587958       -1.70504276122524
H           -0.40090422419049        2.44175031939045        0.80440626192295
H           -1.87682861715369        0.51949083561336        1.02576475987459
H           -2.65321105143407       -1.29731933955857       -0.09806462600986
H           -4.10299786301480       -3.26242661686899        0.06643703475777
H           -4.96594394343650       -3.65743434782384        2.28478205870372
H           -5.12680033079624       -5.65926539319430        3.70935112627113
H           -6.84258496669693       -7.36240247482740        3.30997319375817
H           -8.48362460831347       -7.09505191406937        1.47956129384719
H           -9.95043357938992       -6.21190421272687       -0.66809196024514
H          -10.86357744517919       -4.94224392104725       -2.58395610002777
H           -9.82203589729344       -2.84493004689817       -3.30395979571753
H           -7.86372696853609       -1.92731738699628       -2.12705269345296
H           -7.54812745894578       -0.73349089089730       -0.05272159647388
H           -6.10216750797782        1.23231957773686       -0.23116803611845
H           -4.70684905069428        2.39421890876108       -1.58902321731998
H           -3.22670039433330        4.32320213813460       -1.80436527831795

          :  Hamiltonian                  GFN2-xTB          :
         :: gradient norm              0.000059391821 Eh/a0 ::
         :: HOMO-LUMO gap              1.460511795009 eV    ::
         :: SCC energy              -167.080360171827 Eh    ::
         :: -> dispersion             -0.145871215268 Eh    ::
         :: -> Gsolv                  -0.080124152593 Eh    ::
         :: repulsion energy           2.896059280587 Eh    ::

    * Orbital Energies and Occupations

         #    Occupation            Energy/Eh            Energy/eV
      -------------------------------------------------------------
         1        2.0000           -0.6951142             -18.9150
       ...           ...                  ...                  ...
       141        2.0000           -0.4128679             -11.2347
       142        2.0000           -0.4127737             -11.2321
       143        2.0000           -0.4098277             -11.1520
       144        2.0000           -0.4048347             -11.0161
       145        2.0000           -0.4023087             -10.9474
       146        2.0000           -0.3917736             -10.6607
       147        2.0000           -0.3866998             -10.5226
       148        2.0000           -0.3866013             -10.5200
       149        2.0000           -0.3862471             -10.5103
       150        1.9998           -0.3743510             -10.1866
       151        1.9793           -0.3699563             -10.0670
       152        1.0209           -0.3626389              -9.8679
       153        1.0000           -0.3150234              -8.5722 (HOMO)
       154                         -0.2613501              -7.1117 (LUMO)
       155                         -0.2606770              -7.0934
       156                         -0.2513440              -6.8394
       157                         -0.2509224              -6.8279
       158                         -0.2368069              -6.4438
       159                         -0.2366364              -6.4392
       160                         -0.2302429              -6.2652
       161                         -0.2301562              -6.2629
       162                         -0.2291216              -6.2347
       163                         -0.2229414              -6.0665
       164                         -0.2226336              -6.0582
       ...                                ...                  ...
       297                          0.7361932              20.0328
      -------------------------------------------------------------
                  HL-Gap            0.0536733 Eh            1.4605 eV

     #   Z          covCN         q      C6AA      α(0)
     1   6 C        3.752    -0.098    22.433     6.754
     2   6 C        3.800    -0.050    21.463     6.596
     3   6 C        3.802    -0.055    21.562     6.611
     4   6 C        3.800    -0.057    21.608     6.618
     5   6 C        3.800    -0.061    21.671     6.628
     6   6 C        3.739     0.022    20.274     6.425
     7   7 N        2.798    -0.136    23.949     7.268
     8   6 C        2.847     0.261    22.620     7.795
     9   8 O        0.857    -0.497    23.719     6.530
    10   6 C        3.030    -0.053    29.286     8.877
    11   6 C        2.967     0.026    27.408     8.587
    12   6 C        2.919    -0.031    28.768     8.796
    13   6 C        2.919    -0.031    28.772     8.796
    14   6 C        2.974     0.015    27.678     8.630
    15   6 C        2.974     0.015    27.668     8.628
    16   6 C        2.923    -0.030    28.751     8.793
    17   6 C        2.919    -0.040    29.005     8.832
    18   6 C        2.912     0.064    26.569     8.452
    19   7 N        2.801    -0.024    21.709     6.920
    20   6 C        3.071     0.046    26.886     8.502
    21   6 C        2.909    -0.047    29.161     8.855
    22   6 C        2.923    -0.032    28.802     8.801
    23   6 C        2.920    -0.037    28.915     8.818
    24   6 C        2.912    -0.031    28.782     8.797
    25   6 C        3.065    -0.014    28.285     8.721
    26   6 C        3.065    -0.014    28.284     8.721
    27   6 C        2.912    -0.031    28.781     8.797
    28   6 C        2.920    -0.037    28.917     8.818
    29   6 C        2.923    -0.032    28.805     8.801
    30   6 C        2.910    -0.047    29.165     8.855
    31   6 C        3.071     0.046    26.888     8.502
    32   6 C        2.918    -0.040    29.003     8.831
    33   6 C        2.924    -0.030    28.744     8.792
    34   6 C        2.919    -0.033    28.813     8.802
    35   6 C        2.919    -0.033    28.811     8.802
    36   6 C        3.029    -0.053    29.287     8.877
    37   6 C        2.967     0.026    27.426     8.590
    38   6 C        2.919    -0.032    28.809     8.802
    39   6 C        2.919    -0.033    28.813     8.802
    40   6 C        2.975     0.015    27.680     8.630
    41   6 C        2.974     0.015    27.675     8.629
    42   6 C        2.924    -0.030    28.755     8.794
    43   6 C        2.919    -0.041    29.009     8.832
    44   6 C        2.912     0.064    26.569     8.452
    45   7 N        2.801    -0.024    21.711     6.920
    46   6 C        3.071     0.046    26.887     8.502
    47   6 C        2.910    -0.047    29.163     8.855
    48   6 C        2.923    -0.032    28.804     8.801
    49   6 C        2.920    -0.037    28.916     8.818
    50   6 C        2.912    -0.031    28.782     8.797
    51   6 C        3.065    -0.014    28.284     8.721
    52   6 C        3.065    -0.014    28.286     8.721
    53   6 C        2.912    -0.031    28.782     8.797
    54   6 C        2.920    -0.037    28.916     8.818
    55   6 C        2.923    -0.032    28.803     8.801
    56   6 C        2.910    -0.047    29.162     8.855
    57   6 C        3.071     0.046    26.886     8.502
    58   6 C        2.919    -0.040    29.000     8.831
    59   6 C        2.923    -0.030    28.740     8.791
    60   6 C        2.919    -0.031    28.771     8.796
    61   6 C        2.919    -0.032    28.797     8.800
    62   6 C        2.848     0.260    22.633     7.797
    63   8 O        0.857    -0.499    23.766     6.536
    64   1 H        0.925     0.035     2.513     2.479
    65   1 H        0.925     0.025     2.658     2.549
    66   1 H        0.925     0.037     2.494     2.470
    67   1 H        0.924     0.031     2.573     2.508
    68   1 H        0.924     0.020     2.734     2.586
    69   1 H        0.924     0.030     2.580     2.512
    70   1 H        0.924     0.026     2.643     2.542
    71   1 H        0.924     0.034     2.533     2.489
    72   1 H        0.924     0.037     2.488     2.467
    73   1 H        0.924     0.051     2.306     2.375
    74   1 H        0.924     0.041     2.435     2.440
    75   1 H        0.924     0.059     2.206     2.323
    76   1 H        0.924     0.041     2.440     2.443
    77   1 H        0.926     0.049     2.334     2.389
    78   1 H        0.926     0.044     2.401     2.423
    79   1 H        0.926     0.050     2.321     2.382
    80   1 H        0.926     0.050     2.315     2.379
    81   1 H        0.926     0.038     2.472     2.459
    82   1 H        0.926     0.036     2.496     2.471
    83   1 H        0.926     0.035     2.517     2.481
    84   1 H        0.926     0.038     2.480     2.463
    85   1 H        0.926     0.037     2.483     2.464
    86   1 H        0.926     0.035     2.514     2.479
    87   1 H        0.926     0.037     2.484     2.465
    88   1 H        0.926     0.039     2.458     2.452
    89   1 H        0.926     0.050     2.320     2.382
    90   1 H        0.926     0.049     2.328     2.386
    91   1 H        0.926     0.047     2.359     2.402
    92   1 H        0.926     0.040     2.449     2.447
    93   1 H        0.926     0.041     2.430     2.438
    94   1 H        0.926     0.047     2.361     2.403
    95   1 H        0.926     0.051     2.302     2.373
    96   1 H        0.926     0.051     2.306     2.375
    97   1 H        0.926     0.039     2.461     2.453
    98   1 H        0.926     0.037     2.487     2.466
    99   1 H        0.926     0.035     2.514     2.479
   100   1 H        0.926     0.038     2.482     2.464
   101   1 H        0.926     0.038     2.480     2.463
   102   1 H        0.926     0.035     2.517     2.481
   103   1 H        0.926     0.036     2.496     2.471
   104   1 H        0.926     0.038     2.472     2.459
   105   1 H        0.926     0.049     2.328     2.386
   106   1 H        0.926     0.048     2.345     2.395
   107   1 H        0.926     0.043     2.407     2.426
   108   1 H        0.926     0.049     2.337     2.390

molecular dipole:
                 x           y           z       tot (Debye)
 q only:        0.198      -6.634       0.761
   full:        0.202      -6.373       0.634      16.287

 projected vibrational frequencies (cm⁻¹)
eigval :       -0.00    -0.00    -0.00    -0.00    -0.00     0.00
eigval :        5.15     7.96    11.91    12.98    17.09    18.42
eigval :       22.16    26.95    31.88    34.05    46.13    53.69
eigval :       59.66    63.01    70.48    77.07    83.69    88.31
eigval :       91.47    95.40   103.69   106.01   109.55   117.45
eigval :      123.08   126.16   139.17   143.28   144.25   147.68
eigval :      171.40   176.98   209.12   212.66   214.20   222.57
eigval :      226.70   236.53   250.16   253.46   258.48   269.33
eigval :      270.97   271.70   289.24   299.81   306.28   311.85
eigval :      326.89   341.61   351.90   361.17   371.89   378.08
eigval :      385.60   388.04   389.41   390.49   393.74   402.26
eigval :      410.24   416.22   418.41   419.16   421.27   433.36
eigval :      434.84   442.92   454.40   464.98   488.80   492.00
eigval :      498.82   513.24   515.90   516.47   530.51   530.86
eigval :      537.87   538.36   541.77   542.02   578.98   581.45
eigval :      581.78   593.28   593.90   595.15   599.98   607.75
eigval :      615.11   615.71   631.39   654.25   670.42   673.98
eigval :      674.42   678.66   683.55   687.18   693.63   700.45
eigval :      705.25   709.01   709.59   730.57   750.41   752.88
eigval :      761.09   764.55   768.43   768.54   776.47   778.73
eigval :      780.01   808.04   808.27   818.41   832.66   833.40
eigval :      840.01   844.73   845.89   859.74   861.57   864.75
eigval :      871.78   872.15   873.20   875.60   880.41   896.79
eigval :      896.88   901.63   902.13   903.59   905.02   915.12
eigval :      916.56   917.35   918.32   920.32   920.99   921.64
eigval :      922.89   924.37   925.18   927.81   928.00   930.08
eigval :      930.56   934.33   935.73   946.81   978.10   981.38
eigval :     1008.19  1010.88  1010.90  1011.13  1013.45  1035.66
eigval :     1066.56  1066.79  1068.42  1068.98  1070.56  1071.85
eigval :     1072.23  1089.76  1094.60  1113.93  1114.91  1126.98
eigval :     1132.01  1134.39  1137.13  1145.38  1146.97  1149.59
eigval :     1149.82  1154.92  1158.30  1172.92  1174.03  1177.07
eigval :     1178.65  1179.41  1181.05  1195.19  1197.21  1203.51
eigval :     1203.78  1212.42  1229.75  1230.25  1230.71  1232.90
eigval :     1239.49  1239.91  1262.08  1263.04  1266.85  1272.61
eigval :     1273.09  1276.67  1287.62  1287.85  1288.27  1290.68
eigval :     1291.12  1296.57  1298.86  1311.00  1313.69  1314.17
eigval :     1322.92  1323.32  1328.32  1336.93  1348.50  1348.52
eigval :     1350.81  1354.02  1355.47  1357.40  1360.36  1362.34
eigval :     1365.16  1376.45  1407.07  1407.29  1410.83  1411.61
eigval :     1416.35  1417.39  1417.55  1420.60  1424.12  1427.68
eigval :     1433.75  1461.22  1464.17  1464.30  1467.09  1479.90
eigval :     1481.51  1481.83  1485.38  1490.47  1492.65  1493.62
eigval :     1495.33  1499.65  1501.64  1506.02  1509.31  1537.91
eigval :     1538.72  1541.07  1553.47  1569.47  1569.48  1581.93
eigval :     1582.48  1585.55  1585.67  1587.93  1588.15  1602.89
eigval :     1604.92  1642.41  1651.13  2915.97  2951.45  2953.09
eigval :     2961.27  2962.73  2966.40  2976.39  2990.94  3010.16
eigval :     3013.07  3019.05  3025.50  3030.67  3076.53  3077.30
eigval :     3077.63  3077.73  3082.01  3082.20  3082.43  3082.96
eigval :     3083.69  3083.89  3083.99  3084.05  3087.13  3088.16
eigval :     3088.42  3089.42  3090.88  3091.14  3092.09  3092.48
eigval :     3096.69  3096.93  3097.64  3097.72  3098.11  3098.31
eigval :     3099.09  3099.61  3100.61  3101.58  3109.66  3110.36

   temp. (K)  partition function   enthalpy   heat capacity  entropy
                                   cal/mol     cal/K/mol   cal/K/mol   J/K/mol
 298.15  VIB  0.839E+26            31310.755    193.738    197.986
         ROT  0.365E+09              888.752      2.981     42.159
         INT  0.306E+35            32199.507    196.719    240.145
         TR   0.226E+29             1481.254      4.968     45.955
         TOT                       33680.7614   201.6875   286.0994  1197.0401

       T/K    H(0)-H(T)+PV         H(T)/Eh          T*S/Eh         G(T)/Eh
   ------------------------------------------------------------------------
    298.15    0.536737E-01    0.902490E+00    0.135935E+00    0.766555E+00
   ------------------------------------------------------------------------

         :::::::::::::::::::::::::::::::::::::::::::::::::::::
         ::                  THERMODYNAMIC                  ::
         :::::::::::::::::::::::::::::::::::::::::::::::::::::
         :: total free energy        -163.417745767046 Eh   ::
         ::.................................................::
         :: total energy             -164.184300896121 Eh   ::
         :: zero point energy           0.848816495785 Eh   ::
         :: G(RRHO) w/o ZPVE           -0.082261366711 Eh   ::
         :: G(RRHO) contrib.            0.766555129074 Eh   ::
         :::::::::::::::::::::::::::::::::::::::::::::::::::::

           -------------------------------------------------
          | TOTAL ENERGY             -164.184300896121 Eh   |
          | TOTAL ENTHALPY           -163.281810690622 Eh   |
          | TOTAL FREE ENERGY        -163.417745767046 Eh   |
          | GRADIENT NORM               0.000060246351 Eh/α |
          | HOMO-LUMO GAP               1.460524703675 eV   |
           -------------------------------------------------

 * finished run on 2025/08/25 at 12:52:32.673
