   * xtb version 6.7.1 (edcfbbe) compiled by 'albert@albert-system' on 2024-07-22

   ID    Z sym.   atoms
    1    6 C      1-6, 8, 10-18, 20-44, 46-62
    2    7 N      7, 19, 45
    3    8 O      9, 63
    4    1 H      64-108

          program call               : xtb data2507/toluene/Cbz-MI/Cbz-MI_toluene_S0_crest.xyz --gfn 2 --gbsa toluene --ohess vtight --parallel 40 --molden --ceasefiles --namespace data2507/toluene/Cbz-MI/Cbz-MI_toluene_S0_finalOpt
      * Solvation model:               GBSA
        Solvent                        toluene
        Solvent mass                       9.2140E+01 g/mol
          :  Hamiltonian                  GFN2-xTB          :
 * total energy  :  -164.2186631 Eh     change       -0.4066720E-08 Eh
 * total energy  :  -164.2188759 Eh     change       -0.2128228E-03 Eh
 * total energy  :  -164.2190270 Eh     change       -0.1510871E-03 Eh
 * total energy  :  -164.2191039 Eh     change       -0.7690083E-04 Eh
 * total energy  :  -164.2191915 Eh     change       -0.8758875E-04 Eh
 * total energy  :  -164.2192577 Eh     change       -0.6620825E-04 Eh
 * total energy  :  -164.2193034 Eh     change       -0.4571170E-04 Eh
 * total energy  :  -164.2193234 Eh     change       -0.1998928E-04 Eh
 * total energy  :  -164.2193429 Eh     change       -0.1952621E-04 Eh
 * total energy  :  -164.2193527 Eh     change       -0.9773267E-05 Eh
 * total energy  :  -164.2194640 Eh     change       -0.4146800E-06 Eh
 * total energy  :  -164.2194643 Eh     change       -0.2699227E-06 Eh
 * total energy  :  -164.2194645 Eh     change       -0.2130832E-06 Eh
 * total energy  :  -164.2194647 Eh     change       -0.2112726E-06 Eh
 * total energy  :  -164.2194649 Eh     change       -0.1901462E-06 Eh
 * total energy  :  -164.2194650 Eh     change       -0.1708630E-06 Eh
 * total energy  :  -164.2194652 Eh     change       -0.1381921E-06 Eh
 * total energy  :  -164.2194653 Eh     change       -0.1091960E-06 Eh
 * total energy  :  -164.2194654 Eh     change       -0.9708720E-07 Eh
   *** GEOMETRY OPTIMIZATION CONVERGED AFTER 67 ITERATIONS ***

 final structure:
================
108
 xtb: 6.7.1 (edcfbbe)
C            6.92629975340483        2.96555621598124       -2.33039465079450
C            7.66271544892791        1.79442069428452       -1.68987168605293
C            9.12898817019706        1.74562512837199       -2.11513781858119
C            9.87728006646280        0.52343895574223       -1.57790643494175
C           10.12474797770752        0.56305569358837       -0.05965047675847
C            9.51992582366455       -0.63032302497668        0.68388021451925
N            8.07138896538308       -0.61503937051734        0.64367765495891
C            7.29821590480699       -1.40561425290518       -0.19024094228679
O            7.72400786681790       -2.24536737474390       -0.94740688706278
C            5.89055589559404       -0.99910031617065        0.06730591707067
C            4.62982445172044       -1.42959274593030       -0.55031380671744
C            3.94130154686574       -2.54952018793381       -0.09680243546608
C            2.59574490186533       -2.69447163425935       -0.37611796087005
C            1.91395182278469       -1.73809307595634       -1.12550017091078
C            0.44724608762850       -1.73218414926763       -1.21070155698205
C           -0.29870812019401       -1.93906524241669       -0.05137640645650
C           -1.67264481440422       -1.82465479781529       -0.06285034047407
C           -2.34183631940675       -1.51930515350875       -1.24490393417245
N           -3.73770901282290       -1.39546536226240       -1.25092925598150
C           -4.45965226289581       -0.36438358692076       -1.82097181100899
C           -4.01528345855519        0.78421674145708       -2.45990323378719
C           -4.96181980251010        1.67342065281176       -2.93098430202995
C           -6.32443639331335        1.43502713214838       -2.77283703718511
C           -6.77410956768595        0.30287398221057       -2.12402033384903
C           -5.84091937061061       -0.60287828594504       -1.63832245396226
C           -5.95029108165515       -1.84864603161033       -0.93368888157241
C           -7.03000284755220       -2.61178329295181       -0.51049140753028
C           -6.78413830703210       -3.81337073903444        0.12243174749403
C           -5.48064259203118       -4.26183859906973        0.32195057637019
C           -4.39053295893120       -3.52114581832125       -0.09284386319101
C           -4.63048814132696       -2.30129181841187       -0.70929006565126
C           -1.60667652021824       -1.34332121383623       -2.41490746024485
C           -0.22850419183104       -1.43542611827566       -2.39169360571113
C            2.64554718820682       -0.70113434167730       -1.70015958147442
C            3.98176611755405       -0.53856940434097       -1.40353879721928
C            5.88696281093980       -0.04093322951638        1.01699609954210
C            4.61790127573267        0.52298652657859        1.49272523883416
C            3.78241350593218       -0.28400866418738        2.26219439797303
C            2.44656650647122        0.02648203449647        2.40147523669789
C            1.90454891534146        1.13145656554483        1.74882694018550
C            0.44631461039667        1.28651270509012        1.66293214942014
C           -0.39011282409680        1.07449066828413        2.75598221447024
C           -1.76335052223125        1.13355547737482        2.61847621644541
C           -2.33405316709354        1.38035890637421        1.37196609313781
N           -3.72634048091710        1.41020689193338        1.21539138616176
C           -4.44581431348467        2.40528581761800        0.58043858221096
C           -4.00354786210695        3.58598259112533        0.00087750121195
C           -4.95034940035054        4.43970087361733       -0.53168562267931
C           -6.30962019051361        4.13967451137829       -0.48479208470171
C           -6.75758368232834        2.97735722369718        0.10962867162165
C           -5.82452950653508        2.10291700115306        0.65015118416838
C           -5.93472874361937        0.85749959961657        1.35544797641662
C           -7.01134769535885        0.06296783278710        1.72524051326660
C           -6.76603858416858       -1.10914486052242        2.41155293741038
C           -5.46505183381161       -1.49564374403376        2.72227142076525
C           -4.37878447914712       -0.71837086541282        2.36957127860784
C           -4.61808500070463        0.46882536610893        1.69260175086526
C           -1.50300145845670        1.60218980304997        0.27727164860935
C           -0.13286981972138        1.56480957785870        0.42590248810468
C            2.76885130301378        2.00128221621578        1.08738891377297
C            4.11353815604243        1.70770916371049        0.96703720052604
C            7.29338031756066        0.23349856006379        1.41667637414724
O            7.71672401054277        1.00346741182781        2.24535929014443
H            5.88348556100025        2.98099990737458       -2.02059679200925
H            6.96059570762796        2.88934850392960       -3.41520610203645
H            7.38490794205241        3.90793560982729       -2.03811691659248
H            7.59330839421015        1.88136450959827       -0.60218130623632
H            7.17720267022401        0.85646059663678       -1.97727741309151
H            9.63409840629735        2.65610794728903       -1.78417630872565
H            9.17059658723898        1.72307569451629       -3.20691579388000
H            9.31176766897760       -0.37405279278396       -1.83674316579732
H           10.83543948622720        0.45559754497893       -2.09593504510467
H            9.71127359047852        1.47769756093965        0.36854203816612
H           11.19552238865633        0.56435820129280        0.14652245194313
H            9.84277929234791       -1.57149720065121        0.23264617206928
H            9.82342774086305       -0.60377390557182        1.73464210473229
H            4.44706581859027       -3.27098246211898        0.52819631367340
H            2.05850700371237       -3.54285917386132        0.02123800590327
H            0.21230956524627       -2.15124861109743        0.87537381835827
H           -2.23902092546062       -1.94972743571320        0.84624120982873
H           -2.96214987821408        0.98019632577155       -2.59258557374727
H           -4.63819005700654        2.57357395736051       -3.43270039483860
H           -7.03381672865879        2.15076617482883       -3.16074024566965
H           -7.83023092503105        0.12094778048154       -1.99294986979864
H           -8.04009338300415       -2.27108297188150       -0.68170383797315
H           -7.61000579178233       -4.42252558499198        0.46004476574987
H           -5.31841733706664       -5.21423121169927        0.80597594007006
H           -3.38666081577589       -3.89263467091257        0.04650596741068
H           -2.12190354933466       -1.14337453643390       -3.34263694484310
H            0.32925224910485       -1.29900415170959       -3.30654167603931
H            2.14509096577522        0.02601287882259       -2.32151866371223
H            4.52360548976576        0.31084391636712       -1.79167394903797
H            4.17936570967176       -1.18318158334906        2.70962300168344
H            1.80042255581409       -0.63566883859263        2.95774535692739
H            0.03957576526903        0.88499537453125        3.72869372262996
H           -2.40156342760419        0.99776164045793        3.47892664572582
H           -2.95547650947031        3.84289305208004       -0.02193037382117
H           -4.62913009506657        5.36439102700688       -0.98928296836417
H           -7.01907874987892        4.83348160299693       -0.91185338921492
H           -7.81211073683505        2.75164422681326        0.16219534946487
H           -8.01917220137497        0.35982151973787        1.47669379912187
H           -7.58925757185650       -1.74122923247911        2.70956478941385
H           -5.30216567524437       -2.42362968823025        3.25055997449712
H           -3.37575508966260       -1.02852594309343        2.62039093108611
H           -1.94287284420072        1.78190555523951       -0.69072712723851
H            0.50241905747922        1.71239402879700       -0.43405448580440
H            2.37686196134571        2.89956977207245        0.63388711360324
H            4.76598964305781        2.36314905616724        0.40955401012197

          :  Hamiltonian                  GFN2-xTB          :
         :: gradient norm              0.000056144758 Eh/a0 ::
         :: HOMO-LUMO gap              0.717041536316 eV    ::
         :: SCC energy              -167.144029904143 Eh    ::
         :: -> dispersion             -0.178765585587 Eh    ::
         :: -> Gsolv                  -0.054677659368 Eh    ::
         :: repulsion energy           2.924564511017 Eh    ::

    * Orbital Energies and Occupations

         #    Occupation            Energy/Eh            Energy/eV
      -------------------------------------------------------------
         1        2.0000           -0.7415620             -20.1789
       ...           ...                  ...                  ...
       140        2.0000           -0.4162900             -11.3278
       141        2.0000           -0.4139423             -11.2639
       142        2.0000           -0.4123114             -11.2196
       143        2.0000           -0.4119141             -11.2088
       144        2.0000           -0.4106224             -11.1736
       145        2.0000           -0.4071005             -11.0778
       146        2.0000           -0.3996319             -10.8745
       147        2.0000           -0.3955974             -10.7648
       148        2.0000           -0.3918498             -10.6628
       149        2.0000           -0.3766766             -10.2499
       150        2.0000           -0.3765299             -10.2459
       151        2.0000           -0.3622255              -9.8567
       152        2.0000           -0.3584085              -9.7528 (HOMO)
       153        0.0000           -0.3320576              -9.0357 (LUMO)
       154                         -0.2572202              -6.9993
       155                         -0.2564810              -6.9792
       156                         -0.2436857              -6.6310
       157                         -0.2416934              -6.5768
       158                         -0.2368924              -6.4462
       159                         -0.2328071              -6.3350
       160                         -0.2301915              -6.2638
       161                         -0.2299281              -6.2567
       162                         -0.2210113              -6.0140
       163                         -0.2192822              -5.9670
       ...                                ...                  ...
       297                          0.7485239              20.3684
      -------------------------------------------------------------
                  HL-Gap            0.0263509 Eh            0.7170 eV

     #   Z          covCN         q      C6AA      α(0)
     1   6 C        3.752    -0.101    22.487     6.762
     2   6 C        3.800    -0.043    21.343     6.578
     3   6 C        3.802    -0.060    21.656     6.625
     4   6 C        3.800    -0.062    21.698     6.632
     5   6 C        3.800    -0.066    21.757     6.641
     6   6 C        3.739     0.009    20.500     6.460
     7   7 N        2.787    -0.118    23.573     7.211
     8   6 C        2.856     0.285    22.188     7.721
     9   8 O        0.857    -0.393    21.542     6.223
    10   6 C        3.039    -0.023    28.539     8.762
    11   6 C        2.980     0.016    27.647     8.625
    12   6 C        2.921    -0.029    28.725     8.789
    13   6 C        2.925    -0.032    28.802     8.801
    14   6 C        2.978     0.014    27.697     8.633
    15   6 C        2.977     0.008    27.826     8.653
    16   6 C        2.926    -0.032    28.803     8.801
    17   6 C        2.921    -0.043    29.074     8.842
    18   6 C        2.912     0.063    26.578     8.454
    19   7 N        2.801    -0.048    22.159     6.991
    20   6 C        3.075     0.049    26.825     8.492
    21   6 C        2.910    -0.052    29.290     8.874
    22   6 C        2.924    -0.034    28.854     8.809
    23   6 C        2.920    -0.041    29.011     8.833
    24   6 C        2.913    -0.033    28.819     8.803
    25   6 C        3.068    -0.017    28.371     8.734
    26   6 C        3.069    -0.017    28.373     8.734
    27   6 C        2.913    -0.033    28.833     8.805
    28   6 C        2.920    -0.042    29.041     8.837
    29   6 C        2.924    -0.035    28.871     8.812
    30   6 C        2.910    -0.052    29.295     8.875
    31   6 C        3.076     0.049    26.834     8.493
    32   6 C        2.921    -0.043    29.078     8.843
    33   6 C        2.923    -0.032    28.808     8.802
    34   6 C        2.925    -0.031    28.785     8.798
    35   6 C        2.926    -0.031    28.777     8.797
    36   6 C        3.039    -0.023    28.536     8.762
    37   6 C        2.980     0.016    27.642     8.624
    38   6 C        2.926    -0.031    28.781     8.798
    39   6 C        2.925    -0.031    28.783     8.798
    40   6 C        2.978     0.014    27.696     8.633
    41   6 C        2.977     0.008    27.826     8.653
    42   6 C        2.923    -0.032    28.808     8.802
    43   6 C        2.921    -0.043    29.077     8.843
    44   6 C        2.912     0.063    26.578     8.454
    45   7 N        2.801    -0.048    22.159     6.991
    46   6 C        3.076     0.049    26.833     8.493
    47   6 C        2.910    -0.052    29.296     8.875
    48   6 C        2.924    -0.035    28.870     8.811
    49   6 C        2.920    -0.042    29.041     8.837
    50   6 C        2.913    -0.033    28.833     8.805
    51   6 C        3.068    -0.017    28.373     8.734
    52   6 C        3.068    -0.017    28.371     8.734
    53   6 C        2.913    -0.033    28.819     8.803
    54   6 C        2.920    -0.041    29.012     8.833
    55   6 C        2.924    -0.034    28.855     8.809
    56   6 C        2.910    -0.052    29.289     8.874
    57   6 C        3.075     0.049    26.825     8.492
    58   6 C        2.921    -0.043    29.074     8.842
    59   6 C        2.926    -0.032    28.804     8.801
    60   6 C        2.925    -0.032    28.804     8.801
    61   6 C        2.922    -0.029    28.713     8.787
    62   6 C        2.857     0.284    22.193     7.721
    63   8 O        0.857    -0.389    21.471     6.213
    64   1 H        0.925     0.033     2.544     2.494
    65   1 H        0.925     0.038     2.474     2.460
    66   1 H        0.925     0.037     2.485     2.465
    67   1 H        0.924     0.015     2.804     2.619
    68   1 H        0.924     0.016     2.795     2.614
    69   1 H        0.924     0.037     2.495     2.470
    70   1 H        0.924     0.037     2.489     2.467
    71   1 H        0.924     0.038     2.477     2.461
    72   1 H        0.924     0.040     2.444     2.445
    73   1 H        0.924     0.052     2.300     2.372
    74   1 H        0.924     0.052     2.294     2.369
    75   1 H        0.924     0.067     2.117     2.276
    76   1 H        0.924     0.059     2.208     2.324
    77   1 H        0.926     0.037     2.486     2.466
    78   1 H        0.926     0.047     2.358     2.401
    79   1 H        0.926     0.041     2.437     2.441
    80   1 H        0.926     0.042     2.420     2.433
    81   1 H        0.926     0.029     2.605     2.524
    82   1 H        0.926     0.028     2.609     2.526
    83   1 H        0.926     0.027     2.633     2.538
    84   1 H        0.926     0.029     2.601     2.522
    85   1 H        0.926     0.029     2.600     2.521
    86   1 H        0.926     0.028     2.622     2.532
    87   1 H        0.926     0.030     2.586     2.515
    88   1 H        0.926     0.030     2.580     2.512
    89   1 H        0.926     0.043     2.404     2.425
    90   1 H        0.926     0.044     2.392     2.419
    91   1 H        0.926     0.047     2.357     2.401
    92   1 H        0.926     0.038     2.481     2.463
    93   1 H        0.926     0.035     2.515     2.480
    94   1 H        0.926     0.046     2.365     2.405
    95   1 H        0.926     0.044     2.396     2.421
    96   1 H        0.926     0.043     2.406     2.426
    97   1 H        0.926     0.031     2.577     2.510
    98   1 H        0.926     0.030     2.584     2.514
    99   1 H        0.926     0.028     2.621     2.532
   100   1 H        0.926     0.029     2.600     2.522
   101   1 H        0.926     0.029     2.601     2.522
   102   1 H        0.926     0.027     2.634     2.538
   103   1 H        0.926     0.028     2.612     2.527
   104   1 H        0.926     0.028     2.609     2.526
   105   1 H        0.926     0.042     2.417     2.431
   106   1 H        0.926     0.041     2.431     2.438
   107   1 H        0.926     0.048     2.350     2.397
   108   1 H        0.926     0.039     2.458     2.452

molecular dipole:
                 x           y           z       tot (Debye)
 q only:       -0.260       0.285      -0.258
   full:       -0.138       0.202      -0.175       0.764

 projected vibrational frequencies (cm⁻¹)
eigval :       -0.00    -0.00    -0.00    -0.00     0.00     0.00
eigval :        7.90    11.22    14.05    19.79    22.33    26.60
eigval :       35.62    38.27    40.08    45.99    49.74    56.13
eigval :       58.97    63.56    65.69    77.18    79.34    84.83
eigval :       87.22    88.04    93.72   101.75   104.10   107.52
eigval :      115.80   117.90   120.51   138.15   154.39   157.83
eigval :      160.77   161.40   176.64   184.46   207.69   214.18
eigval :      220.33   232.94   245.40   252.13   256.12   257.10
eigval :      259.77   275.01   276.74   294.66   303.05   311.26
eigval :      325.32   359.11   361.58   363.10   365.18   372.61
eigval :      382.87   385.12   387.60   396.36   396.79   404.91
eigval :      413.44   419.02   424.13   425.25   429.02   435.70
eigval :      437.12   448.77   458.47   474.58   500.86   503.86
eigval :      512.90   518.04   518.67   523.24   530.99   534.55
eigval :      538.57   541.55   543.20   544.45   581.51   582.04
eigval :      592.78   595.82   596.41   600.75   601.80   608.70
eigval :      616.60   616.69   632.19   663.92   673.24   674.28
eigval :      683.41   684.03   691.09   692.27   696.39   704.23
eigval :      708.78   709.30   728.23   733.31   751.88   753.37
eigval :      761.83   762.03   767.46   770.92   777.65   779.81
eigval :      782.77   797.83   800.06   805.50   826.11   829.55
eigval :      854.51   857.62   859.65   860.60   863.59   865.95
eigval :      867.21   874.17   875.09   878.73   882.16   896.87
eigval :      897.25   899.87   900.35   903.17   905.30   906.94
eigval :      907.89   910.80   916.05   917.62   919.93   921.64
eigval :      921.78   922.63   925.18   927.19   928.80   930.25
eigval :      933.16   936.90   937.43   978.86   981.84   992.71
eigval :     1004.04  1011.06  1012.02  1014.63  1016.03  1042.54
eigval :     1069.75  1070.04  1073.53  1073.72  1076.06  1079.10
eigval :     1079.28  1087.84  1093.79  1095.13  1117.54  1118.06
eigval :     1128.03  1130.02  1132.11  1134.43  1135.53  1136.99
eigval :     1152.02  1153.09  1158.64  1175.44  1177.82  1179.97
eigval :     1180.89  1181.38  1183.81  1190.18  1194.37  1200.12
eigval :     1202.16  1210.05  1234.34  1234.75  1235.11  1242.93
eigval :     1243.48  1261.59  1261.99  1262.87  1264.46  1265.47
eigval :     1267.13  1274.56  1283.24  1291.82  1298.20  1299.23
eigval :     1300.27  1302.67  1304.98  1310.04  1311.27  1313.77
eigval :     1315.49  1317.74  1322.21  1327.50  1333.58  1336.20
eigval :     1359.61  1359.70  1363.42  1363.70  1365.99  1367.21
eigval :     1367.28  1374.61  1388.54  1388.79  1408.85  1409.91
eigval :     1412.10  1428.13  1428.69  1428.79  1430.08  1434.61
eigval :     1471.49  1474.95  1475.44  1476.36  1481.56  1488.29
eigval :     1488.93  1489.03  1496.55  1497.29  1499.73  1501.75
eigval :     1503.48  1504.59  1551.25  1551.63  1563.76  1563.96
eigval :     1576.20  1576.49  1588.01  1588.48  1590.51  1590.67
eigval :     1598.91  1599.23  1599.55  1599.74  1612.80  1615.77
eigval :     1616.04  1715.64  1756.86  2941.38  2956.94  2962.83
eigval :     2967.06  2971.84  2977.52  2981.59  2989.02  2998.87
eigval :     3003.95  3024.53  3027.35  3034.32  3069.10  3069.22
eigval :     3073.39  3074.61  3075.33  3075.70  3076.22  3077.66
eigval :     3078.50  3078.90  3079.15  3079.68  3080.15  3081.69
eigval :     3084.21  3085.14  3085.85  3086.53  3087.63  3089.13
eigval :     3090.16  3090.38  3090.80  3091.48  3091.84  3092.19
eigval :     3093.02  3093.78  3094.55  3095.84  3109.50  3110.41

   temp. (K)  partition function   enthalpy   heat capacity  entropy
                                   cal/mol     cal/K/mol   cal/K/mol   J/K/mol
 298.15  VIB  0.794E+25            31333.705    194.062    197.858
         ROT  0.144E+09              888.752      2.981     40.305
         INT  0.114E+34            32222.457    197.042    238.163
         TR   0.226E+29             1481.254      4.968     45.955
         TOT                       33703.7114   202.0106   284.1180  1188.7499

       T/K    H(0)-H(T)+PV         H(T)/Eh          T*S/Eh         G(T)/Eh
   ------------------------------------------------------------------------
    298.15    0.537103E-01    0.904348E+00    0.134994E+00    0.769355E+00
   ------------------------------------------------------------------------

         :::::::::::::::::::::::::::::::::::::::::::::::::::::
         ::                  THERMODYNAMIC                  ::
         :::::::::::::::::::::::::::::::::::::::::::::::::::::
         :: total free energy        -163.450110644962 Eh   ::
         ::.................................................::
         :: total energy             -164.219465395024 Eh   ::
         :: zero point energy           0.850638112851 Eh   ::
         :: G(RRHO) w/o ZPVE           -0.081283362789 Eh   ::
         :: G(RRHO) contrib.            0.769354750062 Eh   ::
         :::::::::::::::::::::::::::::::::::::::::::::::::::::

           -------------------------------------------------
          | TOTAL ENERGY             -164.219465395024 Eh   |
          | TOTAL ENTHALPY           -163.315116999251 Eh   |
          | TOTAL FREE ENERGY        -163.450110644962 Eh   |
          | GRADIENT NORM               0.000056123505 Eh/α |
          | HOMO-LUMO GAP               0.717043363400 eV   |
           -------------------------------------------------

 * finished run on 2025/08/25 at 11:45:42.597
