   * xtb version 6.7.1 (edcfbbe) compiled by 'albert@albert-system' on 2024-07-22

   ID    Z sym.   atoms
    1    6 C      1-6, 8, 10-18, 20-44, 46-62
    2    7 N      7, 19, 45
    3    8 O      9, 63
    4    1 H      64-108

          program call               : xtb data2507/toluene/Cbz-MI/Cbz-MI.xyz --gfn 2 --gbsa toluene --ohess vtight --parallel 40 --molden --ceasefiles --namespace data2507/toluene/Cbz-MI/Cbz-MI_toluene_S0_preOpt
      * Solvation model:               GBSA
        Solvent                        toluene
        Solvent mass                       9.2140E+01 g/mol
          :  Hamiltonian                  GFN2-xTB          :
 * total energy  :  -164.2076260 Eh     change       -0.1425775E-08 Eh
 * total energy  :  -164.2239849 Eh     change       -0.1635885E-01 Eh
 * total energy  :  -164.2277967 Eh     change       -0.3811848E-02 Eh
 * total energy  :  -164.2287875 Eh     change       -0.9907394E-03 Eh
 * total energy  :  -164.2298413 Eh     change       -0.1053787E-02 Eh
 * total energy  :  -164.2304653 Eh     change       -0.6240430E-03 Eh
 * total energy  :  -164.2309377 Eh     change       -0.4723718E-03 Eh
 * total energy  :  -164.2312915 Eh     change       -0.3537807E-03 Eh
 * total energy  :  -164.2315369 Eh     change       -0.2454658E-03 Eh
 * total energy  :  -164.2317126 Eh     change       -0.1757060E-03 Eh
 * total energy  :  -164.2332516 Eh     change       -0.3989291E-06 Eh
 * total energy  :  -164.2332520 Eh     change       -0.4374158E-06 Eh
 * total energy  :  -164.2332525 Eh     change       -0.5327836E-06 Eh
 * total energy  :  -164.2332532 Eh     change       -0.6518728E-06 Eh
 * total energy  :  -164.2332540 Eh     change       -0.7706677E-06 Eh
 * total energy  :  -164.2332548 Eh     change       -0.8618696E-06 Eh
 * total energy  :  -164.2332551 Eh     change       -0.2526439E-06 Eh
 * total energy  :  -164.2332556 Eh     change       -0.5175428E-06 Eh
 * total energy  :  -164.2332557 Eh     change       -0.8195275E-07 Eh
   *** GEOMETRY OPTIMIZATION CONVERGED AFTER 124 ITERATIONS ***

 final structure:
================
108
 xtb: 6.7.1 (edcfbbe)
C            2.57015493794127      -10.57583156267646       -2.88608310142023
C            2.57216858086028       -9.88058693193570       -1.52894014169507
C            2.22527276937700       -8.39817964084267       -1.65716056085700
C            2.31812264070361       -7.63093198514911       -0.33728426519406
C            1.24020813059065       -8.03389040943917        0.66747608067186
C            1.29665861651580       -7.19873239951652        1.94780847574091
N            1.02574418249962       -5.79819927147538        1.69669340115302
C            1.98389111572369       -4.80270756725587        1.71406723825148
O            3.15351716046578       -4.98113688178882        1.96628047471966
C            1.28018523294899       -3.53545401132753        1.36355006602418
C            2.00495888376288       -2.29092789443123        1.18489539712577
C            3.09922731414238       -1.98132318369313        1.99626959642659
C            3.79531344777289       -0.80432678273214        1.81413951126229
C            3.43892013740773        0.09163742400384        0.80646982547003
C            4.18552871340929        1.34093960939315        0.61261229417642
C            4.48815803603139        1.80012144799598       -0.66888891042061
C            5.18918943898380        2.97471787593268       -0.85430168067474
C            5.60638547824837        3.72144510773615        0.24460943487424
N            6.32035143013087        4.91450257648194        0.06096731242465
C            6.01629345267298        6.13472317370596        0.63180734543520
C            4.95022253191116        6.48852183234620        1.44731295069872
C            4.86508050738038        7.80317211670264        1.86467751133171
C            5.80955709399579        8.75232768542275        1.47823469983999
C            6.85921407538198        8.41175363024094        0.64821901146541
C            6.96606629963796        7.09618678530054        0.21499104686984
C            7.89000708836189        6.41057340501743       -0.64506275429435
C            9.03054594047295        6.80658984661306       -1.33224126419137
C            9.72111883876944        5.86390818444914       -2.06786308237176
C            9.29506523401203        4.53770509202854       -2.11259042969704
C            8.16350678674109        4.11973963408008       -1.43829418278048
C            7.45231882279632        5.06748538084221       -0.71526995684238
C            5.30892699973393        3.27127495409220        1.52844180802974
C            4.60855065768642        2.09532967307020        1.70649798596617
C            2.35716924834924       -0.22965253896676       -0.01614353116200
C            1.64795055196683       -1.39524311433315        0.17151526600877
C           -0.03692596051788       -3.82142703481484        1.18720950933849
C           -1.16571943333940       -2.94555191404444        0.93439236463984
C           -1.21875739864111       -1.66482685009974        1.49441177058379
C           -2.30787093567797       -0.84989362472487        1.27912294561766
C           -3.37799463141968       -1.27573886561496        0.48916801160861
C           -4.53494319290522       -0.40232334492222        0.25665387489946
C           -5.14256912610461       -0.34025917497844       -0.99709277856137
C           -6.23021802121702        0.48010535400385       -1.21863623538328
C           -6.73872729775502        1.26301228571541       -0.18522906216614
N           -7.84133241939057        2.10033231076386       -0.40797482576687
C           -7.96417423144780        3.01834504634163       -1.43268789714321
C           -7.05602218826078        3.36414025049350       -2.42388354908621
C           -7.42444015066994        4.34679078609042       -3.32296164155033
C           -8.66162833218598        4.98287907084585       -3.23966122015160
C           -9.55913020235308        4.66114215643780       -2.24084558895492
C           -9.21150517259930        3.67618822242195       -1.32491212735896
C           -9.86987754310674        3.11662319999697       -0.17731854722340
C          -11.10510186339250        3.33821175494565        0.41848476105485
C          -11.44764438912901        2.59308973663448        1.52940461433102
C          -10.58213833812620        1.62622685472785        2.03766999740090
C           -9.34824722335996        1.38781800998099        1.46282708919623
C           -8.98783823961354        2.15060088279037        0.36049851365946
C           -6.14024892949008        1.20671997290043        1.07098982161634
C           -5.05304883830864        0.38386587155383        1.28547886771191
C           -3.32398987170886       -2.55377793491332       -0.06677757455194
C           -2.24279637040106       -3.38037105274406        0.15792302860932
C           -0.22175138826762       -5.28723684526126        1.39520970417018
O           -1.23916073216084       -5.94021262846225        1.35055649143689
H            2.81436799934750      -11.63011722317813       -2.77585458097724
H            3.30261264316044      -10.12124372945556       -3.55026548527462
H            1.59033792088724      -10.49721609226172       -3.35303273474271
H            1.85033811573111      -10.37446015406735       -0.87653289639243
H            3.55981656021608       -9.97990504889534       -1.07237372361359
H            1.21502695720331       -8.29657000887994       -2.06143874125000
H            2.91360233704790       -7.94001743359297       -2.37203691318156
H            3.30356527588099       -7.78775494946054        0.10794390897405
H            2.22380850541986       -6.56207968481356       -0.55036722138021
H            1.36508825299340       -9.07895359722575        0.95029068572675
H            0.25199221547247       -7.91919093330775        0.21662147192515
H            0.55192917448434       -7.56400204344786        2.66126524326551
H            2.29217357808618       -7.24800680674112        2.39603419934482
H            3.39407033334949       -2.66642639558471        2.77605616852353
H            4.64271780160515       -0.58618303811960        2.44695348138019
H            4.18372656629294        1.22207936578791       -1.52862457850824
H            5.40896293805374        3.32677874133735       -1.85128123768487
H            4.20411182862314        5.76509775420666        1.73953206659853
H            4.04612027270784        8.10283141801160        2.50250208623431
H            5.70969858445447        9.76955625377772        1.82794116600725
H            7.58237275118153        9.15067406427994        0.33636613082652
H            9.36958761872627        7.83081442633751       -1.28485287548619
H           10.60974920616478        6.15167073330308       -2.61061237879612
H            9.86462912849843        3.81932527330449       -2.68428925344096
H            7.85207225584515        3.08641039637935       -1.46621291143830
H            5.64155605935206        3.84198116895134        2.38274283422680
H            4.37242651724114        1.76416271405950        2.70676538635877
H            2.06051166797377        0.45358338289989       -0.79793965077073
H            0.81759129800795       -1.63362106945259       -0.47566001611636
H           -0.40266895914649       -1.32441818420390        2.11341480147365
H           -2.32538748740048        0.13894139868732        1.71243111131602
H           -4.74934564291703       -0.93091307288736       -1.81094621504700
H           -6.70017047493257        0.51090938930859       -2.19039118576350
H           -6.08846062980885        2.88968936047766       -2.48778416372786
H           -6.73662430047642        4.63093524596333       -4.10622294277426
H           -8.91395408822311        5.74371345980238       -3.96383531134363
H          -10.51108289362563        5.16557116677618       -2.16681104001697
H          -11.78248192328442        4.07609882781360        0.01490896574705
H          -12.40254183327925        2.75176094598992        2.00901846100246
H          -10.88406960125166        1.04754596032328        2.89866518474953
H           -8.69321311940369        0.62435939789250        1.85474708899288
H           -6.52510224487161        1.82041032833889        1.87185999975567
H           -4.60876490791238        0.33751996942434        2.26850926915597
H           -4.15020562421385       -2.91252545111378       -0.66233954960810
H           -2.22223958900035       -4.36882698274543       -0.27429929456889

          :  Hamiltonian                  GFN2-xTB          :
         :: gradient norm              0.000065797968 Eh/a0 ::
         :: HOMO-LUMO gap              0.913284414223 eV    ::
         :: SCC energy              -167.149170165245 Eh    ::
         :: -> dispersion             -0.140421972824 Eh    ::
         :: -> Gsolv                  -0.070731195077 Eh    ::
         :: repulsion energy           2.915914493033 Eh    ::

    * Orbital Energies and Occupations

         #    Occupation            Energy/Eh            Energy/eV
      -------------------------------------------------------------
         1        2.0000           -0.7349812             -19.9999
       ...           ...                  ...                  ...
       140        2.0000           -0.4155978             -11.3090
       141        2.0000           -0.4145692             -11.2810
       142        2.0000           -0.4142685             -11.2728
       143        2.0000           -0.4124383             -11.2230
       144        2.0000           -0.4111353             -11.1876
       145        2.0000           -0.4051022             -11.0234
       146        2.0000           -0.4050543             -11.0221
       147        2.0000           -0.3983921             -10.8408
       148        2.0000           -0.3862905             -10.5115
       149        2.0000           -0.3785197             -10.3000
       150        2.0000           -0.3784602             -10.2984
       151        2.0000           -0.3622167              -9.8564
       152        2.0000           -0.3616797              -9.8418 (HOMO)
       153                         -0.3281171              -8.9285 (LUMO)
       154                         -0.2610870              -7.1045
       155                         -0.2564435              -6.9782
       156                         -0.2448045              -6.6615
       157                         -0.2442853              -6.6473
       158                         -0.2339964              -6.3674
       159                         -0.2325700              -6.3286
       160                         -0.2325458              -6.3279
       161                         -0.2299428              -6.2571
       162                         -0.2240462              -6.0966
       163                         -0.2219290              -6.0390
       ...                                ...                  ...
       297                          0.7448796              20.2692
      -------------------------------------------------------------
                  HL-Gap            0.0335626 Eh            0.9133 eV

     #   Z          covCN         q      C6AA      α(0)
     1   6 C        3.752    -0.103    22.528     6.768
     2   6 C        3.800    -0.055    21.564     6.612
     3   6 C        3.802    -0.059    21.636     6.622
     4   6 C        3.801    -0.054    21.538     6.607
     5   6 C        3.802    -0.064    21.719     6.635
     6   6 C        3.740     0.010    20.484     6.458
     7   7 N        2.779    -0.123    23.661     7.224
     8   6 C        2.865     0.278    22.304     7.741
     9   8 O        0.857    -0.403    21.735     6.251
    10   6 C        3.025    -0.031    28.748     8.795
    11   6 C        2.971     0.018    27.603     8.618
    12   6 C        2.922    -0.027    28.667     8.780
    13   6 C        2.922    -0.032    28.788     8.799
    14   6 C        2.976     0.018    27.607     8.619
    15   6 C        2.976     0.009    27.811     8.650
    16   6 C        2.924    -0.032    28.796     8.800
    17   6 C        2.920    -0.042    29.048     8.838
    18   6 C        2.912     0.064    26.573     8.453
    19   7 N        2.802    -0.045    22.107     6.983
    20   6 C        3.075     0.047    26.864     8.498
    21   6 C        2.909    -0.052    29.289     8.874
    22   6 C        2.924    -0.035    28.873     8.812
    23   6 C        2.919    -0.043    29.059     8.840
    24   6 C        2.912    -0.035    28.868     8.810
    25   6 C        3.067    -0.019    28.402     8.739
    26   6 C        3.067    -0.019    28.402     8.739
    27   6 C        2.912    -0.035    28.868     8.810
    28   6 C        2.919    -0.043    29.059     8.840
    29   6 C        2.924    -0.035    28.873     8.812
    30   6 C        2.909    -0.052    29.289     8.874
    31   6 C        3.075     0.047    26.864     8.498
    32   6 C        2.920    -0.042    29.048     8.838
    33   6 C        2.924    -0.032    28.795     8.800
    34   6 C        2.922    -0.032    28.796     8.800
    35   6 C        2.922    -0.029    28.732     8.790
    36   6 C        3.025    -0.031    28.748     8.795
    37   6 C        2.971     0.018    27.601     8.618
    38   6 C        2.921    -0.029    28.732     8.790
    39   6 C        2.922    -0.032    28.796     8.800
    40   6 C        2.976     0.018    27.604     8.618
    41   6 C        2.975     0.009    27.812     8.651
    42   6 C        2.924    -0.032    28.795     8.800
    43   6 C        2.920    -0.042    29.051     8.839
    44   6 C        2.912     0.064    26.572     8.453
    45   7 N        2.801    -0.045    22.104     6.983
    46   6 C        3.075     0.047    26.865     8.498
    47   6 C        2.910    -0.052    29.289     8.874
    48   6 C        2.924    -0.035    28.873     8.812
    49   6 C        2.920    -0.043    29.058     8.840
    50   6 C        2.912    -0.035    28.867     8.810
    51   6 C        3.067    -0.019    28.401     8.739
    52   6 C        3.067    -0.019    28.401     8.739
    53   6 C        2.912    -0.035    28.868     8.810
    54   6 C        2.919    -0.043    29.058     8.840
    55   6 C        2.924    -0.035    28.873     8.812
    56   6 C        2.909    -0.052    29.288     8.874
    57   6 C        3.075     0.047    26.865     8.498
    58   6 C        2.920    -0.042    29.050     8.839
    59   6 C        2.924    -0.032    28.796     8.800
    60   6 C        2.922    -0.032    28.790     8.799
    61   6 C        2.922    -0.026    28.660     8.779
    62   6 C        2.865     0.279    22.286     7.738
    63   8 O        0.857    -0.401    21.703     6.246
    64   1 H        0.925     0.035     2.514     2.479
    65   1 H        0.925     0.034     2.533     2.489
    66   1 H        0.925     0.034     2.527     2.486
    67   1 H        0.924     0.033     2.548     2.496
    68   1 H        0.924     0.032     2.561     2.502
    69   1 H        0.924     0.032     2.555     2.500
    70   1 H        0.924     0.034     2.530     2.488
    71   1 H        0.924     0.037     2.485     2.465
    72   1 H        0.924     0.020     2.736     2.587
    73   1 H        0.925     0.054     2.270     2.356
    74   1 H        0.924     0.047     2.352     2.399
    75   1 H        0.924     0.057     2.231     2.336
    76   1 H        0.924     0.067     2.121     2.277
    77   1 H        0.926     0.046     2.375     2.410
    78   1 H        0.926     0.045     2.381     2.413
    79   1 H        0.926     0.045     2.385     2.415
    80   1 H        0.926     0.044     2.394     2.419
    81   1 H        0.926     0.031     2.574     2.509
    82   1 H        0.926     0.030     2.586     2.515
    83   1 H        0.926     0.027     2.623     2.533
    84   1 H        0.926     0.030     2.590     2.517
    85   1 H        0.926     0.030     2.589     2.516
    86   1 H        0.926     0.027     2.624     2.533
    87   1 H        0.926     0.030     2.589     2.516
    88   1 H        0.926     0.030     2.580     2.512
    89   1 H        0.926     0.044     2.395     2.420
    90   1 H        0.926     0.045     2.386     2.416
    91   1 H        0.926     0.048     2.348     2.396
    92   1 H        0.926     0.042     2.419     2.432
    93   1 H        0.926     0.042     2.421     2.433
    94   1 H        0.926     0.048     2.348     2.396
    95   1 H        0.926     0.045     2.384     2.414
    96   1 H        0.926     0.044     2.393     2.419
    97   1 H        0.926     0.031     2.572     2.508
    98   1 H        0.926     0.030     2.585     2.514
    99   1 H        0.926     0.027     2.622     2.532
   100   1 H        0.926     0.030     2.590     2.517
   101   1 H        0.926     0.030     2.588     2.516
   102   1 H        0.926     0.027     2.623     2.533
   103   1 H        0.926     0.030     2.590     2.516
   104   1 H        0.926     0.031     2.579     2.511
   105   1 H        0.926     0.044     2.395     2.420
   106   1 H        0.926     0.045     2.386     2.416
   107   1 H        0.926     0.045     2.378     2.411
   108   1 H        0.926     0.046     2.372     2.409

molecular dipole:
                 x           y           z       tot (Debye)
 q only:       -0.110       0.562      -0.368
   full:       -0.090       0.443      -0.269       1.338

 projected vibrational frequencies (cm⁻¹)
eigval :       -0.00    -0.00    -0.00     0.00     0.00     0.00
eigval :        4.76     6.19     7.47     8.51    11.39    17.38
eigval :       23.66    25.50    27.06    31.57    44.77    46.65
eigval :       50.21    55.44    61.62    70.66    73.94    80.46
eigval :       84.73    87.47    91.51    96.51   101.87   104.69
eigval :      106.07   117.51   121.95   127.56   143.50   144.62
eigval :      154.94   177.10   184.23   188.84   211.50   215.30
eigval :      217.85   225.76   233.80   245.42   256.04   271.46
eigval :      272.38   277.75   282.00   284.75   288.79   305.12
eigval :      310.11   343.87   350.42   367.04   370.31   375.46
eigval :      379.51   382.70   385.10   386.89   392.90   393.79
eigval :      405.81   419.97   420.76   427.15   431.31   433.23
eigval :      437.81   447.35   457.31   478.28   495.02   498.29
eigval :      509.12   518.03   518.96   530.08   533.64   536.53
eigval :      540.86   541.02   544.87   547.66   581.98   582.19
eigval :      591.34   592.56   595.27   604.00   607.64   610.29
eigval :      616.70   616.93   634.98   671.80   673.39   673.55
eigval :      681.09   685.30   693.39   696.01   701.98   704.56
eigval :      708.55   708.95   728.15   734.07   751.65   753.55
eigval :      762.46   764.14   767.98   768.53   772.70   779.03
eigval :      780.46   791.28   805.26   807.54   832.69   834.83
eigval :      856.24   860.45   862.60   863.82   866.90   867.78
eigval :      870.26   871.62   872.26   878.66   879.07   897.09
eigval :      897.13   901.09   901.52   901.70   902.81   906.76
eigval :      913.96   915.03   917.30   920.32   920.45   921.32
eigval :      921.65   925.88   926.33   926.58   927.47   929.07
eigval :      929.53   934.74   935.54   979.46   986.55  1001.39
eigval :     1002.70  1010.88  1011.03  1016.18  1017.70  1049.04
eigval :     1065.79  1068.85  1068.94  1072.08  1072.87  1076.71
eigval :     1078.38  1082.49  1090.73  1095.72  1116.58  1116.67
eigval :     1127.24  1132.74  1133.73  1135.19  1145.97  1147.73
eigval :     1151.37  1151.52  1175.55  1175.88  1177.35  1180.70
eigval :     1180.86  1182.11  1182.23  1197.10  1198.05  1199.05
eigval :     1204.36  1206.29  1234.98  1235.02  1241.19  1242.46
eigval :     1243.05  1243.91  1263.80  1265.54  1268.62  1271.54
eigval :     1273.11  1277.43  1286.26  1287.84  1295.17  1300.09
eigval :     1300.21  1300.68  1303.61  1309.44  1313.28  1313.67
eigval :     1313.96  1315.65  1317.31  1328.57  1331.72  1342.88
eigval :     1355.43  1355.56  1359.92  1360.05  1365.82  1366.33
eigval :     1371.46  1373.73  1393.30  1393.95  1410.21  1411.27
eigval :     1413.58  1426.85  1426.92  1427.37  1427.67  1430.23
eigval :     1466.55  1473.78  1473.87  1474.40  1476.63  1486.74
eigval :     1486.83  1487.78  1493.51  1494.57  1500.39  1500.79
eigval :     1503.32  1504.13  1542.72  1543.78  1560.46  1560.59
eigval :     1573.09  1573.13  1573.15  1580.33  1587.05  1587.20
eigval :     1595.59  1596.71  1596.72  1597.14  1612.54  1612.70
eigval :     1615.16  1709.97  1747.31  2949.86  2954.36  2956.26
eigval :     2968.14  2971.95  2974.60  2976.85  2987.96  2989.19
eigval :     3005.64  3024.43  3027.45  3034.49  3070.78  3071.01
eigval :     3071.15  3071.32  3076.43  3076.48  3077.19  3077.33
eigval :     3081.12  3081.27  3082.93  3083.54  3083.66  3083.88
eigval :     3084.55  3084.77  3085.10  3085.31  3085.60  3085.95
eigval :     3090.99  3091.01  3093.03  3093.16  3093.18  3093.43
eigval :     3094.32  3095.42  3096.04  3096.98  3102.08  3102.99

   temp. (K)  partition function   enthalpy   heat capacity  entropy
                                   cal/mol     cal/K/mol   cal/K/mol   J/K/mol
 298.15  VIB  0.369E+28            31628.853    192.455    203.277
         ROT  0.421E+09              888.752      2.981     42.444
         INT  0.155E+37            32517.606    195.436    245.721
         TR   0.226E+29             1481.254      4.968     45.955
         TOT                       33998.8596   200.4038   291.6754  1220.3697

       T/K    H(0)-H(T)+PV         H(T)/Eh          T*S/Eh         G(T)/Eh
   ------------------------------------------------------------------------
    298.15    0.541806E-01    0.904113E+00    0.138584E+00    0.765529E+00
   ------------------------------------------------------------------------

         :::::::::::::::::::::::::::::::::::::::::::::::::::::
         ::                  THERMODYNAMIC                  ::
         :::::::::::::::::::::::::::::::::::::::::::::::::::::
         :: total free energy        -163.467726646818 Eh   ::
         ::.................................................::
         :: total energy             -164.233255673370 Eh   ::
         :: zero point energy           0.849932774136 Eh   ::
         :: G(RRHO) w/o ZPVE           -0.084403747585 Eh   ::
         :: G(RRHO) contrib.            0.765529026551 Eh   ::
         :::::::::::::::::::::::::::::::::::::::::::::::::::::

           -------------------------------------------------
          | TOTAL ENERGY             -164.233255673370 Eh   |
          | TOTAL ENTHALPY           -163.329142267675 Eh   |
          | TOTAL FREE ENERGY        -163.467726646818 Eh   |
          | GRADIENT NORM               0.000065810022 Eh/α |
          | HOMO-LUMO GAP               0.913284920837 eV   |
           -------------------------------------------------

 * finished run on 2025/08/25 at 11:00:14.449
