   * xtb version 6.7.1 (edcfbbe) compiled by 'albert@albert-system' on 2024-07-22

   ID    Z sym.   atoms
    1    6 C      1-23, 25, 26, 28, 30-32, 34, 36, 38, 40, 42, 44
    2    7 N      24
    3    9 F      27, 29, 33, 35, 37, 39, 41, 43, 45
    4    1 H      46-75

          program call               : xtb data2507/gas/PFBP-2a/PFBP-2a.xyz --gfn 2 --ohess vtight --parallel 40 --molden --ceasefiles --namespace data2507/gas/PFBP-2a/PFBP-2a_gas_S0_preOpt
          :  Hamiltonian                  GFN2-xTB          :
 * total energy  :  -135.7739523 Eh     change       -0.1431886E-08 Eh
 * total energy  :  -135.7843651 Eh     change       -0.1041280E-01 Eh
 * total energy  :  -135.7882836 Eh     change       -0.3918536E-02 Eh
 * total energy  :  -135.7895813 Eh     change       -0.1297659E-02 Eh
 * total energy  :  -135.7901804 Eh     change       -0.5991394E-03 Eh
 * total energy  :  -135.7903044 Eh     change       -0.1239345E-03 Eh
 * total energy  :  -135.7903610 Eh     change       -0.5660540E-04 Eh
 * total energy  :  -135.7904396 Eh     change       -0.7860922E-04 Eh
 * total energy  :  -135.7904913 Eh     change       -0.5173164E-04 Eh
 * total energy  :  -135.7905882 Eh     change       -0.9686270E-04 Eh
 * total energy  :  -135.7930894 Eh     change       -0.4431032E-06 Eh
 * total energy  :  -135.7930899 Eh     change       -0.4525552E-06 Eh
 * total energy  :  -135.7930903 Eh     change       -0.4790201E-06 Eh
 * total energy  :  -135.7930908 Eh     change       -0.4362959E-06 Eh
 * total energy  :  -135.7930911 Eh     change       -0.3274020E-06 Eh
 * total energy  :  -135.7930913 Eh     change       -0.2260939E-06 Eh
 * total energy  :  -135.7930915 Eh     change       -0.1669877E-06 Eh
 * total energy  :  -135.7930916 Eh     change       -0.1415161E-06 Eh
 * total energy  :  -135.7930917 Eh     change       -0.9395316E-07 Eh
   *** GEOMETRY OPTIMIZATION CONVERGED AFTER 62 ITERATIONS ***

 final structure:
================
75
 xtb: 6.7.1 (edcfbbe)
C           -1.90376198923234        5.84716450006164       -1.25664336936116
C           -2.24230358411167        5.09514211690668        0.03820058315208
C           -1.70376801216965        5.87247570021901        1.24741434733351
C           -3.76638509726029        5.01706873806063        0.16158828706407
C           -1.58409068669604        3.72619855936933        0.00230521327064
C           -0.20016707558108        3.62518799490667       -0.09614671255329
C            0.42498202340326        2.39902129641625       -0.10771333360658
C           -0.30465354196206        1.21438355660959       -0.00209223450955
C           -1.69550791256576        1.28603258685032        0.02804092427988
C           -2.29746778341530        2.53926277469417        0.04047976576029
C           -2.57628769968021        0.05301859775780        0.00016969866147
C           -3.45233600965695        0.11066108952884       -1.26455453888796
C           -3.45361706500108        0.03999894146155        1.26527432280328
C           -1.76070791828263       -1.22389950672501       -0.02799595042692
C           -2.42018886749738       -2.44397132709815       -0.04066109348088
C           -1.76862883390724       -3.66999457190819       -0.00176093035940
C           -2.57901459164933       -4.95467121785726       -0.04345765145459
C           -1.69502292692203       -6.20383748767497       -0.00540312722942
C           -3.39737230700230       -4.98738809391441       -1.34193574868331
C           -3.52132455672653       -4.99629883358842        1.16789451161419
C           -0.38494497176294       -3.64239308930540        0.09748757016951
C            0.29961229860574       -2.44461657217545        0.10931580253110
C           -0.36610663467398       -1.22522985804253        0.00340841134611
N            0.35228601241700       -0.02279495321141        0.00090690177777
C            1.74237479726122       -0.05797978793114        0.00209451019889
C            2.46257752573569       -0.66052193204937       -1.04060080057370
F            1.79454983722793       -1.18076092512785       -2.07623681720955
C            3.84656900943982       -0.70655970532471       -1.03149357943514
F            4.49576254080978       -1.26048683413750       -2.06075114508969
C            4.58256151280237       -0.12971012143027        0.00449624588642
C            6.05594756105687       -0.16672368947594        0.00563940074052
C            6.80245590174288        1.00923506675035        0.06614670885087
F            6.17261393122096        2.18377263859265        0.09046728287796
C            8.19259089255341        0.98369530445388        0.06816651280503
F            8.88629606842088        2.11971827663856        0.11901395244439
C            8.86012844391267       -0.23699325890150        0.00774205406081
F           10.19037303408314       -0.27033170355570        0.00873077316874
C            8.13236728477144       -1.42270973729695       -0.05375226037197
F            8.76840152601091       -2.59200542452140       -0.10369758493231
C            6.74268074029459       -1.37861730062224       -0.05382193502445
F            6.05486622297403       -2.52009052127826       -0.07924912135441
C            3.87488685331096        0.48351805535600        1.03931647586664
F            4.54949864899482        1.00408092275835        2.06964733243733
C            2.49032400704070        0.50734774686705        1.04611929011688
F            1.84760044584563        1.06068589133580        2.08060864447487
H           -2.25814733109404        5.28825040016849       -2.12035134787933
H           -0.83232889704452        5.99240139800091       -1.36128440237867
H           -2.38143092232733        6.82454466372308       -1.25781738737371
H           -2.17072014675733        6.85362507021500        1.30060506631257
H           -1.92274269624750        5.33482487135316        2.16753623139390
H           -0.62835066886702        6.01057337750268        1.18239637521682
H           -4.05927392272902        4.50034061515952        1.07274081898619
H           -4.17771662305058        6.02360012491094        0.20058938780054
H           -4.20459300624034        4.51102474019278       -0.69574979900515
H            0.41231666503801        4.50986389243467       -0.17147656550559
H            1.49878876665748        2.37235522725969       -0.21514970828390
H           -3.37237229365682        2.57689093988791        0.07812301255216
H           -4.06725603358876        1.00596945676054       -1.27334055320488
H           -2.82056204737040        0.11847610423412       -2.15055168781132
H           -4.11012616680324       -0.75190613729977       -1.32101649690584
H           -4.11154969106374       -0.82418759039484        1.27539701563805
H           -2.82261392712668        0.00121037914260        2.15100477312869
H           -4.06832599994542        0.93381954571400        1.32096701564967
H           -3.49764334812830       -2.43578105656806       -0.07888125127898
H           -1.01153535549872       -6.22389230079013       -0.85088070392485
H           -2.32044421147471       -7.09269752898293       -0.05719342091794
H           -1.12265137355222       -6.25052498851064        0.91806326323955
H           -3.96686468548365       -5.91229947504919       -1.40248259788445
H           -4.09476472667479       -4.15593911636610       -1.39420896075568
H           -2.73579521598422       -4.93159668793993       -2.20368408102338
H           -2.94915148135451       -4.93939740899880        2.09151409032822
H           -4.08812875778743       -5.92480481782524        1.16929849091968
H           -4.22587233129867       -4.16932872253745        1.15262453718355
H            0.18782250438134       -4.55116158581583        0.17337968822138
H            1.37338887089520       -2.47333329202056        0.21711960841076

          :  Hamiltonian                  GFN2-xTB          :
         :: gradient norm              0.000036022835 Eh/a0 ::
         :: HOMO-LUMO gap              1.234258472443 eV    ::
         :: SCC energy              -137.453475049283 Eh    ::
         :: -> dispersion             -0.096383595032 Eh    ::
         :: repulsion energy           1.660383307543 Eh    ::

    * Orbital Energies and Occupations

         #    Occupation            Energy/Eh            Energy/eV
      -------------------------------------------------------------
         1        2.0000           -0.8747618             -23.8035
       ...           ...                  ...                  ...
       107        2.0000           -0.4477719             -12.1845
       108        2.0000           -0.4412064             -12.0058
       109        2.0000           -0.4404744             -11.9859
       110        2.0000           -0.4363454             -11.8736
       111        2.0000           -0.4329199             -11.7803
       112        2.0000           -0.4286567             -11.6643
       113        2.0000           -0.4218242             -11.4784
       114        2.0000           -0.4137898             -11.2598
       115        2.0000           -0.4133125             -11.2468
       116        2.0000           -0.4063000             -11.0560
       117        2.0000           -0.4045491             -11.0083
       118        2.0000           -0.4006061             -10.9010
       119        2.0000           -0.3628058              -9.8724 (HOMO)
       120                         -0.3174475              -8.6382 (LUMO)
       121                         -0.2996971              -8.1552
       122                         -0.2855371              -7.7699
       123                         -0.2845835              -7.7439
       124                         -0.2331354              -6.3439
       125                         -0.2278304              -6.1996
       126                         -0.2269770              -6.1764
       127                         -0.2036143              -5.5406
       128                         -0.1794433              -4.8829
       129                         -0.1599253              -4.3518
       130                         -0.1029680              -2.8019
       ...                                ...                  ...
       210                          0.6636353              18.0584
      -------------------------------------------------------------
                  HL-Gap            0.0453582 Eh            1.2343 eV

     #   Z          covCN         q      C6AA      α(0)
     1   6 C        3.762    -0.107    22.583     6.774
     2   6 C        3.903     0.026    20.077     6.369
     3   6 C        3.762    -0.107    22.591     6.775
     4   6 C        3.761    -0.108    22.603     6.777
     5   6 C        2.972     0.003    27.957     8.673
     6   6 C        2.929    -0.035    28.876     8.813
     7   6 C        2.922    -0.053    29.304     8.877
     8   6 C        2.927     0.054    26.779     8.487
     9   6 C        2.980    -0.008    28.222     8.714
    10   6 C        2.936    -0.045    29.127     8.851
    11   6 C        3.910     0.022    20.145     6.380
    12   6 C        3.761    -0.104    22.542     6.768
    13   6 C        3.761    -0.105    22.544     6.768
    14   6 C        2.980    -0.008    28.211     8.713
    15   6 C        2.938    -0.041    29.018     8.835
    16   6 C        2.972     0.003    27.957     8.673
    17   6 C        3.903     0.026    20.078     6.369
    18   6 C        3.761    -0.109    22.631     6.782
    19   6 C        3.762    -0.106    22.573     6.773
    20   6 C        3.761    -0.106    22.566     6.772
    21   6 C        2.927    -0.039    28.978     8.828
    22   6 C        2.923    -0.053    29.317     8.879
    23   6 C        2.927     0.054    26.779     8.486
    24   7 N        2.750    -0.036    21.945     6.958
    25   6 C        2.923     0.046    26.977     8.518
    26   6 C        2.780     0.138    24.983     8.187
    27   9 F        0.787    -0.170    10.931     3.905
    28   6 C        2.780     0.151    24.719     8.143
    29   9 F        0.787    -0.173    10.963     3.911
    30   6 C        2.975    -0.015    28.378     8.738
    31   6 C        2.973    -0.004    28.120     8.698
    32   6 C        2.784     0.154    24.646     8.132
    33   9 F        0.787    -0.159    10.817     3.885
    34   6 C        2.774     0.140    24.941     8.179
    35   9 F        0.787    -0.150    10.736     3.870
    36   6 C        2.778     0.143    24.879     8.170
    37   9 F        0.787    -0.147    10.705     3.865
    38   6 C        2.774     0.140    24.941     8.179
    39   9 F        0.787    -0.150    10.736     3.870
    40   6 C        2.784     0.154    24.646     8.132
    41   9 F        0.787    -0.159    10.816     3.885
    42   6 C        2.780     0.151    24.719     8.143
    43   9 F        0.787    -0.173    10.963     3.911
    44   6 C        2.780     0.138    24.983     8.187
    45   9 F        0.787    -0.170    10.931     3.905
    46   1 H        0.925     0.034     2.530     2.487
    47   1 H        0.925     0.037     2.486     2.466
    48   1 H        0.925     0.039     2.465     2.455
    49   1 H        0.925     0.038     2.471     2.458
    50   1 H        0.925     0.036     2.508     2.476
    51   1 H        0.925     0.038     2.472     2.459
    52   1 H        0.925     0.036     2.505     2.475
    53   1 H        0.925     0.038     2.479     2.462
    54   1 H        0.925     0.035     2.519     2.482
    55   1 H        0.926     0.036     2.503     2.474
    56   1 H        0.926     0.020     2.728     2.583
    57   1 H        0.926     0.045     2.380     2.413
    58   1 H        0.925     0.041     2.430     2.438
    59   1 H        0.925     0.036     2.509     2.477
    60   1 H        0.925     0.041     2.433     2.439
    61   1 H        0.925     0.041     2.438     2.442
    62   1 H        0.925     0.036     2.509     2.477
    63   1 H        0.925     0.042     2.422     2.434
    64   1 H        0.926     0.038     2.470     2.458
    65   1 H        0.925     0.038     2.476     2.461
    66   1 H        0.925     0.038     2.481     2.463
    67   1 H        0.925     0.036     2.498     2.472
    68   1 H        0.925     0.038     2.471     2.458
    69   1 H        0.925     0.035     2.512     2.479
    70   1 H        0.925     0.036     2.501     2.473
    71   1 H        0.925     0.034     2.524     2.484
    72   1 H        0.925     0.039     2.467     2.456
    73   1 H        0.925     0.035     2.517     2.481
    74   1 H        0.926     0.043     2.414     2.430
    75   1 H        0.926     0.020     2.728     2.583

molecular dipole:
                 x           y           z       tot (Debye)
 q only:       -2.446       0.070      -0.001
   full:       -2.222       0.072      -0.002       5.652

 projected vibrational frequencies (cm⁻¹)
eigval :       -0.00    -0.00    -0.00    -0.00     0.00     0.00
eigval :       13.66    14.55    18.70    25.29    29.31    34.90
eigval :       40.39    41.80    53.29    64.70    81.91    87.77
eigval :      102.85   111.69   118.47   119.36   127.39   128.43
eigval :      130.85   138.01   153.77   165.50   169.12   172.61
eigval :      175.08   183.59   203.37   206.80   210.74   219.49
eigval :      223.61   228.81   232.84   241.01   244.73   247.95
eigval :      257.25   263.41   275.27   277.43   289.31   296.05
eigval :      309.20   313.40   315.66   327.48   337.06   341.21
eigval :      341.84   350.64   357.56   363.07   372.41   394.12
eigval :      401.10   402.41   408.44   410.91   414.19   420.97
eigval :      425.57   436.92   444.68   456.58   458.66   460.86
eigval :      480.17   483.89   498.21   498.38   528.87   564.98
eigval :      572.53   578.34   580.03   584.53   584.73   586.94
eigval :      609.46   611.80   631.30   634.02   646.68   671.64
eigval :      689.36   694.51   696.51   697.02   715.69   745.54
eigval :      758.44   822.05   824.44   828.26   850.12   886.09
eigval :      894.56   901.19   907.08   914.96   919.29   937.30
eigval :      951.10   956.98   958.02   958.33   960.44   960.51
eigval :      963.04   963.39   963.47   963.76   975.91  1014.70
eigval :     1035.09  1035.23  1035.73  1036.06  1045.61  1088.87
eigval :     1096.49  1102.60  1119.88  1144.95  1155.76  1160.54
eigval :     1165.66  1182.58  1193.38  1210.97  1228.13  1228.16
eigval :     1230.65  1236.23  1236.60  1246.33  1261.05  1267.49
eigval :     1268.05  1283.44  1291.69  1294.28  1305.19  1308.75
eigval :     1324.63  1331.81  1347.08  1379.38  1401.15  1402.98
eigval :     1403.39  1406.09  1406.44  1414.14  1418.49  1422.00
eigval :     1429.37  1429.65  1450.31  1456.75  1465.87  1467.66
eigval :     1482.43  1483.45  1487.97  1488.97  1491.39  1491.97
eigval :     1494.05  1494.23  1494.81  1498.74  1501.91  1502.95
eigval :     1503.59  1505.77  1507.62  1514.11  1515.69  1519.36
eigval :     1520.05  1522.85  1555.21  1556.68  1567.19  1569.65
eigval :     1584.44  1599.61  1605.56  3023.19  3024.47  3025.76
eigval :     3026.26  3027.21  3029.14  3030.98  3031.86  3032.22
eigval :     3032.61  3033.15  3033.65  3035.92  3038.00  3039.00
eigval :     3040.60  3042.19  3045.16  3045.93  3049.32  3049.37
eigval :     3051.84  3053.14  3055.86  3083.61  3085.31  3099.87
eigval :     3100.03  3123.12  3128.21

   temp. (K)  partition function   enthalpy   heat capacity  entropy
                                   cal/mol     cal/K/mol   cal/K/mol   J/K/mol
 298.15  VIB  0.185E+20            25792.063    153.114    159.611
         ROT  0.811E+08              888.752      2.981     39.171
         INT  0.150E+28            26680.816    156.095    198.782
         TR   0.155E+29             1481.254      4.968     45.210
         TOT                       28162.0697   161.0630   243.9926  1020.8649

       T/K    H(0)-H(T)+PV         H(T)/Eh          T*S/Eh         G(T)/Eh
   ------------------------------------------------------------------------
    298.15    0.448791E-01    0.604703E+00    0.115929E+00    0.488775E+00
   ------------------------------------------------------------------------

         :::::::::::::::::::::::::::::::::::::::::::::::::::::
         ::                  THERMODYNAMIC                  ::
         :::::::::::::::::::::::::::::::::::::::::::::::::::::
         :: total free energy        -135.304317195649 Eh   ::
         ::.................................................::
         :: total energy             -135.793091741744 Eh   ::
         :: zero point energy           0.559824176255 Eh   ::
         :: G(RRHO) w/o ZPVE           -0.071049630160 Eh   ::
         :: G(RRHO) contrib.            0.488774546095 Eh   ::
         :::::::::::::::::::::::::::::::::::::::::::::::::::::

           -------------------------------------------------
          | TOTAL ENERGY             -135.793091741744 Eh   |
          | TOTAL ENTHALPY           -135.188388450679 Eh   |
          | TOTAL FREE ENERGY        -135.304317195649 Eh   |
          | GRADIENT NORM               0.000036100915 Eh/α |
          | HOMO-LUMO GAP               1.234260484521 eV   |
           -------------------------------------------------

 * finished run on 2025/09/04 at 06:25:26.469
