   * xtb version 6.7.1 (edcfbbe) compiled by 'albert@albert-system' on 2024-07-22

   ID    Z sym.   atoms
    1    6 C      1-23, 25, 26, 28, 30-32, 34, 36, 38, 40, 42, 44
    2    7 N      24
    3    9 F      27, 29, 33, 35, 37, 39, 41, 43, 45
    4    1 H      46-75

          program call               : xtb data2507/gas/PFBP-2a/PFBP-2a_gas_S0_finalOpt.xtbopt.xyz --gfn 2 --spinpol --tblite --uhf 2 --ohess vtight --parallel 40 --molden --ceasefiles --namespace data2507/gas/PFBP-2a/PFBP-2a_gas_T1_preOpt
 * total energy  :  -135.7079908 Eh     change       -0.4135782E-07 Eh
 * total energy  :  -135.7144015 Eh     change       -0.6410758E-02 Eh
 * total energy  :  -135.7162261 Eh     change       -0.1824631E-02 Eh
 * total energy  :  -135.7167135 Eh     change       -0.4873610E-03 Eh
 * total energy  :  -135.7173817 Eh     change       -0.6681687E-03 Eh
 * total energy  :  -135.7177010 Eh     change       -0.3192807E-03 Eh
 * total energy  :  -135.7179706 Eh     change       -0.2696169E-03 Eh
 * total energy  :  -135.7181243 Eh     change       -0.1537161E-03 Eh
 * total energy  :  -135.7182085 Eh     change       -0.8416897E-04 Eh
 * total energy  :  -135.7182698 Eh     change       -0.6133561E-04 Eh
 * total energy  :  -135.7185154 Eh     change       -0.5409328E-06 Eh
 * total energy  :  -135.7185159 Eh     change       -0.5139675E-06 Eh
 * total energy  :  -135.7185165 Eh     change       -0.5617597E-06 Eh
 * total energy  :  -135.7185168 Eh     change       -0.3460593E-06 Eh
 * total energy  :  -135.7185171 Eh     change       -0.2915777E-06 Eh
 * total energy  :  -135.7185173 Eh     change       -0.1833241E-06 Eh
 * total energy  :  -135.7185174 Eh     change       -0.1447687E-06 Eh
 * total energy  :  -135.7185174 Eh     change        0.5347121E-07 Eh
 * total energy  :  -135.7185175 Eh     change       -0.8863833E-07 Eh
   *** GEOMETRY OPTIMIZATION CONVERGED AFTER 39 ITERATIONS ***

 final structure:
================
75
 xtb: 6.7.1 (edcfbbe)
C           -5.06394094089621        5.13817544966818        1.08026081794101
C           -4.28347455437861        5.00230109382837       -0.23619692949506
C           -5.25837002601399        5.01042497722001       -1.42355655319679
C           -3.35355970493335        6.21061512375683       -0.36885197439233
C           -3.52936143999971        3.68788601950448       -0.22195312026078
C           -2.14282912407228        3.60238162855715       -0.35280133029359
C           -1.50274204659723        2.38834263955879       -0.30623817178707
C           -2.21691858172538        1.19606039168684       -0.10618483297550
C           -3.62143275541038        1.25143983257508       -0.04945896719556
C           -4.23240312842727        2.49120246845655       -0.09781143113971
C           -4.46744029120063        0.00090197794837        0.01632766103604
C           -5.35681224184146       -0.04656222276378       -1.24169006018661
C           -5.33738642892881        0.05019883495474        1.28781196212070
C           -3.62306699260701       -1.25137959524250        0.06958913303518
C           -4.23604262612902       -2.48993229075087        0.12358266612370
C           -3.53411540176122       -3.68830292595943        0.23713492136626
C           -4.29085395021220       -5.00111895086947        0.25868483523955
C           -5.24745797509593       -5.01034428224103        1.46083109174124
C           -3.36170483755857       -6.21184088352786        0.37358444706376
C           -5.09172301522228       -5.13167562560638       -1.04599187321966
C           -2.14597658411846       -3.60590175546439        0.35167209277519
C           -1.50395849838991       -2.39304950155605        0.30024297243352
C           -2.21787370736016       -1.19895403761632        0.11057489335141
N           -1.54644904337990       -0.00191973658331       -0.00020641233993
C           -0.14294398615846       -0.00208884799014       -0.00350490632208
C            0.60154989277170       -0.65369313868468       -1.02522939584529
F           -0.09401856877302       -1.20531002311293       -2.04225639412177
C            1.96404200608996       -0.64478324880399       -1.03507467256997
F            2.60736354524099       -1.16211277296094       -2.09377752455564
C            2.73260973082409       -0.00055983857874       -0.00932710416920
C            4.15970092351411        0.00012078115124       -0.01208460645063
C            4.91654631398891        1.15392805081549        0.32367669372176
F            4.27182544730956        2.31013834034344        0.54945559279368
C            6.29357735217960        1.15837104560844        0.32109589396085
F            6.96489351675608        2.28139942421838        0.61335555229021
C            7.00393152331825        0.00142997067784       -0.01693278774841
F            8.34503977528372        0.00201526963623       -0.01913722260366
C            6.29347499231606       -1.15613001942341       -0.35264336907555
F            6.96482429125050       -2.27853514389064       -0.64721748619623
C            4.91643695593630       -1.15294505336846       -0.35058007587991
F            4.27200243390465       -2.30969721835364       -0.57434323103539
C            1.96759653387477        0.64306535610596        1.01940829282918
F            2.61463822509266        1.16114584060410        2.07546898587616
C            0.60510884206618        0.65072882148605        1.01493664630065
F           -0.08698819573949        1.20209556350618        2.03446680859182
H           -4.38188794216538        5.10231922582284        1.92671523528239
H           -5.79585433286332        4.34382729934468        1.19718066560739
H           -5.59013368788043        6.08942611530987        1.10125261044174
H           -4.71665568490040        4.87408303934629       -2.35696936505636
H           -5.99995267960607        4.22081684029407       -1.33986177095896
H           -5.78158348558623        5.96262649211926       -1.46476652033410
H           -2.80658057640985        6.18446658485956       -1.30823293815896
H           -3.94394540064103        7.12390646805849       -0.35222027794164
H           -2.64728799006466        6.25361358108733        0.45658841452312
H           -1.54652135306848        4.48639665776897       -0.49937155172227
H           -0.43301644469463        2.35520194183701       -0.43551723516221
H           -5.30804950430617        2.53185543955908       -0.03990149475397
H           -4.73539550890109       -0.10451357759184       -2.13279055538383
H           -6.00991032183256       -0.91373891358602       -1.22101407660343
H           -5.97601367589581        0.84268082970208       -1.31186687476072
H           -5.98865048415382        0.91895398141382        1.27711168318235
H           -5.95738414794358       -0.83772511182830        1.36730626290569
H           -4.70230623101155        0.10665411863878        2.16932734661655
H           -5.31241128761740       -2.52819990408469        0.07912431933113
H           -4.69107429475581       -4.87880536066486        2.38626990516210
H           -5.77294807238286       -5.96106904443926        1.50688611880641
H           -5.98767209203019       -4.21808465814202        1.39110999378660
H           -3.95419757593881       -7.12384455186199        0.36198929323766
H           -2.66736842885506       -6.25311783594403       -0.46201631138836
H           -2.80131811616983       -6.19042412402762        1.30514012397149
H           -5.82431907618179       -4.33606385822021       -1.14915888554241
H           -5.61952937928797       -6.08213134264829       -1.06185989375997
H           -4.42276351467726       -5.09409689689135       -1.90275898754037
H           -1.54980418448223       -4.49143803044667        0.48934682712057
H           -0.43277226158013       -2.36254788476193        0.41727644628529

 projected vibrational frequencies (cm⁻¹)
eigval :       -0.00    -0.00    -0.00     0.00     0.00     0.00
eigval :       11.06    14.91    18.38    24.74    28.36    32.56
eigval :       39.02    46.05    54.58    66.19    81.70    83.48
eigval :      101.51   109.69   117.08   121.95   123.56   126.66
eigval :      131.81   145.99   150.79   160.40   164.43   170.19
eigval :      171.60   188.32   198.90   203.10   211.66   216.11
eigval :      220.35   222.85   233.18   238.66   245.69   246.29
eigval :      260.45   266.58   274.45   282.67   291.54   300.82
eigval :      304.31   310.82   313.56   321.80   322.54   338.37
eigval :      341.21   347.26   351.44   357.86   365.86   371.85
eigval :      380.26   389.75   394.56   396.29   397.35   405.98
eigval :      408.44   434.67   435.62   449.82   450.35   458.38
eigval :      475.96   483.34   487.83   494.09   516.27   524.59
eigval :      532.89   545.67   553.47   557.13   567.33   567.48
eigval :      583.73   589.22   594.97   611.78   632.80   668.74
eigval :      678.95   684.31   694.33   698.35   708.55   741.42
eigval :      756.77   821.52   821.72   826.07   850.29   890.83
eigval :      892.75   896.58   903.54   917.32   917.97   930.52
eigval :      940.33   943.82   950.19   958.44   959.76   959.77
eigval :      962.95   963.18   964.12   964.25   964.63  1011.72
eigval :     1026.20  1031.09  1031.14  1033.02  1035.69  1036.33
eigval :     1077.19  1080.14  1093.47  1132.37  1142.27  1144.85
eigval :     1154.34  1172.46  1174.52  1202.02  1220.84  1220.96
eigval :     1224.86  1230.21  1230.26  1235.15  1243.83  1256.45
eigval :     1263.79  1269.76  1283.23  1294.07  1302.30  1303.99
eigval :     1305.49  1322.09  1332.06  1340.83  1341.62  1370.06
eigval :     1400.88  1403.66  1404.16  1404.54  1404.90  1413.30
eigval :     1414.03  1415.14  1420.74  1427.12  1427.47  1428.01
eigval :     1445.57  1449.01  1473.16  1482.64  1483.29  1488.36
eigval :     1488.45  1490.13  1490.84  1492.26  1493.36  1493.97
eigval :     1497.63  1497.86  1501.71  1502.20  1512.05  1512.06
eigval :     1514.17  1515.29  1518.28  1529.40  1530.33  1533.15
eigval :     1567.64  1582.97  1624.75  3031.32  3031.37  3032.80
eigval :     3032.91  3034.66  3034.68  3036.72  3037.22  3037.34
eigval :     3038.02  3039.16  3039.42  3041.79  3041.80  3046.25
eigval :     3046.50  3047.93  3048.20  3049.34  3051.08  3051.35
eigval :     3051.69  3058.01  3061.66  3105.01  3105.20  3109.63
eigval :     3109.90  3132.92  3133.53

   temp. (K)  partition function   enthalpy   heat capacity  entropy
                                   cal/mol     cal/K/mol   cal/K/mol   J/K/mol
 298.15  VIB  0.366E+20            26136.144    155.012    161.859
         ROT  0.406E+08              888.752      2.981     37.795
         INT  0.148E+28            27024.896    157.993    199.654
         TR   0.155E+29             1481.254      4.968     45.210
         TOT                       28506.1499   162.9614   244.8638  1024.5103

       T/K    H(0)-H(T)+PV         H(T)/Eh          T*S/Eh         G(T)/Eh
   ------------------------------------------------------------------------
    298.15    0.454274E-01    0.601664E+00    0.116343E+00    0.485321E+00
   ------------------------------------------------------------------------

         :::::::::::::::::::::::::::::::::::::::::::::::::::::
         ::                  THERMODYNAMIC                  ::
         :::::::::::::::::::::::::::::::::::::::::::::::::::::
         :: total free energy        -135.233196044408 Eh   ::
         ::.................................................::
         :: total energy             -135.718517464399 Eh   ::
         :: zero point energy           0.556236692760 Eh   ::
         :: G(RRHO) w/o ZPVE           -0.070915272769 Eh   ::
         :: G(RRHO) contrib.            0.485321419991 Eh   ::
         :::::::::::::::::::::::::::::::::::::::::::::::::::::

           -------------------------------------------------
          | TOTAL ENERGY             -135.718517464399 Eh   |
          | TOTAL ENTHALPY           -135.116853330262 Eh   |
          | TOTAL FREE ENERGY        -135.233196044408 Eh   |
          | GRADIENT NORM               0.000057440558 Eh/α |
           -------------------------------------------------

 * finished run on 2025/09/04 at 06:30:34.550
