   * xtb version 6.7.1 (edcfbbe) compiled by 'albert@albert-system' on 2024-07-22

   ID    Z sym.   atoms
    1    6 C      1-23, 25, 26, 28, 30-32, 34, 36, 38, 40, 42, 44
    2    7 N      24
    3    9 F      27, 29, 33, 35, 37, 39, 41, 43, 45
    4    1 H      46-75

          program call               : xtb data2507/gas/PFBP-2a/PFBP-2a_gas_T1_crest.xyz --gfn 2 --spinpol --tblite --uhf 2 --ohess vtight --parallel 40 --molden --ceasefiles --namespace data2507/gas/PFBP-2a/PFBP-2a_gas_T1_finalOpt
 * total energy  :  -135.7186904 Eh     change        0.1891584E-07 Eh
 * total energy  :  -135.7186982 Eh     change       -0.7742036E-05 Eh
 * total energy  :  -135.7187007 Eh     change       -0.2468539E-05 Eh
 * total energy  :  -135.7187016 Eh     change       -0.9454688E-06 Eh
 * total energy  :  -135.7187024 Eh     change       -0.8072530E-06 Eh
 * total energy  :  -135.7187035 Eh     change       -0.1060082E-05 Eh
 * total energy  :  -135.7187048 Eh     change       -0.1359563E-05 Eh
 * total energy  :  -135.7187063 Eh     change       -0.1455683E-05 Eh
 * total energy  :  -135.7187075 Eh     change       -0.1179681E-05 Eh
 * total energy  :  -135.7187083 Eh     change       -0.8749228E-06 Eh
 * total energy  :  -135.7187091 Eh     change       -0.7303862E-06 Eh
 * total energy  :  -135.7187099 Eh     change       -0.7987040E-06 Eh
 * total energy  :  -135.7187103 Eh     change       -0.4692872E-06 Eh
 * total energy  :  -135.7187107 Eh     change       -0.3451713E-06 Eh
 * total energy  :  -135.7187109 Eh     change       -0.2636476E-06 Eh
 * total energy  :  -135.7187111 Eh     change       -0.1991110E-06 Eh
 * total energy  :  -135.7187112 Eh     change       -0.3468378E-07 Eh
   *** GEOMETRY OPTIMIZATION CONVERGED AFTER 17 ITERATIONS ***

 final structure:
================
75
 xtb: 6.7.1 (edcfbbe)
C           -3.67213021939135        5.90495862244800        0.76901017431030
C           -4.23192523934091        5.02986237748283       -0.36262534154406
C           -5.75160383300609        4.94543373489884       -0.19752260829029
C           -3.92930089167370        5.68023396129620       -1.72114068892586
C           -3.55600116824399        3.67531223909831       -0.30574838434904
C           -2.16514497338535        3.58861080709117       -0.43049815946492
C           -1.51921446042977        2.38257723625588       -0.35654770619196
C           -2.23276673342254        1.19221825554927       -0.13336884622737
C           -3.63597196109153        1.24624982039710       -0.08077780323303
C           -4.25580889198615        2.48396812400429       -0.15752438473032
C           -4.47913786683504       -0.00426148881429        0.01256970294046
C           -5.36889241635446       -0.08166841781444       -1.24399926346976
C           -5.35070810766683        0.07196996762250        1.28193462869949
C           -3.63294760175335       -1.25359314715607        0.09427318576840
C           -4.25017691578803       -2.49236551531319        0.17523098096754
C           -3.54718047011672       -3.68300040460461        0.31362807850765
C           -4.22038363436144       -5.03879617454866        0.37314935137211
C           -5.74244810408069       -4.95570151471554        0.23097267730688
C           -3.89710594363012       -5.69698305513275        1.72308742499990
C           -3.67581283249504       -5.90613945161819       -0.77184083451716
C           -2.15526612753589       -3.59449693609179        0.42414823590566
C           -1.51193386321812       -2.38724004090294        0.34713116081098
C           -2.22937070362179       -1.19746680637084        0.13365708293912
N           -1.56000077725192       -0.00183431274990       -0.00154154749151
C           -0.15636829903503        0.00057944979875       -0.00346820312014
C            0.59018213268915       -0.67006596897357       -1.01107610797836
F           -0.10349373482457       -1.24261574068123       -2.01784245785018
C            1.95271742922989       -0.66042685290937       -1.01869068047764
F            2.59841029503446       -1.19854727345956       -2.06561739497944
C            2.71893274536755        0.00463073704219       -0.00469006136378
C            4.14609628496930        0.00521978148307       -0.00456737769369
C            4.90255864315593        1.16564766146286        0.30828183738464
F            4.25763637411857        2.32657333530689        0.50842020875705
C            6.27957991701930        1.16971772323081        0.30841883712475
F            6.95054197290723        2.29862621774386        0.57824058713406
C            6.99033341821974        0.00575809336955       -0.00358757724599
F            8.33153513516396        0.00595763785448       -0.00298716168744
C            6.28023902502801       -1.15845053195585       -0.31620926681261
F            6.95182319737892       -2.28711735060755       -0.58549605155435
C            4.90323222305452       -1.15486742198208       -0.31708216382944
F            4.25883895531150       -2.31601837404939       -0.51774608133208
C            1.95184817780847        0.66850932339892        1.00933539412012
F            2.59680172837110        1.20925135715630        2.05533872109649
C            0.58929870322041        0.67437337567258        1.00280916351161
F           -0.10511516982992        1.24577224561067        2.00971782969644
H           -4.15068268559782        6.88120173009509        0.75289644072918
H           -2.60069329236275        6.05019532062179        0.66860782223341
H           -3.86451251841499        5.44164563652102        1.73424465637500
H           -6.20496414921596        4.37262607525455       -1.00350740146254
H           -6.01878013166956        4.49947935422229        0.75786522167353
H           -6.17217566318600        5.94793424136927       -0.22610291781517
H           -4.29356602595596        5.05144431097030       -2.53089376389236
H           -4.42327796483441        6.64668709367588       -1.78588063988519
H           -2.86342314598617        5.83411550332962       -1.86087860735651
H           -1.57615591617605        4.47639855141911       -0.59413780323790
H           -0.44903917828423        2.34949403653362       -0.48128357650079
H           -5.33018289786088        2.51496558833481       -0.10248928797189
H           -4.74729390453187       -0.15564684883968       -2.13385436648527
H           -6.01831101268120       -0.95090244598643       -1.20443792616401
H           -5.99167565615773        0.80346190918663       -1.33181572543261
H           -6.00176030028112        0.94037802591461        1.25158922248027
H           -5.97075180229430       -0.81416461257390        1.37880228683816
H           -4.71639364645135        0.14700266470149        2.16268617564326
H           -5.32503284606498       -2.52478381324793        0.13172024714904
H           -6.18430075395379       -4.38610364307776        1.04558836815703
H           -6.16133825475582       -5.95882021137335        0.26242899707004
H           -6.02450965030462       -4.50694042139425       -0.71880282501709
H           -4.39007147046468       -6.66382999896194        1.78968087203146
H           -2.82928862596985       -5.85180635565537        1.84583322949606
H           -4.24905781218885       -5.07295984742709        2.54191847397595
H           -3.88490689235376       -5.43836949716470       -1.73144871175844
H           -4.15091571528947       -6.88402409671334       -0.75336500520850
H           -2.60241705393723       -6.04815615957693       -0.68907426772863
H           -1.56324129514099       -4.48180938045799        0.57919029608121
H           -0.44066839331116       -2.35310908962174        0.46151712558937

 projected vibrational frequencies (cm⁻¹)
eigval :       -0.00    -0.00    -0.00     0.00     0.00     0.00
eigval :       11.09    14.91    18.31    24.21    29.72    34.57
eigval :       38.56    45.80    52.66    65.72    83.02    86.60
eigval :      100.17   114.92   115.19   122.15   123.21   127.91
eigval :      138.34   146.63   149.99   161.63   168.49   171.75
eigval :      172.08   190.19   202.87   203.40   214.09   218.71
eigval :      220.45   220.61   227.21   239.11   246.31   248.31
eigval :      248.37   261.51   266.14   282.37   291.43   308.13
eigval :      312.97   314.26   316.53   324.46   325.63   333.78
eigval :      341.59   342.21   351.72   357.98   366.57   373.76
eigval :      380.04   390.21   395.20   395.93   397.43   405.03
eigval :      408.40   432.17   433.65   445.30   450.56   458.13
eigval :      478.91   485.08   488.25   494.04   516.24   524.23
eigval :      532.78   545.74   552.68   557.16   567.47   568.42
eigval :      583.27   587.98   594.75   612.99   633.92   669.58
eigval :      679.16   685.70   695.50   698.21   708.37   741.53
eigval :      756.98   821.34   826.36   830.50   848.99   882.80
eigval :      884.25   896.87   904.38   921.98   922.46   931.07
eigval :      940.32   944.31   950.57   959.04   960.25   960.31
eigval :      963.11   963.14   964.62   964.80   964.88  1011.88
eigval :     1025.61  1031.95  1031.99  1032.68  1034.79  1034.90
eigval :     1077.35  1079.56  1092.83  1132.56  1140.21  1143.14
eigval :     1153.69  1170.87  1173.41  1198.70  1220.98  1221.22
eigval :     1221.30  1225.76  1229.18  1236.35  1245.07  1254.58
eigval :     1264.48  1272.60  1283.03  1294.44  1301.09  1304.06
eigval :     1304.67  1322.12  1334.43  1343.75  1349.25  1369.92
eigval :     1400.83  1403.15  1403.77  1405.97  1405.98  1413.37
eigval :     1414.39  1415.15  1420.88  1428.88  1428.91  1429.00
eigval :     1445.16  1449.62  1470.38  1483.49  1483.70  1488.00
eigval :     1488.04  1489.87  1489.90  1492.13  1494.47  1496.90
eigval :     1497.57  1498.08  1500.69  1501.75  1513.81  1514.62
eigval :     1514.88  1516.80  1519.42  1529.23  1531.44  1533.11
eigval :     1569.98  1584.53  1624.83  3027.01  3027.07  3029.40
eigval :     3029.44  3032.72  3032.76  3035.23  3035.33  3036.08
eigval :     3037.21  3038.50  3038.56  3039.88  3039.93  3045.53
eigval :     3045.87  3049.73  3052.23  3054.70  3054.73  3057.83
eigval :     3058.35  3058.48  3061.88  3104.98  3105.13  3115.93
eigval :     3116.14  3130.44  3130.75

   temp. (K)  partition function   enthalpy   heat capacity  entropy
                                   cal/mol     cal/K/mol   cal/K/mol   J/K/mol
 298.15  VIB  0.316E+20            26112.958    155.003    161.566
         ROT  0.406E+08              888.752      2.981     37.795
         INT  0.128E+28            27001.711    157.984    199.361
         TR   0.155E+29             1481.254      4.968     45.210
         TOT                       28482.9645   162.9522   244.5711  1023.2856

       T/K    H(0)-H(T)+PV         H(T)/Eh          T*S/Eh         G(T)/Eh
   ------------------------------------------------------------------------
    298.15    0.453905E-01    0.601729E+00    0.116204E+00    0.485526E+00
   ------------------------------------------------------------------------

         :::::::::::::::::::::::::::::::::::::::::::::::::::::
         ::                  THERMODYNAMIC                  ::
         :::::::::::::::::::::::::::::::::::::::::::::::::::::
         :: total free energy        -135.233185496579 Eh   ::
         ::.................................................::
         :: total energy             -135.718711223258 Eh   ::
         :: zero point energy           0.556338864965 Eh   ::
         :: G(RRHO) w/o ZPVE           -0.070813138286 Eh   ::
         :: G(RRHO) contrib.            0.485525726679 Eh   ::
         :::::::::::::::::::::::::::::::::::::::::::::::::::::

           -------------------------------------------------
          | TOTAL ENERGY             -135.718711223258 Eh   |
          | TOTAL ENTHALPY           -135.116981865180 Eh   |
          | TOTAL FREE ENERGY        -135.233185496579 Eh   |
          | GRADIENT NORM               0.000042658571 Eh/α |
           -------------------------------------------------

 * finished run on 2025/09/04 at 06:35:40.010
