   * xtb version 6.7.1 (edcfbbe) compiled by 'albert@albert-system' on 2024-07-22

   ID    Z sym.   atoms
    1    6 C      1-23, 25, 26, 28, 30-32, 34, 36, 38, 40, 42, 44
    2    7 N      24
    3    9 F      27, 29, 33, 35, 37, 39, 41, 43, 45
    4    1 H      46-75

          program call               : xtb data2507/gas/PFBP-2a/PFBP-2a_gas_S0_crest.xyz --gfn 2 --ohess vtight --parallel 40 --molden --ceasefiles --namespace data2507/gas/PFBP-2a/PFBP-2a_gas_S0_finalOpt
          :  Hamiltonian                  GFN2-xTB          :
 * total energy  :  -135.7931170 Eh     change       -0.1260872E-08 Eh
 * total energy  :  -135.7931180 Eh     change       -0.9884836E-06 Eh
 * total energy  :  -135.7931192 Eh     change       -0.1202809E-05 Eh
 * total energy  :  -135.7931211 Eh     change       -0.1877370E-05 Eh
 * total energy  :  -135.7931217 Eh     change       -0.6112905E-06 Eh
 * total energy  :  -135.7931224 Eh     change       -0.7573098E-06 Eh
 * total energy  :  -135.7931234 Eh     change       -0.9586754E-06 Eh
 * total energy  :  -135.7931240 Eh     change       -0.6388656E-06 Eh
 * total energy  :  -135.7931244 Eh     change       -0.3868258E-06 Eh
 * total energy  :  -135.7931248 Eh     change       -0.4147863E-06 Eh
 * total energy  :  -135.7931263 Eh     change       -0.2883068E-06 Eh
 * total energy  :  -135.7931265 Eh     change       -0.2419934E-06 Eh
 * total energy  :  -135.7931268 Eh     change       -0.2256738E-06 Eh
 * total energy  :  -135.7931270 Eh     change       -0.2437976E-06 Eh
 * total energy  :  -135.7931273 Eh     change       -0.2543048E-06 Eh
 * total energy  :  -135.7931275 Eh     change       -0.2223946E-06 Eh
 * total energy  :  -135.7931276 Eh     change       -0.1390824E-06 Eh
 * total energy  :  -135.7931277 Eh     change       -0.1110598E-06 Eh
 * total energy  :  -135.7931277 Eh     change       -0.1997336E-08 Eh
   *** GEOMETRY OPTIMIZATION CONVERGED AFTER 22 ITERATIONS ***

 final structure:
================
75
 xtb: 6.7.1 (edcfbbe)
C           -5.09966952638751        5.13019085625987        1.09387689620889
C           -4.30552819163964        5.00089117121527       -0.21358816591533
C           -5.26754376557268        5.00050404821773       -1.41006263624308
C           -3.38855537975054        6.22038921773886       -0.33732549135386
C           -3.53133204744947        3.69357132408219       -0.19403995189783
C           -2.15033749074755        3.62188047132213       -0.30823005407227
C           -1.49878451304562        2.40679999942874       -0.26000147163565
C           -2.19595193775936        1.21430309081849       -0.07730580933440
C           -3.58949640707679        1.25355604621030       -0.03067072702121
C           -4.21544886980119        2.49032257473532       -0.07849639473376
C           -4.43905570276281       -0.00000062213065        0.02268047192574
C           -5.33729514760973       -0.03077231653769       -1.22730960057105
C           -5.29401372287089        0.03379336681134        1.30256943864695
C           -3.59207133491655       -1.25638795628083        0.04749285861104
C           -4.22150070518005       -2.49091189833316        0.10627694802810
C           -3.53966042963711       -3.69753149434897        0.19719962200075
C           -4.31867491400163       -5.00167877155468        0.23183287092500
C           -5.24221237275341       -5.00520236353213        1.45825726251670
C           -3.40367867411530       -6.22588237903313        0.31798892474068
C           -5.15457058815107       -5.11886461402260       -1.05050532869769
C           -2.15589899275978       -3.63180321291963        0.27484581212346
C           -1.50087235351636       -2.41892760306994        0.21709095415964
C           -2.19744388344661       -1.22256382031183        0.05958203770826
N           -1.50916995805719       -0.00475970988195       -0.01340057704804
C           -0.11847832821104       -0.00336799885669       -0.01330598698427
C            0.61789654474165       -0.64025001310684       -1.02362807085837
F           -0.03534592985134       -1.23160205155217       -2.03011994418218
C            2.00277343702974       -0.64862696486414       -1.01344880643121
F            2.66697283186782       -1.23892009899152       -2.01245291164085
C            2.72258699206055        0.00162342083588       -0.01021810743258
C            4.19650020628767        0.00379894352571       -0.00763512908056
C            4.91152407660119        1.20067916886195       -0.01102620550470
F            4.25082764733573        2.35765503118293       -0.05094112199011
C            6.30186442704531        1.21208541569895       -0.00684996463443
F            6.96524903809241        2.36712221122206       -0.01760414450918
C            7.00152792649651        0.00802089518285       -0.00001396654746
F            8.33216825915991        0.01004206568054        0.00388590558460
C            6.30545818469726       -1.19814180407167        0.00277967556441
F            6.97220968866156       -2.35119907497148        0.01727726543931
C            4.91508564697656       -1.19091067098679       -0.00062699148794
F            4.25764795789784       -2.34986470907640        0.03567485329077
C            1.99833308941327        0.65004269818290        0.99116938742146
F            2.65833292869182        1.24276267313153        1.99152332112299
C            0.61369306762840        0.63704233054145        0.99805369760382
F           -0.04410128095464        1.22831032945730        2.00157068643960
H           -4.42472865969327        5.10489265068402        1.94665026279233
H           -5.81811754756807        4.32275044812294        1.20478703286534
H           -5.64282593164614        6.07260451466130        1.11057129271631
H           -4.71373849060038        4.87321852865089       -2.33784600018060
H           -5.99547621757242        4.19737810773637       -1.33534013397267
H           -5.80715486976941        5.94393064452681       -1.45651408513455
H           -2.83012195213097        6.19728769004118       -1.27018140934187
H           -3.98860035686265        7.12800776507490       -0.32841256256054
H           -2.69122601375377        6.27023003313353        0.49552137255726
H           -1.55421542008916        4.50862278665295       -0.44236216262926
H           -0.42603251790924        2.39899379807514       -0.38132586621886
H           -5.29208738260347        2.51429128528017       -0.02619985059566
H           -4.72090592106660       -0.05660958530127       -2.12368618738435
H           -5.97600444865332       -0.90935606383099       -1.22558894030859
H           -5.97284698612199        0.84882091149762       -1.27366424473034
H           -5.92919390664870        0.91478155574875        1.32213937545544
H           -5.93036052722857       -0.84386603071147        1.37063846137129
H           -4.64740038831573        0.05774602330610        2.17745675592960
H           -5.29926289903078       -2.51026436244816        0.08407468833351
H           -4.65850202501406       -4.88817586276541        2.36890364494473
H           -5.78562543732948       -5.94589358096282        1.51474573721727
H           -5.96729544983149       -4.19730567026196        1.41269033063389
H           -4.00767872311258       -7.13091516945642        0.32071233664589
H           -2.73257135921081       -6.27203504205651       -0.53634936134449
H           -2.81663837570300       -6.21242568309341        1.23328782199780
H           -5.87345746945246       -4.30841504723851       -1.13280008410706
H           -5.70132465140044       -6.05932876043546       -1.05646134805714
H           -4.50712223047373       -5.08975041402536       -1.92421734177685
H           -1.55994416031926       -4.52162634014758        0.38767797320465
H           -0.42549069744710       -2.41698780946391        0.31120781572313

          :  Hamiltonian                  GFN2-xTB          :
         :: gradient norm              0.000024090408 Eh/a0 ::
         :: HOMO-LUMO gap              1.238544607501 eV    ::
         :: SCC energy              -137.453512649709 Eh    ::
         :: -> dispersion             -0.096478580619 Eh    ::
         :: repulsion energy           1.660384924705 Eh    ::

    * Orbital Energies and Occupations

         #    Occupation            Energy/Eh            Energy/eV
      -------------------------------------------------------------
         1        2.0000           -0.8748126             -23.8049
       ...           ...                  ...                  ...
       107        2.0000           -0.4478993             -12.1880
       108        2.0000           -0.4413899             -12.0108
       109        2.0000           -0.4404709             -11.9858
       110        2.0000           -0.4366080             -11.8807
       111        2.0000           -0.4331675             -11.7871
       112        2.0000           -0.4291608             -11.6781
       113        2.0000           -0.4207318             -11.4487
       114        2.0000           -0.4143996             -11.2764
       115        2.0000           -0.4133250             -11.2471
       116        2.0000           -0.4064662             -11.0605
       117        2.0000           -0.4043483             -11.0029
       118        2.0000           -0.4004631             -10.8972
       119        2.0000           -0.3630095              -9.8780 (HOMO)
       120                         -0.3174938              -8.6394 (LUMO)
       121                         -0.2997536              -8.1567
       122                         -0.2856409              -7.7727
       123                         -0.2847081              -7.7473
       124                         -0.2331036              -6.3431
       125                         -0.2280005              -6.2042
       126                         -0.2270416              -6.1781
       127                         -0.2036383              -5.5413
       128                         -0.1795020              -4.8845
       129                         -0.1600386              -4.3549
       130                         -0.1030051              -2.8029
       ...                                ...                  ...
       210                          0.6604425              17.9716
      -------------------------------------------------------------
                  HL-Gap            0.0455157 Eh            1.2385 eV

     #   Z          covCN         q      C6AA      α(0)
     1   6 C        3.762    -0.106    22.573     6.773
     2   6 C        3.903     0.026    20.077     6.369
     3   6 C        3.761    -0.106    22.566     6.772
     4   6 C        3.761    -0.109    22.631     6.782
     5   6 C        2.972     0.003    27.956     8.673
     6   6 C        2.927    -0.039    28.978     8.828
     7   6 C        2.923    -0.053    29.316     8.879
     8   6 C        2.928     0.055    26.777     8.486
     9   6 C        2.980    -0.008    28.211     8.713
    10   6 C        2.938    -0.041    29.017     8.835
    11   6 C        3.910     0.022    20.143     6.379
    12   6 C        3.761    -0.104    22.533     6.767
    13   6 C        3.761    -0.104    22.532     6.767
    14   6 C        2.980    -0.008    28.214     8.713
    15   6 C        2.938    -0.041    29.018     8.835
    16   6 C        2.972     0.003    27.958     8.673
    17   6 C        3.903     0.026    20.078     6.369
    18   6 C        3.761    -0.106    22.565     6.772
    19   6 C        3.761    -0.109    22.631     6.782
    20   6 C        3.762    -0.106    22.573     6.773
    21   6 C        2.927    -0.039    28.979     8.828
    22   6 C        2.923    -0.053    29.319     8.879
    23   6 C        2.927     0.054    26.778     8.486
    24   7 N        2.750    -0.036    21.946     6.958
    25   6 C        2.923     0.046    26.977     8.518
    26   6 C        2.780     0.138    24.982     8.187
    27   9 F        0.787    -0.170    10.930     3.905
    28   6 C        2.780     0.151    24.718     8.143
    29   9 F        0.787    -0.173    10.962     3.911
    30   6 C        2.975    -0.015    28.376     8.738
    31   6 C        2.973    -0.004    28.120     8.698
    32   6 C        2.784     0.154    24.646     8.132
    33   9 F        0.787    -0.159    10.816     3.885
    34   6 C        2.774     0.140    24.941     8.179
    35   9 F        0.787    -0.150    10.736     3.870
    36   6 C        2.778     0.143    24.879     8.170
    37   9 F        0.787    -0.147    10.705     3.865
    38   6 C        2.774     0.140    24.941     8.179
    39   9 F        0.787    -0.150    10.736     3.870
    40   6 C        2.784     0.154    24.646     8.132
    41   9 F        0.787    -0.159    10.816     3.885
    42   6 C        2.780     0.151    24.718     8.143
    43   9 F        0.787    -0.173    10.962     3.911
    44   6 C        2.780     0.138    24.982     8.187
    45   9 F        0.787    -0.170    10.931     3.905
    46   1 H        0.925     0.036     2.500     2.473
    47   1 H        0.925     0.035     2.513     2.479
    48   1 H        0.925     0.038     2.470     2.458
    49   1 H        0.925     0.034     2.523     2.484
    50   1 H        0.925     0.035     2.518     2.481
    51   1 H        0.925     0.039     2.467     2.456
    52   1 H        0.925     0.036     2.498     2.472
    53   1 H        0.925     0.038     2.481     2.463
    54   1 H        0.925     0.038     2.476     2.461
    55   1 H        0.926     0.043     2.414     2.429
    56   1 H        0.926     0.020     2.732     2.585
    57   1 H        0.926     0.038     2.471     2.458
    58   1 H        0.925     0.036     2.506     2.475
    59   1 H        0.925     0.041     2.435     2.440
    60   1 H        0.925     0.041     2.439     2.442
    61   1 H        0.925     0.041     2.434     2.440
    62   1 H        0.925     0.041     2.439     2.442
    63   1 H        0.925     0.036     2.505     2.475
    64   1 H        0.926     0.038     2.471     2.458
    65   1 H        0.925     0.034     2.524     2.484
    66   1 H        0.925     0.039     2.467     2.456
    67   1 H        0.925     0.035     2.518     2.481
    68   1 H        0.925     0.038     2.481     2.463
    69   1 H        0.925     0.038     2.476     2.461
    70   1 H        0.925     0.036     2.498     2.472
    71   1 H        0.925     0.035     2.513     2.479
    72   1 H        0.925     0.038     2.471     2.458
    73   1 H        0.925     0.036     2.501     2.473
    74   1 H        0.926     0.043     2.414     2.430
    75   1 H        0.926     0.020     2.726     2.582

molecular dipole:
                 x           y           z       tot (Debye)
 q only:       -2.431       0.000       0.009
   full:       -2.225      -0.000       0.009       5.654

 projected vibrational frequencies (cm⁻¹)
eigval :       -0.00    -0.00    -0.00    -0.00     0.00     0.00
eigval :       13.67    14.52    18.48    25.79    29.06    34.66
eigval :       40.24    42.09    53.32    65.66    82.37    85.67
eigval :      103.28   109.21   118.47   119.33   126.66   128.97
eigval :      129.78   135.17   153.65   163.77   168.68   171.82
eigval :      173.77   182.91   200.82   204.29   211.02   217.89
eigval :      221.36   228.96   235.51   241.16   247.44   252.67
eigval :      260.32   264.46   274.55   277.94   289.60   295.79
eigval :      307.37   311.72   312.19   327.98   328.14   344.20
eigval :      345.07   354.90   355.38   362.91   369.89   394.17
eigval :      400.55   402.33   408.46   411.00   414.29   421.13
eigval :      426.63   439.25   444.77   457.06   458.83   461.89
eigval :      479.53   482.74   498.21   498.64   528.69   564.99
eigval :      572.12   578.44   580.10   584.62   585.21   587.59
eigval :      609.44   611.44   630.89   634.04   646.56   671.07
eigval :      689.53   694.43   696.01   697.12   715.61   745.48
eigval :      758.18   821.97   823.88   824.99   850.61   893.53
eigval :      895.30   901.08   906.69   914.70   915.20   937.15
eigval :      950.87   956.93   957.82   958.39   960.51   960.53
eigval :      962.99   963.04   963.31   963.68   975.86  1014.64
eigval :     1035.09  1035.10  1035.98  1036.09  1045.85  1088.80
eigval :     1096.98  1102.52  1119.91  1144.68  1156.82  1160.60
eigval :     1165.89  1183.23  1193.54  1213.57  1228.12  1228.15
eigval :     1233.20  1236.35  1236.73  1245.71  1261.32  1267.71
eigval :     1267.81  1282.58  1291.56  1294.22  1305.69  1310.18
eigval :     1324.89  1331.57  1341.33  1379.43  1401.36  1403.15
eigval :     1403.49  1405.95  1406.19  1413.92  1418.56  1422.01
eigval :     1429.63  1429.67  1450.03  1456.68  1465.89  1467.65
eigval :     1482.46  1484.29  1487.80  1488.43  1491.80  1492.02
eigval :     1494.42  1495.17  1496.20  1498.54  1501.04  1503.16
eigval :     1504.11  1505.72  1507.35  1514.12  1514.14  1519.32
eigval :     1519.41  1523.04  1555.28  1556.71  1567.19  1569.98
eigval :     1584.15  1598.83  1604.80  3024.46  3024.48  3026.27
eigval :     3026.29  3029.12  3029.14  3031.38  3032.74  3032.77
eigval :     3033.43  3033.58  3033.79  3037.94  3038.00  3040.50
eigval :     3040.64  3041.86  3044.82  3045.83  3045.93  3049.30
eigval :     3049.33  3051.76  3055.65  3084.63  3086.00  3099.78
eigval :     3100.18  3123.13  3123.24

   temp. (K)  partition function   enthalpy   heat capacity  entropy
                                   cal/mol     cal/K/mol   cal/K/mol   J/K/mol
 298.15  VIB  0.198E+20            25806.619    153.128    159.791
         ROT  0.811E+08              888.752      2.981     39.171
         INT  0.160E+28            26695.371    156.108    198.962
         TR   0.155E+29             1481.254      4.968     45.210
         TOT                       28176.6254   161.0766   244.1726  1021.6182

       T/K    H(0)-H(T)+PV         H(T)/Eh          T*S/Eh         G(T)/Eh
   ------------------------------------------------------------------------
    298.15    0.449023E-01    0.604694E+00    0.116014E+00    0.488680E+00
   ------------------------------------------------------------------------

         :::::::::::::::::::::::::::::::::::::::::::::::::::::
         ::                  THERMODYNAMIC                  ::
         :::::::::::::::::::::::::::::::::::::::::::::::::::::
         :: total free energy        -135.304448093670 Eh   ::
         ::.................................................::
         :: total energy             -135.793127725003 Eh   ::
         :: zero point energy           0.559791602041 Eh   ::
         :: G(RRHO) w/o ZPVE           -0.071111970708 Eh   ::
         :: G(RRHO) contrib.            0.488679631333 Eh   ::
         :::::::::::::::::::::::::::::::::::::::::::::::::::::

           -------------------------------------------------
          | TOTAL ENERGY             -135.793127725003 Eh   |
          | TOTAL ENTHALPY           -135.188433812228 Eh   |
          | TOTAL FREE ENERGY        -135.304448093670 Eh   |
          | GRADIENT NORM               0.000024095758 Eh/α |
          | HOMO-LUMO GAP               1.238545129676 eV   |
           -------------------------------------------------

 * finished run on 2025/09/04 at 06:30:27.068
