   * xtb version 6.7.1 (edcfbbe) compiled by 'albert@albert-system' on 2024-07-22

   ID    Z sym.   atoms
    1    8 O      1
    2    6 C      2-6, 8-22, 24-37, 39-51, 53-67, 69-82, 84-92
    3    7 N      7, 23, 38, 52, 68, 83
    4    1 H      93-144

          program call               : xtb data2507/gas/TATP-BP/TATP-BP_gas_S0_finalOpt.xtbopt.xyz --gfn 2 --spinpol --tblite --uhf 2 --ohess vtight --parallel 40 --molden --ceasefiles --namespace data2507/gas/TATP-BP/TATP-BP_gas_T1_preOpt
 * total energy  :  -230.2807662 Eh     change       -0.3040876E-07 Eh
 * total energy  :  -230.2841899 Eh     change       -0.3423695E-02 Eh
 * total energy  :  -230.2853811 Eh     change       -0.1191193E-02 Eh
 * total energy  :  -230.2855874 Eh     change       -0.2062774E-03 Eh
 * total energy  :  -230.2858071 Eh     change       -0.2197331E-03 Eh
 * total energy  :  -230.2859377 Eh     change       -0.1305600E-03 Eh
 * total energy  :  -230.2860478 Eh     change       -0.1101317E-03 Eh
 * total energy  :  -230.2861067 Eh     change       -0.5884230E-04 Eh
 * total energy  :  -230.2861350 Eh     change       -0.2833218E-04 Eh
 * total energy  :  -230.2861554 Eh     change       -0.2039464E-04 Eh
 * total energy  :  -230.2864431 Eh     change       -0.2987706E-06 Eh
 * total energy  :  -230.2864434 Eh     change       -0.2997669E-06 Eh
 * total energy  :  -230.2864437 Eh     change       -0.3649103E-06 Eh
 * total energy  :  -230.2864440 Eh     change       -0.2544865E-06 Eh
 * total energy  :  -230.2864445 Eh     change       -0.5201834E-06 Eh
 * total energy  :  -230.2864451 Eh     change       -0.5816732E-06 Eh
 * total energy  :  -230.2864455 Eh     change       -0.4019396E-06 Eh
 * total energy  :  -230.2864460 Eh     change       -0.5307632E-06 Eh
 * total energy  :  -230.2864460 Eh     change       -0.7181626E-08 Eh
   *** GEOMETRY OPTIMIZATION CONVERGED AFTER 94 ITERATIONS ***

 final structure:
================
144
 xtb: 6.7.1 (edcfbbe)
O            0.24823329422124        3.83087253367094       -4.30855731602904
C            0.09118566605181        3.51342022788002       -3.09423422739764
C            1.27246286186265        3.32305254150797       -2.25188098844296
C            1.31128620425735        3.71477049894180       -0.90426392802446
C            2.40845721893965        3.42577569738473       -0.12435594635972
C            3.49166360992970        2.73650104799834       -0.67153136275691
N            4.58436431577944        2.35845266302266        0.12798395412948
C            5.41763543616509        3.25163715968749        0.76382234009926
C            5.25076224531317        4.61696865670295        0.93951957663414
C            6.19892841473070        5.29090527685141        1.68384719177991
C            7.27009091002702        4.61173911363694        2.25784195434398
C            7.45808901506362        3.25835887342019        2.05419610503373
C            6.55440991819827        2.56526436104487        1.25447622765231
C            6.41439031996729        1.20202704095832        0.81811157804259
C            7.24335901333028        0.07399360924210        0.79651218575976
C            6.75708124000282       -1.18855498182556        0.36560993143846
C            7.87901387930055       -2.08633172113373        0.38027584850427
C            8.10385690699790       -3.39001867302219       -0.05670160635336
C            9.36550654861450       -3.93480522273078        0.07326106754134
C           10.42215740210020       -3.19899945961908        0.60046342222562
C           10.24489578257628       -1.88415171782027        0.98651398362503
C            8.97595603088762       -1.34026507073611        0.87280844828978
N            8.57301886202523       -0.04195769514986        1.12328043583429
C            9.49532133016100        1.00550304878059        1.29951364516817
C            9.59541140038913        2.01112957542712        0.34346126805940
C           10.52092229192138        3.02454398320447        0.50690245084971
C           11.35553770412138        3.03505327501114        1.61231150880489
C           11.26337266198900        2.02789284906708        2.55860524791136
C           10.33626932197013        1.01231266194359        2.40693177111372
C            5.39829959481553       -1.29450541032223        0.03033629426479
C            4.57958776464889       -0.14753104528793       -0.11640558615003
C            3.27136396246253       -0.62507896710361       -0.47928116770460
C            2.01955638398626       -0.04090607475732       -0.67058429873757
C            0.93419440575243       -0.84084197349521       -0.96004859107594
C            1.05448714047287       -2.22649112613293       -1.03041643122432
C            2.26965000587683       -2.84084268011093       -0.80868205184796
C            3.36882820153062       -2.03621482065860       -0.54549739118297
N            4.65777943338192       -2.42260287431091       -0.24025552830378
C            4.99328532770352       -3.74563767963895        0.09077238936385
C            5.45829792412146       -4.04428604614103        1.36806315436189
C            5.76786729936320       -5.34970667559641        1.69935823112166
C            5.60454816292192       -6.36326350660254        0.76925083092993
C            5.13276751185429       -6.06802840646988       -0.49907515989089
C            4.82737791030390       -4.76344574730776       -0.84323228701966
C            5.13686449343341        1.10575372562921        0.20422867490068
C            3.50395267513350        2.43425037538616       -2.03500459247603
C            2.41846471816560        2.74411348177932       -2.81775475817992
C           -1.21622735346347        3.25235077592008       -2.54968313147947
C           -1.43879778646658        2.55904300843222       -1.34122097397362
C           -2.70823317291911        2.22258652195525       -0.94760702063110
C           -3.81229249429127        2.55028653070054       -1.74330715660039
N           -5.09635239478778        2.16623789949907       -1.32990140994364
C           -6.13814747456200        3.04608189384662       -1.12376313377156
C           -6.22065343957887        4.38912713440334       -1.45877379301556
C           -7.41143951091978        5.04442868022073       -1.21093623185710
C           -8.49827032660213        4.36759416244470       -0.66554407715743
C           -8.40593030609516        3.04031146972547       -0.29174254433592
C           -7.19789547061377        2.37355794745685       -0.46776383565665
C           -6.72107172375958        1.04259658603557       -0.20282453118273
C           -7.15964922220013       -0.03573056043387        0.57247940308803
C           -6.46776519071997       -1.27787093902526        0.56756045198952
C           -7.11890300758744       -2.11312281276207        1.53756210844138
C           -6.85125518355143       -3.35742112474421        2.10526871370635
C           -7.69432368370021       -3.84598544558035        3.08287171620751
C           -8.78484833017330       -3.10921446837107        3.53436308138492
C           -9.04178998447625       -1.84700745896543        3.03342886323630
C           -8.20705649498774       -1.36100426512438        2.04091420324838
N           -8.21914716624764       -0.11407135582611        1.44406947235188
C           -8.96121312519460        0.95758821466659        1.97368541726146
C          -10.35076240843502        0.90736752473954        1.97444950656174
C          -11.07493499428952        1.94819341985771        2.52780697732391
C          -10.42050328146432        3.03698318353414        3.07971409949741
C           -9.03619079965221        3.08375146866039        3.08282098920352
C           -8.30374603059745        2.04620680568723        2.53748822298707
C           -5.37574442159063       -1.42277517552959       -0.30251549894258
C           -4.81965370116927       -0.31214474549233       -0.98244827408461
C           -3.72827437253870       -0.81926870387859       -1.76895675031642
C           -2.86994942286795       -0.28631870243423       -2.73053730882950
C           -1.94835287598457       -1.10935594298486       -3.34224517391309
C           -1.88336224993683       -2.47042743715339       -3.05146131495199
C           -2.75140269360281       -3.03938093352643       -2.14225727979146
C           -3.66089755766971       -2.20894394442744       -1.50333765327973
N           -4.65869111781898       -2.55578789858540       -0.61602202575961
C           -5.06079728623865       -3.88658787391743       -0.41527554848325
C           -6.34139478149823       -4.28708317434042       -0.78454475244708
C           -6.72792381075476       -5.60205303847483       -0.60838094686332
C           -5.84123011071669       -6.52495969187900       -0.07812733066178
C           -4.56353930563581       -6.12889841709315        0.28085113958117
C           -4.16923231893154       -4.81321747872866        0.11587177285522
C           -5.45539082724241        0.93740003851617       -0.84206832057349
C           -3.61254049561663        3.24443504992168       -2.94208653756866
C           -2.34483066960112        3.58461809824647       -3.33566809350219
H            0.47923995350041        4.25605642404152       -0.47970058679829
H            2.42284405728310        3.69566897567342        0.92183405309827
H            4.40429838112439        5.13230958859887        0.51262921952885
H            6.09565288023054        6.35394216948031        1.84155975919067
H            7.97055492645836        5.15391954888213        2.87554448071602
H            8.27965325974079        2.75576784719654        2.53599155288346
H            7.32178975911565       -3.96754767487302       -0.51798907520866
H            9.53876095495035       -4.94830850701150       -0.25650660364704
H           11.39890482513884       -3.65133902695920        0.68421978795741
H           11.07429858875203       -1.29366292890069        1.34487419452686
H            8.94428521225466        1.99281224702163       -0.51723672332415
H           10.59272989712360        3.80685553387293       -0.23336471706735
H           12.07770346091926        3.82764075647327        1.73690196313749
H           11.91151733759959        2.03529583270871        3.42244464705838
H           10.24565320914268        0.23338966529262        3.14970637023176
H            1.88201425627164        1.02016627293813       -0.58003631294902
H           -0.03237711287718       -0.38845175523988       -1.12610335746825
H            0.18078130185140       -2.82282054254674       -1.24504882967592
H            2.35885389541174       -3.91654671136614       -0.82115800626529
H            5.57804501014130       -3.24908003306006        2.08826203840443
H            6.13346860195957       -5.57755577644375        2.68926029939711
H            5.84585001227712       -7.38215685475224        1.03170641929519
H            5.00895733596575       -6.85560861841745       -1.22761665385362
H            4.48283991380446       -4.52267768661095       -1.83797875313899
H            4.36596293038938        1.94003906156145       -2.45861545313633
H            2.41253921902038        2.50912864431562       -3.87058932117068
H           -0.60356001153966        2.24629602100432       -0.73475640168261
H           -2.86755867227849        1.67944944394739       -0.02694937441253
H           -5.38321875887755        4.90435518695518       -1.90248076993215
H           -7.50675640362118        6.08933451962035       -1.46502641082281
H           -9.43338414621015        4.88997338488755       -0.52846559660552
H           -9.27177625788583        2.53548993769090        0.10233324372548
H           -5.98642530870782       -3.92893037091290        1.81652760489619
H           -7.49312058937052       -4.81391457425078        3.51712825196232
H           -9.42288782565540       -3.51627676585539        4.30432116236387
H           -9.85457060901695       -1.25087054992845        3.41945289622270
H          -10.85372889742499        0.06306565361652        1.52634550437168
H          -12.15422954034614        1.91069366123465        2.52228316478087
H          -10.98973685203484        3.84846059480940        3.50716318713834
H           -8.52383652452809        3.93002034178080        3.51472660312508
H           -7.22463398070760        2.07227924824593        2.54001475696889
H           -2.92592579990004        0.74684030472207       -3.02091740944581
H           -1.27391062830389       -0.69180357351048       -4.07413102683217
H           -1.16147952617058       -3.09006307025327       -3.56237904826376
H           -2.73816046565263       -4.10173439639601       -1.95024917256320
H           -7.02395695271542       -3.56240043732082       -1.20201293530356
H           -7.72349321655355       -5.90895530568683       -0.89130127522474
H           -6.14561052744425       -7.55186196237113        0.05618646828459
H           -3.87170824645564       -6.84542981112115        0.69841818392358
H           -3.18279100687596       -4.49221704704495        0.41640674526328
H           -4.46034753334383        3.46893590512360       -3.57308814111209
H           -2.17307011377480        4.09530526362345       -4.27090594489534

 projected vibrational frequencies (cm⁻¹)
eigval :       -0.00    -0.00    -0.00    -0.00     0.00     0.00
eigval :        4.83     7.33     9.45    14.81    17.56    23.44
eigval :       25.74    26.04    27.59    36.74    38.81    46.60
eigval :       48.20    52.25    53.48    55.95    62.14    64.85
eigval :       67.10    70.75    72.47    74.66    77.25    84.41
eigval :       87.19    90.43    99.21   109.29   111.09   112.33
eigval :      119.65   122.59   131.80   144.94   148.54   156.63
eigval :      160.09   161.72   168.33   176.32   177.24   187.21
eigval :      193.36   195.63   206.29   210.11   223.58   226.57
eigval :      227.27   229.12   231.28   237.28   241.83   247.63
eigval :      250.68   252.40   266.81   273.16   275.19   290.56
eigval :      294.15   315.40   326.69   338.85   350.28   354.19
eigval :      356.00   362.63   375.99   377.78   377.98   379.04
eigval :      379.24   382.46   385.01   388.38   388.65   390.54
eigval :      394.95   396.99   404.38   405.04   408.98   409.17
eigval :      414.17   423.13   434.60   437.48   446.98   447.69
eigval :      448.99   452.95   456.14   468.67   470.92   474.10
eigval :      478.72   483.38   530.66   534.43   535.42   540.65
eigval :      541.62   542.54   544.07   547.64   554.48   555.00
eigval :      557.20   558.04   571.64   574.82   580.70   580.92
eigval :      581.50   587.20   590.16   591.97   593.86   594.58
eigval :      598.31   604.60   605.31   607.63   612.97   621.40
eigval :      623.25   628.32   628.67   638.22   648.11   650.11
eigval :      650.57   658.68   667.89   668.60   669.46   672.64
eigval :      675.27   675.49   676.20   692.44   697.48   698.40
eigval :      698.63   701.77   702.62   703.57   723.92   730.28
eigval :      730.40   748.08   750.75   763.20   764.94   765.69
eigval :      768.03   768.20   771.50   773.14   773.54   774.89
eigval :      775.24   777.47   796.98   809.55   841.50   841.80
eigval :      843.82   843.97   844.18   857.00   858.16   859.55
eigval :      865.62   867.63   868.09   868.84   873.38   874.10
eigval :      878.34   878.69   879.33   879.75   888.79   899.05
eigval :      899.84   900.45   900.81   901.85   904.10   904.46
eigval :      905.14   906.09   907.76   908.57   908.76   910.34
eigval :      910.71   914.06   917.05   918.95   920.76   921.05
eigval :      922.43   922.81   923.91   927.90   928.85   929.20
eigval :      929.22   929.77   930.95   933.18   933.21   933.98
eigval :      934.75   936.41   943.05   986.51   986.61   990.39
eigval :      993.14   997.16  1002.92  1013.81  1016.00  1073.48
eigval :     1074.57  1077.93  1078.20  1078.86  1079.01  1079.28
eigval :     1079.43  1082.56  1083.13  1087.36  1088.27  1089.03
eigval :     1089.92  1116.22  1116.27  1116.77  1116.81  1126.56
eigval :     1127.73  1130.51  1132.65  1141.29  1141.94  1143.03
eigval :     1145.69  1159.70  1167.83  1169.48  1170.09  1175.24
eigval :     1175.87  1180.65  1180.68  1180.75  1180.77  1181.82
eigval :     1183.04  1185.86  1186.95  1190.04  1190.17  1192.00
eigval :     1199.65  1204.49  1207.18  1212.06  1212.48  1215.74
eigval :     1221.29  1222.38  1230.10  1237.71  1239.19  1242.88
eigval :     1246.93  1255.85  1261.65  1268.62  1270.01  1271.35
eigval :     1271.86  1275.68  1276.09  1283.45  1285.50  1290.13
eigval :     1292.97  1314.84  1315.18  1315.55  1315.68  1317.50
eigval :     1318.65  1321.04  1323.48  1323.80  1326.70  1329.26
eigval :     1330.88  1339.58  1340.79  1343.88  1345.67  1358.81
eigval :     1359.09  1377.41  1379.41  1380.92  1381.37  1383.81
eigval :     1385.96  1406.40  1411.50  1413.39  1415.17  1418.36
eigval :     1419.29  1424.86  1425.13  1431.93  1435.79  1435.86
eigval :     1436.00  1436.11  1438.30  1440.23  1454.54  1462.17
eigval :     1467.11  1468.13  1469.32  1470.43  1478.12  1479.58
eigval :     1480.18  1480.51  1480.91  1482.04  1483.77  1501.37
eigval :     1520.13  1522.82  1530.38  1531.54  1546.83  1576.28
eigval :     1577.02  1579.00  1580.31  1581.09  1581.53  1581.56
eigval :     1582.24  1582.57  1583.02  1583.29  1587.33  1590.78
eigval :     1592.34  1592.83  1593.09  1593.48  1596.02  1596.59
eigval :     1596.92  1597.61  3072.64  3075.56  3076.62  3078.80
eigval :     3079.45  3079.64  3079.69  3079.98  3079.99  3080.06
eigval :     3080.20  3080.30  3080.48  3082.12  3083.79  3084.04
eigval :     3084.72  3084.93  3085.95  3086.79  3086.82  3088.58
eigval :     3088.62  3090.15  3090.45  3090.59  3090.68  3090.87
eigval :     3091.45  3095.10  3095.28  3095.62  3095.66  3096.24
eigval :     3096.48  3097.80  3097.98  3098.51  3098.65  3099.13
eigval :     3100.81  3101.06  3101.52  3101.69  3101.89  3104.82
eigval :     3124.43  3125.48  3138.24  3138.48  3160.95  3176.03

   temp. (K)  partition function   enthalpy   heat capacity  entropy
                                   cal/mol     cal/K/mol   cal/K/mol   J/K/mol
 298.15  VIB  0.987E+33            42391.524    270.151    264.387
         ROT  0.531E+09              888.752      2.981     42.907
         INT  0.525E+42            43280.276    273.132    307.294
         TR   0.389E+29             1481.254      4.968     47.037
         TOT                       44761.5298   278.1002   354.3311  1482.5215

       T/K    H(0)-H(T)+PV         H(T)/Eh          T*S/Eh         G(T)/Eh
   ------------------------------------------------------------------------
    298.15    0.713320E-01    0.116348E+01    0.168354E+00    0.995125E+00
   ------------------------------------------------------------------------

         :::::::::::::::::::::::::::::::::::::::::::::::::::::
         ::                  THERMODYNAMIC                  ::
         :::::::::::::::::::::::::::::::::::::::::::::::::::::
         :: total free energy        -229.291320607562 Eh   ::
         ::.................................................::
         :: total energy             -230.286445957301 Eh   ::
         :: zero point energy           1.092147468473 Eh   ::
         :: G(RRHO) w/o ZPVE           -0.097022118734 Eh   ::
         :: G(RRHO) contrib.            0.995125349739 Eh   ::
         :::::::::::::::::::::::::::::::::::::::::::::::::::::

           -------------------------------------------------
          | TOTAL ENERGY             -230.286445957301 Eh   |
          | TOTAL ENTHALPY           -229.122966450534 Eh   |
          | TOTAL FREE ENERGY        -229.291320607562 Eh   |
          | GRADIENT NORM               0.000086527497 Eh/α |
           -------------------------------------------------

 * finished run on 2025/09/02 at 09:05:15.386
