   * xtb version 6.7.1 (edcfbbe) compiled by 'albert@albert-system' on 2024-07-22

   ID    Z sym.   atoms
    1    8 O      1
    2    6 C      2-6, 8-22, 24-37, 39-51, 53-67, 69-82, 84-92
    3    7 N      7, 23, 38, 52, 68, 83
    4    1 H      93-144

          program call               : xtb data2507/gas/TATP-BP/TATP-BP_gas_T1_crest.xyz --gfn 2 --spinpol --tblite --uhf 2 --ohess vtight --parallel 40 --molden --ceasefiles --namespace data2507/gas/TATP-BP/TATP-BP_gas_T1_finalOpt
 * total energy  :  -230.2882183 Eh     change        0.2995449E-08 Eh
 * total energy  :  -230.2882869 Eh     change       -0.6866009E-04 Eh
 * total energy  :  -230.2883136 Eh     change       -0.2673272E-04 Eh
 * total energy  :  -230.2883163 Eh     change       -0.2684084E-05 Eh
 * total energy  :  -230.2883188 Eh     change       -0.2455578E-05 Eh
 * total energy  :  -230.2883210 Eh     change       -0.2174872E-05 Eh
 * total energy  :  -230.2883237 Eh     change       -0.2783571E-05 Eh
 * total energy  :  -230.2883259 Eh     change       -0.2140682E-05 Eh
 * total energy  :  -230.2883277 Eh     change       -0.1762520E-05 Eh
 * total energy  :  -230.2883295 Eh     change       -0.1824756E-05 Eh
 * total energy  :  -230.2883546 Eh     change       -0.6587146E-06 Eh
 * total energy  :  -230.2883552 Eh     change       -0.5665983E-06 Eh
 * total energy  :  -230.2883556 Eh     change       -0.4615590E-06 Eh
 * total energy  :  -230.2883561 Eh     change       -0.4885165E-06 Eh
 * total energy  :  -230.2883563 Eh     change       -0.1562913E-06 Eh
 * total energy  :  -230.2883568 Eh     change       -0.5267136E-06 Eh
 * total energy  :  -230.2883574 Eh     change       -0.6098433E-06 Eh
 * total energy  :  -230.2883581 Eh     change       -0.7022288E-06 Eh
 * total energy  :  -230.2883581 Eh     change       -0.3285891E-08 Eh
   *** GEOMETRY OPTIMIZATION CONVERGED AFTER 44 ITERATIONS ***

 final structure:
================
144
 xtb: 6.7.1 (edcfbbe)
O            0.22502979069607        6.08052548426264       -1.65690101411429
C            0.25243329769694        5.00900728145930       -0.97983654758595
C            1.54491464536934        4.39212088002129       -0.70804502857446
C            1.82477639786247        3.64457070075654        0.44797055155055
C            3.02467652291448        2.98680752744447        0.57837097296617
C            3.99523086722646        3.08753615785739       -0.41931253438929
N            5.19384999340227        2.36071960304968       -0.29299512474016
C            6.40756560113375        2.95543606622191       -0.02497192425243
C            6.72007882645920        4.30607828995302       -0.03997192769561
C            7.99424070583021        4.67591926728358        0.34310398197829
C            8.91305166471644        3.72191752883196        0.77007723766758
C            8.59776002004680        2.37676233174363        0.80036553813109
C            7.34216237525084        1.96624014599693        0.36282773290909
C            6.64306200982667        0.70961290113262        0.28983672838786
C            6.97831382229128       -0.63222880507335        0.50812905469239
C            5.98064208216860       -1.64197961701610        0.58080367922162
C            6.67200179747353       -2.88074587505549        0.81563957410853
C            6.30150472541003       -4.22301455779406        0.86670530234305
C            7.27344442615884       -5.18479827495200        1.05493832834209
C            8.61818907817151       -4.84517228216839        1.16268964737152
C            9.02319252334368       -3.52791737715487        1.06679201989732
C            8.04785807009419       -2.55826855729407        0.89932576549084
N            8.21317133948742       -1.19893333833775        0.71576778584723
C            9.46053845400093       -0.62403138739416        0.41697072260817
C            9.66496422626864       -0.01712527862377       -0.81843915272038
C           10.89886787865047        0.52669572466049       -1.12112363769604
C           11.93524532209835        0.45836340052438       -0.20447900745650
C           11.73457771531436       -0.15336954061358        1.02181209173713
C           10.50100178064581       -0.69431097119190        1.33745359376922
C            4.64852847699754       -1.27722137569840        0.32700348742020
C            4.32812364554881        0.00742731331336       -0.17347889959558
C            2.95573241365501       -0.05000400214184       -0.59348119038145
C            2.11347142721028        0.78919552633624       -1.32093929773207
C            0.80702605384427        0.40442056674516       -1.53712722625325
C            0.31447756371967       -0.79775655784410       -1.03314981913634
C            1.14278768950845       -1.68053917512277       -0.37004624935342
C            2.47218484904739       -1.32084824334243       -0.19763680121112
N            3.50522130629099       -2.04926047488197        0.35762144469926
C            3.31336914025669       -3.21951752279959        1.10696352527551
C            3.74007361083075       -3.26759001354275        2.43154247365649
C            3.53735197286743       -4.41165585738591        3.17946612275375
C            2.89909712066508       -5.50681192474157        2.62034730313201
C            2.46922635274332       -5.45812594136276        1.30458081680359
C            2.67538021951148       -4.32102770951952        0.54421494703772
C            5.30986849991460        1.01204190677965       -0.09192174814381
C            3.78444136881177        3.94135323717824       -1.50379314130797
C            2.58208604707579        4.59167400489968       -1.63848591615128
C           -0.97210837543825        4.37728142271985       -0.55019878587416
C           -1.06361377506708        3.04765961140438       -0.09456501672765
C           -2.28086912436512        2.48651968323900        0.19879752548551
C           -3.46246654879068        3.21416073490203        0.02681704230996
N           -4.69724946198636        2.60946688179001        0.31288889578106
C           -5.58144593088337        3.08540598751297        1.25817072137287
C           -5.54042114692063        4.29062376187383        1.94289436464744
C           -6.50981780942814        4.52616038702012        2.89782258107386
C           -7.47166581229222        3.56334702617833        3.18535214597206
C           -7.49809799122457        2.34970711371060        2.52470643707026
C           -6.56334813056421        2.10005848361335        1.52496320863284
C           -6.23910465115775        0.97519381829422        0.68513944825077
C           -6.71634928096702       -0.33388155124118        0.54515435010447
C           -5.96199009479667       -1.31665101202812       -0.15325178915482
C           -6.57379045223553       -2.58154516799961        0.14062058531528
C           -6.22956749852810       -3.91338026187225       -0.08019510806586
C           -7.09456409337963       -4.90614635928876        0.33342574729280
C           -8.29771810604124       -4.59988779657234        0.96173387577123
C           -8.63234442078636       -3.29110134521360        1.25541834771170
C           -7.74596502107418       -2.29454476167972        0.88131649230600
N           -7.81750377225979       -0.93391956830959        1.11446093210323
C           -8.98142950190736       -0.28659843811494        1.55813437907603
C           -9.56553766564158        0.69790777486769        0.76564775094734
C          -10.72582167394800        1.32052407852164        1.18475787824602
C          -11.31655537640462        0.95984364623144        2.38486694473444
C          -10.73777605250946       -0.02167768593096        3.17233122930989
C           -9.57164053078298       -0.64534158208455        2.76610758811487
C           -4.91997471082759       -0.87943564101344       -0.98585285858400
C           -4.49800697605676        0.47070434144434       -0.98307728633785
C           -3.51531025317714        0.59892441632069       -2.02145462425199
C           -2.85429195844823        1.66759752738998       -2.62563476632365
C           -1.98933280079038        1.41514628501898       -3.66943715897421
C           -1.78603842647866        0.12226147907518       -4.14984498531796
C           -2.47344125660216       -0.94733628221324       -3.61418974850271
C           -3.33652826437952       -0.69903952925844       -2.55658028824084
N           -4.18480029523776       -1.58029379514268       -1.91602073989505
C           -4.46624721744210       -2.85443598472511       -2.44009820076172
C           -5.73348481258567       -3.13831319752641       -2.93888326379870
C           -5.99621853116108       -4.38335653419448       -3.47831735086644
C           -4.99938066260993       -5.34357385176991       -3.53401170831787
C           -3.73441931900860       -5.05697354643696       -3.04828805350457
C           -3.46297079705585       -3.81552732800953       -2.50164486970837
C           -5.07869279847192        1.34572386539411       -0.04531520347667
C           -3.39303356407276        4.53249338302883       -0.43405650212434
C           -2.17640834001374        5.09991682395914       -0.71261134177770
H            1.10902540734537        3.60727042332322        1.25438325385662
H            3.23025980287421        2.39031121427187        1.45574463134611
H            5.98297932109678        5.04142434445868       -0.32346608442060
H            8.27190702240718        5.71911246595454        0.33658969707762
H            9.89078101687139        4.03997680410547        1.10046131536871
H            9.31577738072825        1.67355772377555        1.18561547925806
H            5.27755665034992       -4.52612511039835        0.73959429190747
H            6.98407059106164       -6.22400182097998        1.10335490425715
H            9.35649779881147       -5.62089674217053        1.29979495301985
H           10.06961467614138       -3.26605294734238        1.10008449416225
H            8.85292211909799        0.02824786680331       -1.52818334939377
H           11.05315220615800        1.00184201086494       -2.07805336389951
H           12.89828284095349        0.88276437052502       -0.44450556159803
H           12.53951672746985       -0.20372394754337        1.74004153600622
H           10.33088654198456       -1.15161772486659        2.30094914012046
H            2.47209662822623        1.71559976686154       -1.73442272565505
H            0.14836508924253        1.04356588264290       -2.10467432584113
H           -0.72452740809991       -1.04676229826015       -1.18885615928663
H            0.76752929846839       -2.62249940425095        0.00033714232223
H            4.23478897576588       -2.40904650828796        2.86011932353106
H            3.87459682217381       -4.44700316406220        4.20437052822884
H            2.74008128068936       -6.39835633155860        3.20772159723503
H            1.97915783575130       -6.31362089812630        0.86365317076784
H            2.37180762585352       -4.28978413893205       -0.49144491828768
H            4.55652995031959        4.05163509999937       -2.25155471997162
H            2.39068150332439        5.23303124443081       -2.48506817813665
H           -0.18036757131363        2.43460953869184       -0.01604267799778
H           -2.33483788434046        1.46591933720236        0.54884304384803
H           -4.76289562859299        5.01273638588940        1.74921770723279
H           -6.50768221099919        5.45881145890035        3.44148194685679
H           -8.20487882582815        3.75961412106734        3.95356320194374
H           -8.22840772015789        1.61256215921429        2.80789061650481
H           -5.29288556439443       -4.17788635471122       -0.54046877367503
H           -6.83330142908523       -5.93992902486051        0.16347957060279
H           -8.96919351230399       -5.39604184824645        1.24625718960185
H           -9.55540114626735       -3.05766783032043        1.76321678957227
H           -9.09904273475271        0.97211333897255       -0.16858005761672
H          -11.17323036721246        2.08684873865721        0.56999042655809
H          -12.22448515546947        1.44577595741967        2.70833194818896
H          -11.19092179796854       -0.29799772288867        4.11284179880057
H           -9.09980159403633       -1.38873173151733        3.39096099372721
H           -3.02599418438937        2.68169765423038       -2.30962414252171
H           -1.46887578301977        2.23965253768998       -4.13342602386514
H           -1.10013878078840       -0.04102438697653       -4.96735563299698
H           -2.35940579476201       -1.94168503102572       -4.01874224499569
H           -6.50275142350072       -2.38220550247910       -2.89584661877184
H           -6.98158557721739       -4.60313359941305       -3.86045804356012
H           -5.20755453487010       -6.31472099692925       -3.95686627401422
H           -2.95612289968644       -5.80455633191611       -3.09020830973108
H           -2.48327125080598       -3.58923922318271       -2.10695726969830
H           -4.30574061230836        5.08607850031306       -0.60229600989602
H           -2.10932750049694        6.11027823286201       -1.08682293583018

 projected vibrational frequencies (cm⁻¹)
eigval :       -0.00    -0.00    -0.00     0.00     0.00     0.00
eigval :        4.86     6.83     8.03    15.52    18.87    23.48
eigval :       24.93    27.41    29.73    34.57    41.90    46.82
eigval :       48.24    51.58    54.27    56.15    59.81    65.16
eigval :       67.60    69.82    70.85    75.23    82.68    85.86
eigval :       88.05    97.27   105.66   107.02   109.00   117.69
eigval :      118.68   121.89   134.20   144.65   149.49   154.61
eigval :      157.21   164.11   167.30   178.10   181.22   183.76
eigval :      196.18   196.65   209.17   212.65   222.00   224.82
eigval :      227.98   231.78   232.91   242.66   244.53   250.04
eigval :      253.74   257.77   269.17   274.37   275.66   291.64
eigval :      294.34   319.66   324.72   346.93   349.47   351.90
eigval :      353.58   360.32   377.84   378.34   378.55   379.76
eigval :      379.98   381.90   386.81   388.24   388.98   395.32
eigval :      396.96   400.54   402.14   403.76   407.99   412.58
eigval :      415.35   426.97   433.76   439.74   446.07   447.74
eigval :      450.80   452.14   460.29   468.71   472.32   473.43
eigval :      481.16   483.42   530.69   535.26   537.14   539.48
eigval :      542.64   543.46   543.98   548.74   554.63   555.30
eigval :      556.40   559.85   571.98   575.13   580.58   581.30
eigval :      581.42   586.62   590.45   591.68   592.89   593.92
eigval :      603.07   604.67   607.22   608.06   612.04   623.37
eigval :      624.98   625.99   629.63   638.99   647.31   650.49
eigval :      650.82   660.87   667.42   669.28   669.79   670.65
eigval :      674.25   675.45   675.86   695.33   698.19   698.46
eigval :      698.80   699.49   702.73   703.04   723.75   729.30
eigval :      729.51   748.31   750.92   763.05   764.52   765.22
eigval :      767.52   768.06   771.60   771.93   774.32   774.95
eigval :      776.31   780.51   799.61   814.18   842.58   843.33
eigval :      843.69   843.80   845.83   856.61   858.64   860.47
eigval :      865.75   867.79   868.85   870.82   871.30   872.25
eigval :      878.62   878.86   879.96   881.18   889.41   899.05
eigval :      899.63   899.88   900.90   901.79   902.71   903.70
eigval :      905.48   906.77   908.05   910.12   910.88   911.56
eigval :      912.87   913.52   915.85   920.25   920.27   921.77
eigval :      922.28   922.42   926.65   928.73   929.04   929.21
eigval :      929.21   929.58   932.75   933.04   933.84   934.94
eigval :      935.34   944.19   950.64   986.07   986.24   990.71
eigval :      992.92   997.88  1002.19  1014.59  1015.90  1075.19
eigval :     1076.37  1077.30  1077.63  1078.59  1078.75  1078.89
eigval :     1079.45  1082.43  1083.01  1088.68  1089.16  1089.89
eigval :     1090.22  1116.48  1116.77  1117.17  1117.34  1127.14
eigval :     1132.54  1134.70  1137.96  1141.74  1142.25  1143.96
eigval :     1145.76  1159.46  1169.23  1170.53  1174.22  1176.10
eigval :     1176.39  1180.81  1180.85  1180.92  1181.08  1182.24
eigval :     1182.64  1186.48  1187.34  1190.07  1190.50  1194.92
eigval :     1204.25  1206.99  1211.11  1212.86  1213.65  1215.91
eigval :     1222.68  1228.91  1233.87  1238.37  1240.90  1244.88
eigval :     1247.21  1254.98  1263.41  1271.04  1271.66  1272.01
eigval :     1272.47  1276.47  1278.20  1285.81  1286.69  1290.42
eigval :     1292.83  1314.62  1315.15  1315.65  1315.68  1318.18
eigval :     1320.20  1323.04  1325.64  1327.07  1327.53  1331.10
eigval :     1332.68  1342.04  1343.94  1346.25  1348.60  1358.87
eigval :     1359.18  1377.73  1379.53  1382.08  1383.57  1384.89
eigval :     1386.05  1404.38  1409.69  1415.25  1417.09  1418.63
eigval :     1419.51  1424.06  1425.77  1427.17  1435.17  1435.83
eigval :     1436.03  1436.03  1438.13  1440.74  1455.11  1462.80
eigval :     1467.25  1468.74  1471.02  1472.34  1479.55  1479.72
eigval :     1480.15  1480.39  1481.82  1483.11  1489.00  1498.56
eigval :     1526.83  1527.74  1528.84  1535.56  1547.64  1577.29
eigval :     1577.84  1579.12  1579.98  1580.33  1581.34  1581.63
eigval :     1581.93  1582.68  1582.78  1582.95  1589.19  1591.47
eigval :     1591.96  1592.25  1592.78  1593.54  1595.92  1596.24
eigval :     1596.69  1597.83  3073.64  3074.30  3077.84  3078.62
eigval :     3079.45  3080.07  3080.12  3080.42  3080.50  3080.54
eigval :     3080.70  3081.31  3081.50  3081.67  3084.26  3084.64
eigval :     3084.88  3085.15  3087.34  3088.15  3088.73  3089.74
eigval :     3090.20  3091.02  3091.25  3091.75  3092.76  3092.90
eigval :     3094.50  3095.20  3096.22  3096.35  3096.44  3096.48
eigval :     3097.08  3097.47  3098.13  3099.47  3100.90  3101.36
eigval :     3101.42  3101.82  3102.09  3102.23  3102.67  3105.71
eigval :     3128.88  3135.73  3138.66  3139.60  3148.93  3150.72

   temp. (K)  partition function   enthalpy   heat capacity  entropy
                                   cal/mol     cal/K/mol   cal/K/mol   J/K/mol
 298.15  VIB  0.762E+33            42297.487    269.958    263.675
         ROT  0.482E+09              888.752      2.981     42.712
         INT  0.367E+42            43186.239    272.939    306.387
         TR   0.389E+29             1481.254      4.968     47.037
         TOT                       44667.4933   277.9067   353.4241  1478.7264

       T/K    H(0)-H(T)+PV         H(T)/Eh          T*S/Eh         G(T)/Eh
   ------------------------------------------------------------------------
    298.15    0.711822E-01    0.116400E+01    0.167923E+00    0.996073E+00
   ------------------------------------------------------------------------

         :::::::::::::::::::::::::::::::::::::::::::::::::::::
         ::                  THERMODYNAMIC                  ::
         :::::::::::::::::::::::::::::::::::::::::::::::::::::
         :: total free energy        -229.292285415562 Eh   ::
         ::.................................................::
         :: total energy             -230.288358136975 Eh   ::
         :: zero point energy           1.092813727441 Eh   ::
         :: G(RRHO) w/o ZPVE           -0.096741006028 Eh   ::
         :: G(RRHO) contrib.            0.996072721414 Eh   ::
         :::::::::::::::::::::::::::::::::::::::::::::::::::::

           -------------------------------------------------
          | TOTAL ENERGY             -230.288358136975 Eh   |
          | TOTAL ENTHALPY           -229.124362228005 Eh   |
          | TOTAL FREE ENERGY        -229.292285415562 Eh   |
          | GRADIENT NORM               0.000051103126 Eh/α |
           -------------------------------------------------

 * finished run on 2025/09/02 at 09:50:16.220
