   * xtb version 6.7.1 (edcfbbe) compiled by 'albert@albert-system' on 2024-07-22

   ID    Z sym.   atoms
    1    8 O      1
    2    6 C      2-6, 8-22, 24-37, 39-51, 53-67, 69-82, 84-92
    3    7 N      7, 23, 38, 52, 68, 83
    4    1 H      93-144

          program call               : xtb data2507/gas/TATP-BP/TATP-BP.xyz --gfn 2 --ohess vtight --parallel 40 --molden --ceasefiles --namespace data2507/gas/TATP-BP/TATP-BP_gas_S0_preOpt
          :  Hamiltonian                  GFN2-xTB          :
 * total energy  :  -230.2871170 Eh     change       -0.5616243E-08 Eh
 * total energy  :  -230.3291431 Eh     change       -0.4202618E-01 Eh
 * total energy  :  -230.3423612 Eh     change       -0.1321810E-01 Eh
 * total energy  :  -230.3471987 Eh     change       -0.4837429E-02 Eh
 * total energy  :  -230.3503095 Eh     change       -0.3110845E-02 Eh
 * total energy  :  -230.3521572 Eh     change       -0.1847681E-02 Eh
 * total energy  :  -230.3535251 Eh     change       -0.1367936E-02 Eh
 * total energy  :  -230.3546303 Eh     change       -0.1105144E-02 Eh
 * total energy  :  -230.3554772 Eh     change       -0.8469114E-03 Eh
 * total energy  :  -230.3561194 Eh     change       -0.6422716E-03 Eh
 * total energy  :  -230.3610187 Eh     change       -0.5676760E-06 Eh
 * total energy  :  -230.3610195 Eh     change       -0.7582289E-06 Eh
 * total energy  :  -230.3610204 Eh     change       -0.9370123E-06 Eh
 * total energy  :  -230.3610213 Eh     change       -0.9013508E-06 Eh
 * total energy  :  -230.3610221 Eh     change       -0.7985151E-06 Eh
 * total energy  :  -230.3610228 Eh     change       -0.7072514E-06 Eh
 * total energy  :  -230.3610235 Eh     change       -0.7250324E-06 Eh
 * total energy  :  -230.3610245 Eh     change       -0.9311537E-06 Eh
 * total energy  :  -230.3610245 Eh     change       -0.5170421E-08 Eh
   *** GEOMETRY OPTIMIZATION CONVERGED AFTER 185 ITERATIONS ***

 final structure:
================
144
 xtb: 6.7.1 (edcfbbe)
O            0.00347452915378        1.79129527108308        3.26636929885858
C           -0.03657957891372        1.05806252248406        2.29848494917711
C            1.17829812217876        0.73064248452503        1.50979809860211
C            1.14844574901273        0.64948657784236        0.11881937123203
C            2.28983182290392        0.32158423162425       -0.58454095413356
C            3.47474801569390        0.04379719083078        0.09558870551187
N            4.60616626082596       -0.38324034371314       -0.60748845122131
C            4.61837380798684       -1.55352975790142       -1.34745089539048
C            3.54368188732917       -2.32376838326769       -1.76314718328548
C            3.80766358858271       -3.50153205940237       -2.43398646183532
C            5.11681844433489       -3.91792182468471       -2.64826751336849
C            6.18945474318217       -3.16695896638243       -2.21140870225502
C            5.95685684366329       -1.95066611374637       -1.57516661003027
C            6.78807959918710       -0.95561434640176       -0.94713813005348
C            8.16760532906847       -0.79979130332355       -0.73277014413037
C            8.65709785178140        0.16020411212248        0.18460474222151
C           10.05219895517244       -0.13131094712578        0.37526145038563
C           11.03635339890443        0.31335558200494        1.25387984145806
C           12.31470462358413       -0.19378114884515        1.13998708742996
C           12.63428487876085       -1.13433019231836        0.16533506628739
C           11.66342971920196       -1.64190258918407       -0.67551261742162
C           10.36845145236653       -1.16726914659462       -0.53456225219768
N            9.22164980837522       -1.55802157119853       -1.19897457941306
C            9.23742857983456       -2.33480008925832       -2.36705693060994
C            9.80452620423807       -3.60573505273172       -2.36146262808402
C            9.84322395774557       -4.34612896040016       -3.52932660754494
C            9.31631723319710       -3.83040039146900       -4.70184799197754
C            8.74738136382475       -2.56725748315935       -4.70650985883242
C            8.71163868262639       -1.81587570964292       -3.54739702265345
C            7.77959033018523        1.16311614032190        0.62388904640065
C            6.39677272747996        1.10555261426635        0.33194102711872
C            5.81574392958690        2.31697640739947        0.84551510062051
C            4.56347289915668        2.92065650581427        0.76192150426011
C            4.37092789318301        4.15323666291182        1.35162461167624
C            5.40987659394459        4.81705998751376        1.99713383358677
C            6.67685254759862        4.27075237747138        2.04552492397686
C            6.86859427844523        3.02388127831532        1.47075505592938
N            8.04531370542642        2.31173059203165        1.33399761023722
C            9.30432568243788        2.90028671907614        1.54464798276094
C           10.17287070506459        3.08632325515859        0.47361919052529
C           11.40032793037700        3.68691289781653        0.67969965022620
C           11.76334436190120        4.11512527982851        1.94593683332384
C           10.89464005264900        3.94034305249145        3.01037237361810
C            9.66645850522126        3.33437597593812        2.81533624748500
C            5.91233582135762       -0.01905128845371       -0.35212267857410
C            3.51455360265696        0.15151322653508        1.48535474528367
C            2.38047447057219        0.51362982540293        2.17991133895591
C           -1.29624047312173        0.40951799335217        1.85846765731396
C           -1.29787681763407       -0.80952667830458        1.18104845570452
C           -2.48846562200638       -1.40778363556674        0.82263115940895
C           -3.70126382145173       -0.79581329946182        1.13526926664732
N           -4.90823642576095       -1.41074645479701        0.79183696096399
C           -5.27508013939037       -2.66737188364573        1.23980829969402
C           -4.49207630082219       -3.63896328184166        1.84300529694603
C           -5.08189828953526       -4.85009571332820        2.14765453545201
C           -6.41592881036506       -5.08998390852504        1.83585094161481
C           -7.20962393060497       -4.10819492339207        1.27774785646176
C           -6.65933357273789       -2.85574596164317        1.01928170938956
C           -7.15529914007150       -1.61914169937208        0.47168020569734
C           -8.41810304218537       -1.12133594437455        0.11530303933472
C           -8.56044581328681        0.11704122366802       -0.55543148019375
C           -9.95097114353784        0.22930722883650       -0.91159960413032
C          -10.70148564779232        1.10157102969784       -1.69583584738611
C          -12.06180171917070        0.90012407449219       -1.81265231517777
C          -12.69595870107669       -0.15468336255048       -1.16345709457293
C          -11.96924916242938       -1.07189602509191       -0.43091463287396
C          -10.59702941558185       -0.89416543286685       -0.34471236632401
N           -9.65937246989334       -1.69990792122249        0.27046512354622
C          -10.00474015672975       -2.71041563452026        1.18234159987403
C           -9.58852928527088       -2.61855826330563        2.50740741856469
C           -9.94770977698787       -3.59961811887525        3.41189304681262
C          -10.73135834431372       -4.66779563158313        3.00742525659639
C          -11.15171147947456       -4.75680606418580        1.69071682183918
C          -10.79077558690450       -3.78401810174105        0.77575334813736
C           -7.41958883035471        0.91504776511248       -0.73070253671427
C           -6.13035193046452        0.44123043766318       -0.38921137577816
C           -5.19445921106123        1.42640817500716       -0.86387989486714
C           -3.80910477895232        1.48986829298865       -0.99230109574921
C           -3.23267933902393        2.63699467967481       -1.49878141619908
C           -4.00779072829021        3.72661566926611       -1.88364731706908
C           -5.38616021250704        3.66602572517852       -1.83355662070256
C           -5.96929521577940        2.49970342699810       -1.36260379455739
N           -7.30900923406824        2.17595210441938       -1.27719605382387
C           -8.33297405430816        3.12984437743810       -1.39391530795677
C           -9.17345749946538        3.37786620120960       -0.31247561586150
C          -10.16639808668219        4.33322117988568       -0.41665089176919
C          -10.32008977569372        5.05416053421744       -1.58939546977908
C           -9.48016197359592        4.81279024914623       -2.66388977220170
C           -8.48834501172290        3.85276017845320       -2.57241233898410
C           -6.02984337647520       -0.78514291565250        0.28370544714555
C           -3.70531028067167        0.41635860283475        1.82600491079258
C           -2.51371314902535        1.00601661604367        2.18673008449855
H            0.23359171743568        0.86853079512330       -0.41254281699077
H            2.27691059655331        0.29333968532000       -1.66387014927794
H            2.52760160537832       -2.02799624792024       -1.55224157075393
H            2.98750773910472       -4.11545563750474       -2.77513728439620
H            5.29955677810788       -4.85620125435902       -3.15068897281106
H            7.18681079934861       -3.54439592130626       -2.34930413428397
H           10.81009344226280        1.02181816935300        2.03257073193559
H           13.08194330892348        0.14801516584919        1.81871495619725
H           13.65016752661812       -1.49046026634408        0.08016118756740
H           11.90882708009857       -2.38742565808543       -1.41627408843074
H           10.18576680449611       -4.01562602887145       -1.43821875881383
H           10.27903847240639       -5.33429934175235       -3.52060804392631
H            9.34569239959385       -4.41395184000910       -5.60955110477580
H            8.33404729567089       -2.16338479708748       -5.61849306942816
H            8.27088116554233       -0.83028587422417       -3.54214300072920
H            3.75383823455804        2.45767086507878        0.22397790789365
H            3.39753817646015        4.61733191974544        1.29935085868866
H            5.22916092750649        5.78310549383854        2.44418026184882
H            7.49651381092455        4.80717328363157        2.49903019277276
H            9.88040127847392        2.75390383652132       -0.51091958866588
H           12.07445850769550        3.82442434322455       -0.15229481279575
H           12.72255316215718        4.58467676265025        2.10368967993917
H           11.17647280665495        4.27110135055083        3.99915019888193
H            8.99181110340941        3.17739675576914        3.64402000763301
H            4.43690731699093       -0.05185935392338        2.00706814586552
H            2.39996261462558        0.60479923247183        3.25523494145295
H           -0.36438080335857       -1.29917532409517        0.94638341518877
H           -2.48781538527730       -2.33779016832540        0.27429586193839
H           -3.45246402675349       -3.46031653804068        2.07038240540719
H           -4.49304755691613       -5.62613675701155        2.61331490505025
H           -6.84170659839628       -6.06150968485864        2.03807154418575
H           -8.23231763355425       -4.33166366117008        1.02961753592787
H          -10.23869862308891        1.91272533347644       -2.23021624592253
H          -12.64539226559106        1.57688823130884       -2.41898390858577
H          -13.76593918011873       -0.27066777940849       -1.25117528121311
H          -12.45612457448103       -1.90282107708987        0.05638816125147
H           -8.97988099911801       -1.78171217109553        2.81523226819691
H           -9.61809364428142       -3.52783373972957        4.43744767702561
H          -11.01221530877991       -5.43172023075987        3.71655977400980
H          -11.75700869649752       -5.59224542965643        1.37109910125719
H          -11.09246574732089       -3.86230211484419       -0.25814364132197
H           -3.18498075616314        0.65251066641854       -0.73113438868092
H           -2.15841827390393        2.69225467883709       -1.59632185833779
H           -3.52672282192990        4.62186380495224       -2.24815132971589
H           -5.98930910999516        4.50150111012386       -2.15440724327035
H           -9.04567810479818        2.81331267537579        0.59882807538368
H          -10.82000845843270        4.51871588231523        0.42236306348788
H          -11.09516023736099        5.80149899767274       -1.66731052403608
H           -9.60231155744921        5.36858593240974       -3.58185185904421
H           -7.84846484743495        3.64093473329314       -3.41606408843626
H           -4.64679178958648        0.88197127320452        2.07421683087991
H           -2.50143580621034        1.93945790888551        2.72871500008187

          :  Hamiltonian                  GFN2-xTB          :
         :: gradient norm              0.000096848871 Eh/a0 ::
         :: HOMO-LUMO gap              1.722177778399 eV    ::
         :: SCC energy              -234.646254330403 Eh    ::
         :: -> dispersion             -0.242644612408 Eh    ::
         :: repulsion energy           4.285229856688 Eh    ::

    * Orbital Energies and Occupations

         #    Occupation            Energy/Eh            Energy/eV
      -------------------------------------------------------------
         1        2.0000           -0.7006808             -19.0665
       ...           ...                  ...                  ...
       202        2.0000           -0.3922610             -10.6740
       203        2.0000           -0.3909075             -10.6371
       204        2.0000           -0.3891012             -10.5880
       205        2.0000           -0.3884937             -10.5715
       206        2.0000           -0.3878574             -10.5541
       207        2.0000           -0.3874185             -10.5422
       208        2.0000           -0.3867127             -10.5230
       209        2.0000           -0.3701154             -10.0714
       210        2.0000           -0.3688980             -10.0382
       211        2.0000           -0.3509483              -9.5498
       212        2.0000           -0.3502496              -9.5308
       213        2.0000           -0.3498533              -9.5200
       214        2.0000           -0.3489427              -9.4952 (HOMO)
       215                         -0.2856539              -7.7730 (LUMO)
       216                         -0.2482697              -6.7558
       217                         -0.2456963              -6.6857
       218                         -0.2436352              -6.6297
       219                         -0.2423967              -6.5960
       220                         -0.2395592              -6.5187
       221                         -0.2372470              -6.4558
       222                         -0.2356920              -6.4135
       223                         -0.2332543              -6.3472
       224                         -0.2327580              -6.3337
       225                         -0.2323540              -6.3227
       ...                                ...                  ...
       420                          0.7794035              21.2086
      -------------------------------------------------------------
                  HL-Gap            0.0632888 Eh            1.7222 eV

     #   Z          covCN         q      C6AA      α(0)
     1   8 O        0.858    -0.370    21.086     6.157
     2   6 C        2.828     0.226    23.252     7.901
     3   6 C        2.973    -0.015    28.371     8.737
     4   6 C        2.921    -0.027    28.673     8.781
     5   6 C        2.920    -0.042    29.053     8.839
     6   6 C        2.917     0.074    26.339     8.416
     7   7 N        2.801    -0.042    22.055     6.975
     8   6 C        3.080     0.043    26.946     8.510
     9   6 C        2.911    -0.052    29.302     8.876
    10   6 C        2.923    -0.036    28.893     8.815
    11   6 C        2.919    -0.041    29.015     8.833
    12   6 C        2.915    -0.041    29.021     8.834
    13   6 C        3.060    -0.014    28.294     8.723
    14   6 C        3.051    -0.047    29.111     8.849
    15   6 C        3.064     0.041    27.015     8.523
    16   6 C        3.055    -0.047    29.109     8.848
    17   6 C        3.063    -0.015    28.330     8.728
    18   6 C        2.914    -0.039    28.971     8.826
    19   6 C        2.920    -0.042    29.033     8.836
    20   6 C        2.924    -0.036    28.893     8.815
    21   6 C        2.911    -0.052    29.299     8.876
    22   6 C        3.081     0.044    26.930     8.507
    23   7 N        2.803    -0.043    22.079     6.979
    24   6 C        2.916     0.070    26.444     8.433
    25   6 C        2.921    -0.042    29.039     8.837
    26   6 C        2.920    -0.028    28.704     8.786
    27   6 C        2.919    -0.032    28.802     8.801
    28   6 C        2.920    -0.026    28.655     8.778
    29   6 C        2.922    -0.038    28.935     8.821
    30   6 C        3.065     0.042    26.994     8.520
    31   6 C        3.057    -0.048    29.144     8.853
    32   6 C        3.060    -0.016    28.349     8.731
    33   6 C        2.914    -0.039    28.966     8.825
    34   6 C        2.919    -0.040    28.986     8.829
    35   6 C        2.924    -0.034    28.858     8.810
    36   6 C        2.910    -0.052    29.279     8.873
    37   6 C        3.086     0.044    26.922     8.505
    38   7 N        2.803    -0.044    22.094     6.981
    39   6 C        2.917     0.069    26.447     8.433
    40   6 C        2.922    -0.036    28.892     8.815
    41   6 C        2.920    -0.026    28.645     8.777
    42   6 C        2.920    -0.031    28.784     8.798
    43   6 C        2.920    -0.028    28.703     8.786
    44   6 C        2.922    -0.041    29.016     8.834
    45   6 C        3.064     0.041    27.027     8.525
    46   6 C        2.920    -0.037    28.914     8.818
    47   6 C        2.924    -0.017    28.436     8.745
    48   6 C        2.972    -0.016    28.403     8.742
    49   6 C        2.921    -0.027    28.676     8.782
    50   6 C        2.920    -0.042    29.049     8.838
    51   6 C        2.916     0.076    26.305     8.410
    52   7 N        2.802    -0.041    22.034     6.972
    53   6 C        3.078     0.044    26.941     8.510
    54   6 C        2.911    -0.052    29.295     8.875
    55   6 C        2.924    -0.035    28.883     8.813
    56   6 C        2.920    -0.041    29.015     8.833
    57   6 C        2.915    -0.040    28.994     8.830
    58   6 C        3.062    -0.014    28.301     8.724
    59   6 C        3.051    -0.046    29.098     8.847
    60   6 C        3.065     0.042    27.003     8.521
    61   6 C        3.053    -0.047    29.102     8.847
    62   6 C        3.061    -0.015    28.336     8.729
    63   6 C        2.915    -0.040    28.996     8.830
    64   6 C        2.920    -0.042    29.032     8.836
    65   6 C        2.924    -0.036    28.886     8.814
    66   6 C        2.911    -0.052    29.295     8.875
    67   6 C        3.083     0.044    26.921     8.506
    68   7 N        2.803    -0.044    22.083     6.979
    69   6 C        2.916     0.069    26.446     8.433
    70   6 C        2.922    -0.037    28.914     8.818
    71   6 C        2.920    -0.026    28.648     8.777
    72   6 C        2.920    -0.032    28.789     8.799
    73   6 C        2.920    -0.028    28.702     8.785
    74   6 C        2.922    -0.041    29.028     8.835
    75   6 C        3.064     0.042    26.998     8.520
    76   6 C        3.054    -0.047    29.120     8.850
    77   6 C        3.061    -0.016    28.349     8.731
    78   6 C        2.914    -0.040    28.995     8.830
    79   6 C        2.919    -0.041    29.017     8.834
    80   6 C        2.924    -0.035    28.877     8.812
    81   6 C        2.911    -0.052    29.281     8.873
    82   6 C        3.083     0.045    26.911     8.504
    83   7 N        2.803    -0.043    22.079     6.979
    84   6 C        2.916     0.070    26.445     8.433
    85   6 C        2.922    -0.037    28.909     8.817
    86   6 C        2.920    -0.026    28.644     8.777
    87   6 C        2.920    -0.031    28.786     8.798
    88   6 C        2.920    -0.028    28.699     8.785
    89   6 C        2.922    -0.041    29.027     8.835
    90   6 C        3.063     0.040    27.031     8.526
    91   6 C        2.920    -0.036    28.894     8.815
    92   6 C        2.924    -0.015    28.397     8.739
    93   1 H        0.926     0.040     2.454     2.450
    94   1 H        0.926     0.046     2.366     2.405
    95   1 H        0.926     0.026     2.650     2.546
    96   1 H        0.926     0.027     2.627     2.535
    97   1 H        0.926     0.025     2.656     2.549
    98   1 H        0.926     0.029     2.597     2.520
    99   1 H        0.926     0.027     2.632     2.537
   100   1 H        0.926     0.024     2.668     2.554
   101   1 H        0.926     0.027     2.632     2.537
   102   1 H        0.926     0.027     2.629     2.536
   103   1 H        0.926     0.042     2.425     2.435
   104   1 H        0.926     0.036     2.506     2.476
   105   1 H        0.926     0.035     2.515     2.480
   106   1 H        0.926     0.037     2.495     2.470
   107   1 H        0.926     0.039     2.461     2.453
   108   1 H        0.926     0.024     2.667     2.554
   109   1 H        0.926     0.028     2.611     2.527
   110   1 H        0.926     0.029     2.606     2.524
   111   1 H        0.926     0.026     2.639     2.540
   112   1 H        0.926     0.038     2.471     2.458
   113   1 H        0.926     0.037     2.496     2.470
   114   1 H        0.926     0.036     2.509     2.477
   115   1 H        0.926     0.036     2.498     2.472
   116   1 H        0.926     0.042     2.427     2.436
   117   1 H        0.926     0.047     2.355     2.400
   118   1 H        0.926     0.056     2.251     2.346
   119   1 H        0.926     0.040     2.448     2.447
   120   1 H        0.926     0.047     2.359     2.402
   121   1 H        0.926     0.027     2.624     2.533
   122   1 H        0.926     0.028     2.614     2.528
   123   1 H        0.926     0.025     2.652     2.547
   124   1 H        0.926     0.029     2.604     2.524
   125   1 H        0.926     0.028     2.621     2.532
   126   1 H        0.926     0.024     2.667     2.554
   127   1 H        0.926     0.027     2.629     2.536
   128   1 H        0.926     0.027     2.630     2.536
   129   1 H        0.926     0.038     2.472     2.459
   130   1 H        0.926     0.037     2.489     2.467
   131   1 H        0.926     0.036     2.506     2.476
   132   1 H        0.926     0.036     2.501     2.473
   133   1 H        0.926     0.042     2.425     2.435
   134   1 H        0.926     0.023     2.694     2.567
   135   1 H        0.926     0.022     2.700     2.570
   136   1 H        0.926     0.028     2.613     2.528
   137   1 H        0.926     0.028     2.618     2.530
   138   1 H        0.926     0.038     2.471     2.458
   139   1 H        0.926     0.037     2.489     2.467
   140   1 H        0.926     0.036     2.506     2.475
   141   1 H        0.926     0.036     2.500     2.472
   142   1 H        0.926     0.042     2.426     2.436
   143   1 H        0.926     0.046     2.369     2.407
   144   1 H        0.926     0.061     2.183     2.311

molecular dipole:
                 x           y           z       tot (Debye)
 q only:       -0.177      -0.454      -0.713
   full:       -0.165      -0.522      -0.791       2.444

 projected vibrational frequencies (cm⁻¹)
eigval :       -0.00    -0.00    -0.00     0.00     0.00     0.00
eigval :        3.41     5.20     6.26    13.51    15.35    21.15
eigval :       23.40    25.51    27.15    28.54    33.93    45.16
eigval :       48.65    51.04    51.91    52.75    55.47    64.57
eigval :       65.81    71.21    71.80    75.76    77.38    81.01
eigval :       83.86    90.99    98.41   104.82   110.18   117.41
eigval :      124.04   124.81   135.80   141.71   149.38   156.22
eigval :      158.88   164.81   166.20   169.31   175.38   187.96
eigval :      198.04   202.06   211.52   213.90   222.81   225.34
eigval :      227.54   227.89   232.07   238.51   244.43   250.16
eigval :      253.17   255.25   268.16   270.79   277.84   286.56
eigval :      291.39   304.44   332.92   344.62   350.20   355.18
eigval :      357.59   364.79   376.34   378.71   379.05   379.57
eigval :      380.03   381.93   382.40   387.61   388.14   389.38
eigval :      395.40   400.43   403.81   406.20   408.26   413.18
eigval :      424.13   433.97   445.18   446.83   449.00   449.84
eigval :      453.13   457.16   470.43   473.66   477.09   481.21
eigval :      486.87   493.11   537.09   537.57   542.16   544.60
eigval :      545.10   545.25   548.87   554.02   555.14   556.97
eigval :      560.82   574.44   576.68   581.03   581.63   581.85
eigval :      588.88   591.08   592.67   592.94   594.48   600.40
eigval :      606.54   609.13   609.86   618.40   625.63   627.88
eigval :      629.91   631.44   636.85   647.53   649.97   651.49
eigval :      660.56   667.49   670.11   670.36   672.55   674.55
eigval :      676.68   688.40   697.41   698.51   698.58   698.84
eigval :      702.06   703.06   704.43   728.86   729.93   730.17
eigval :      734.26   749.65   751.30   764.48   764.81   767.49
eigval :      767.64   768.71   772.21   774.28   774.61   774.96
eigval :      775.55   776.65   821.36   827.06   845.10   845.11
eigval :      845.66   847.45   859.35   861.74   864.56   866.93
eigval :      867.83   868.73   868.80   869.60   876.68   878.35
eigval :      878.98   879.69   879.84   881.75   898.45   899.10
eigval :      899.91   900.29   900.67   901.44   904.66   904.97
eigval :      906.43   907.30   908.07   912.85   913.24   916.54
eigval :      918.44   920.06   920.70   921.65   921.90   922.69
eigval :      923.11   923.75   924.39   928.58   928.66   928.83
eigval :      928.92   932.52   933.31   934.60   934.69   934.93
eigval :      935.50   938.60   954.98   986.70   986.77   993.38
eigval :      994.73  1005.41  1011.76  1018.29  1027.82  1078.63
eigval :     1078.75  1078.89  1079.11  1079.24  1080.15  1080.42
eigval :     1080.96  1085.75  1085.75  1091.62  1091.84  1092.51
eigval :     1093.21  1116.55  1116.81  1117.21  1117.22  1131.94
eigval :     1133.21  1144.37  1144.42  1148.14  1148.99  1149.23
eigval :     1149.28  1174.39  1178.35  1179.10  1179.46  1179.79
eigval :     1180.85  1180.98  1181.05  1181.05  1182.33  1183.75
eigval :     1184.28  1186.35  1188.65  1191.01  1191.06  1193.29
eigval :     1209.39  1212.57  1214.75  1215.26  1216.14  1218.41
eigval :     1245.84  1248.69  1250.13  1252.41  1252.82  1253.63
eigval :     1260.41  1263.74  1264.46  1273.84  1273.92  1274.93
eigval :     1274.98  1292.71  1293.44  1295.99  1296.19  1298.86
eigval :     1299.17  1315.47  1315.60  1315.90  1316.11  1317.81
eigval :     1322.91  1329.33  1329.69  1336.79  1337.52  1339.69
eigval :     1340.75  1361.38  1362.47  1366.30  1366.75  1367.48
eigval :     1367.54  1387.85  1388.72  1393.02  1395.35  1395.78
eigval :     1396.97  1405.63  1407.72  1429.33  1429.69  1433.70
eigval :     1434.06  1434.34  1435.12  1436.97  1437.31  1439.28
eigval :     1439.56  1440.24  1440.44  1475.06  1475.50  1476.31
eigval :     1476.50  1481.15  1481.27  1481.40  1481.55  1483.40
eigval :     1483.84  1486.58  1487.91  1556.39  1557.81  1567.36
eigval :     1567.76  1568.81  1569.61  1580.67  1581.19  1581.52
eigval :     1582.13  1583.03  1584.54  1584.93  1586.10  1590.45
eigval :     1590.63  1591.61  1592.58  1594.60  1594.75  1595.01
eigval :     1595.37  1601.58  1601.80  1603.35  1603.62  1604.27
eigval :     1605.37  1694.14  3076.50  3077.43  3077.53  3077.99
eigval :     3078.85  3078.91  3079.09  3079.60  3079.66  3079.72
eigval :     3079.90  3083.03  3083.11  3083.29  3083.36  3084.13
eigval :     3085.28  3085.75  3085.99  3086.74  3087.05  3087.42
eigval :     3090.43  3091.23  3091.43  3091.79  3092.85  3093.72
eigval :     3094.19  3094.73  3094.83  3095.06  3095.08  3095.59
eigval :     3096.09  3096.23  3096.29  3096.47  3096.89  3097.76
eigval :     3100.44  3100.57  3100.59  3100.71  3102.83  3104.20
eigval :     3127.28  3129.05  3131.11  3140.41  3141.79  3153.27

   temp. (K)  partition function   enthalpy   heat capacity  entropy
                                   cal/mol     cal/K/mol   cal/K/mol   J/K/mol
 298.15  VIB  0.676E+34            42218.535    267.853    264.873
         ROT  0.663E+09              888.752      2.981     43.348
         INT  0.448E+43            43107.287    270.833    308.221
         TR   0.389E+29             1481.254      4.968     47.037
         TOT                       44588.5414   275.8016   355.2578  1486.3985

       T/K    H(0)-H(T)+PV         H(T)/Eh          T*S/Eh         G(T)/Eh
   ------------------------------------------------------------------------
    298.15    0.710564E-01    0.116805E+01    0.168794E+00    0.999256E+00
   ------------------------------------------------------------------------

         :::::::::::::::::::::::::::::::::::::::::::::::::::::
         ::                  THERMODYNAMIC                  ::
         :::::::::::::::::::::::::::::::::::::::::::::::::::::
         :: total free energy        -229.361768194361 Eh   ::
         ::.................................................::
         :: total energy             -230.361024473711 Eh   ::
         :: zero point energy           1.096994339619 Eh   ::
         :: G(RRHO) w/o ZPVE           -0.097738060269 Eh   ::
         :: G(RRHO) contrib.            0.999256279350 Eh   ::
         :::::::::::::::::::::::::::::::::::::::::::::::::::::

           -------------------------------------------------
          | TOTAL ENERGY             -230.361024473711 Eh   |
          | TOTAL ENTHALPY           -229.192973770450 Eh   |
          | TOTAL FREE ENERGY        -229.361768194361 Eh   |
          | GRADIENT NORM               0.000096846551 Eh/α |
          | HOMO-LUMO GAP               1.722177117200 eV   |
           -------------------------------------------------

 * finished run on 2025/09/02 at 08:36:59.479
