   * xtb version 6.7.1 (edcfbbe) compiled by 'albert@albert-system' on 2024-07-22

   ID    Z sym.   atoms
    1    8 O      1
    2    6 C      2-6, 8-22, 24-37, 39-51, 53-67, 69-82, 84-92
    3    7 N      7, 23, 38, 52, 68, 83
    4    1 H      93-144

          program call               : xtb data2507/gas/TATP-BP/TATP-BP_gas_S0_crest.xyz --gfn 2 --ohess vtight --parallel 40 --molden --ceasefiles --namespace data2507/gas/TATP-BP/TATP-BP_gas_S0_finalOpt
          :  Hamiltonian                  GFN2-xTB          :
 * total energy  :  -230.3643824 Eh     change       -0.4807248E-08 Eh
 * total energy  :  -230.3643843 Eh     change       -0.1894277E-05 Eh
 * total energy  :  -230.3643867 Eh     change       -0.2437195E-05 Eh
 * total energy  :  -230.3643906 Eh     change       -0.3885041E-05 Eh
 * total energy  :  -230.3643925 Eh     change       -0.1905684E-05 Eh
 * total energy  :  -230.3643940 Eh     change       -0.1501607E-05 Eh
 * total energy  :  -230.3643963 Eh     change       -0.2311037E-05 Eh
 * total energy  :  -230.3643998 Eh     change       -0.3531186E-05 Eh
 * total energy  :  -230.3644039 Eh     change       -0.4027102E-05 Eh
 * total energy  :  -230.3644081 Eh     change       -0.4216684E-05 Eh
 * total energy  :  -230.3646384 Eh     change       -0.2502597E-05 Eh
 * total energy  :  -230.3646412 Eh     change       -0.2760179E-05 Eh
 * total energy  :  -230.3646442 Eh     change       -0.3009781E-05 Eh
 * total energy  :  -230.3646474 Eh     change       -0.3151704E-05 Eh
 * total energy  :  -230.3646500 Eh     change       -0.2605976E-05 Eh
 * total energy  :  -230.3646522 Eh     change       -0.2234175E-05 Eh
 * total energy  :  -230.3646542 Eh     change       -0.1980120E-05 Eh
 * total energy  :  -230.3646560 Eh     change       -0.1868864E-05 Eh
 * total energy  :  -230.3646560 Eh     change       -0.6076959E-08 Eh
   *** GEOMETRY OPTIMIZATION CONVERGED AFTER 68 ITERATIONS ***

 final structure:
================
144
 xtb: 6.7.1 (edcfbbe)
O            0.23150228604992        4.08759580614659       -4.32750051834665
C            0.08170020538886        3.66090356502087       -3.19961964461069
C            1.23620718371873        3.41035242137781       -2.29587400768632
C            1.24404968315625        3.84551206161009       -0.97267512654543
C            2.29752241612013        3.52614414182439       -0.13897915195191
C            3.35228633884358        2.75143875837207       -0.61805176121653
N            4.39456720618453        2.36173744039544        0.22808948650455
C            5.20871790384172        3.23902187955882        0.91941303661234
C            5.03786076452437        4.59569465361508        1.14560526527393
C            5.96843482513835        5.24268545146963        1.93526236560672
C            7.02925543972437        4.54559534533765        2.50472326349129
C            7.22830730790347        3.20494913318064        2.24321609044204
C            6.34441799936018        2.54294816239347        1.39586081280170
C            6.23575056934215        1.19889338324335        0.89339757020074
C            7.08372938908581        0.08225014466309        0.83601282487693
C            6.63036749657123       -1.15846694877674        0.32940090810166
C            7.76854801231482       -2.03836850219623        0.31890043290813
C            8.02712499064229       -3.31028750029823       -0.18621143030098
C            9.29495706446953       -3.84006714512609       -0.05871831039133
C           10.32662744362616       -3.11798224857082        0.53380577844007
C           10.11698336318294       -1.83166027970481        0.98876025161426
C            8.84021793634353       -1.30323102361294        0.87677814485392
N            8.40962922583353       -0.02826572612796        1.18878224359904
C            9.31091698084995        1.02404803833441        1.42771938947918
C            9.41099292028027        2.07373424555210        0.51995155281282
C           10.31662900223850        3.09318372103557        0.74463864897107
C           11.13278989016158        3.06688517564619        1.86345307473743
C           11.04154851503481        2.01645720968910        2.76150558660959
C           10.13381042583057        0.99450812121599        2.54840754318537
C            5.27913039163685       -1.27078817511213       -0.03514049033483
C            4.44216410742030       -0.13266979288171       -0.12381844766220
C            3.14212489457519       -0.61045508307629       -0.51999476258416
C            1.87833439780337       -0.04057472086275       -0.66083685264545
C            0.80859621007523       -0.83962860168888       -1.01036450364879
C            0.95906647239309       -2.21146841814982       -1.18681056928217
C            2.18602444928031       -2.81558658741413       -1.00326542296454
C            3.26753661058294       -2.01058169044374       -0.67833914345800
N            4.56190869219033       -2.39201439986891       -0.38617290648840
C            4.91697873923342       -3.72784268641912       -0.13774017205297
C            5.36962996449539       -4.10272518699001        1.12375709152999
C            5.69935329224125       -5.42151312894112        1.37234469822320
C            5.56834605057246       -6.37367557799793        0.37475189297961
C            5.10851781340479       -6.00313822555116       -0.87807024320159
C            4.78317615434689       -4.68425895965577       -1.13927659435571
C            4.97703122355323        1.10936304033009        0.25628186141999
C            3.37381505079482        2.36345372527640       -1.95678248849884
C            2.32705941477061        2.69978733520652       -2.78889109614084
C           -1.25401109963083        3.29853962363231       -2.66961508180167
C           -1.42407665633572        2.49927784002838       -1.53818320937149
C           -2.68686370734046        2.13708910937012       -1.12382781620116
C           -3.81109832858206        2.54350550342864       -1.84487170173105
N           -5.07838702219551        2.14761162340023       -1.41959438492483
C           -6.12211917047240        3.01736594191169       -1.15160356233519
C           -6.25078503438204        4.35918392300625       -1.47362140654401
C           -7.43260488432931        4.99541338440179       -1.14538779030329
C           -8.47018374396881        4.30212891162061       -0.53140586030294
C           -8.32620955956704        2.97981349546914       -0.16226406655257
C           -7.12062989608416        2.33370405850841       -0.41885578904297
C           -6.60938835426820        1.01137209506618       -0.16994567974173
C           -6.99321463524256       -0.07361959224601        0.63303684034054
C           -6.29185266481781       -1.30215062398790        0.59216155500318
C           -6.87829088139193       -2.14356372578079        1.60118478728457
C           -6.56482477364163       -3.38149631984910        2.15711136129745
C           -7.34569957124484       -3.87604113904897        3.18175185707559
C           -8.41785009739765       -3.15006008648103        3.69196305386749
C           -8.71638123146660       -1.89422038346737        3.20285220316851
C           -7.94402183265960       -1.40226250523037        2.16196714531980
N           -8.00372435001075       -0.15834404727175        1.56385543099147
C           -8.71331004880200        0.91002821969220        2.14032718453637
C          -10.09983488245100        0.85575286691795        2.23225730495474
C          -10.79000780727438        1.89500134353114        2.83015057974136
C          -10.10511585828828        2.98715539801238        3.33644631867397
C           -8.72369083020886        3.03820264242501        3.24953205749378
C           -8.02494231667125        2.00204052141537        2.65956067288997
C           -5.25084952553992       -1.43968484069824       -0.33955154606406
C           -4.75635968267702       -0.32574705722372       -1.05999228706215
C           -3.70869093242637       -0.82190699466464       -1.91430939474951
C           -2.93456271510301       -0.28610296608406       -2.94133517422076
C           -2.03798873272063       -1.09821059741140       -3.60563277472909
C           -1.92116355247537       -2.45037743470692       -3.29978315975382
C           -2.71584017148041       -3.02448260766909       -2.32764117649387
C           -3.59805522991263       -2.20514061818545       -1.63999759823265
N           -4.53225740291431       -2.56085238865853       -0.68700098700022
C           -4.89305995746199       -3.89785078222427       -0.45156232542327
C           -6.18338607305853       -4.32973247103478       -0.74305103448976
C           -6.52972764561841       -5.65107422747180       -0.53383793218705
C           -5.59365219557261       -6.54918557693868       -0.04787730243386
C           -4.30666079045888       -6.12187196145465        0.23357921451312
C           -3.95200453659130       -4.79959098517922        0.03493076602523
C           -5.39251457990005        0.91270193804559       -0.88075716213907
C           -3.64824450355168        3.33597930393100       -2.98173767256626
C           -2.38305382675390        3.70600646041939       -3.38317948424103
H            0.41992485041012        4.43415921107821       -0.59612263207416
H            2.28431053509729        3.82943298408227        0.89695179557158
H            4.20488503717372        5.13466936913268        0.72124030577752
H            5.85636734950162        6.29853706641123        2.13165822416060
H            7.71277570465515        5.06347095709583        3.16098711787034
H            8.04378796752227        2.68441701128847        2.71578579564222
H            7.26660914538874       -3.87381188368229       -0.69831608308625
H            9.49410124351459       -4.82988071495210       -0.44210682118787
H           11.30937434490422       -3.55821116604140        0.61396528212237
H           10.92727667499829       -1.24789471678351        1.39860571604072
H            8.77429288129707        2.08411539112896       -0.35169817315487
H           10.38790382397218        3.90931379331331        0.04155778957010
H           11.83982358144510        3.86424527556870        2.03590924279100
H           11.67535403281336        1.99489506804591        3.63579494824812
H           10.04397092792093        0.18127056534311        3.25355552695789
H            1.71850836676375        1.00693355428606       -0.47520192012669
H           -0.17025538154880       -0.40087537241748       -1.13927706871749
H            0.09869024836322       -2.80760368848326       -1.44970438818038
H            2.29592501125233       -3.88592484243801       -1.08988213013256
H            5.46585174144735       -3.35480239690136        1.89618798440005
H            6.05635577789938       -5.70808345665962        2.35010083459277
H            5.82599334720799       -7.40323125781883        0.57234274893917
H            5.01018889496005       -6.74254539028288       -1.65924018997867
H            4.44743645620447       -4.38425460228218       -2.12095001863593
H            4.20633188128142        1.78490574120819       -2.32702640440326
H            2.32946824678224        2.39593583070413       -3.82452691690601
H           -0.56719711846478        2.14258586576671       -0.98887217442798
H           -2.81616946196925        1.51920229687619       -0.24819534038581
H           -5.45685933632294        4.89912938676626       -1.96535613065189
H           -7.55915312233103        6.03908723644745       -1.39138703443553
H           -9.40347366079609        4.80807377236897       -0.33423865168308
H           -9.15141224548931        2.45976909027393        0.29347788490635
H           -5.71066069071324       -3.94439632196532        1.82302677193644
H           -7.10890923131342       -4.83994920247418        3.60733908242506
H           -9.00656049015641       -3.56195341211474        4.49801627818464
H           -9.51253129959570       -1.30514005123650        3.63227211079278
H          -10.62806213122069        0.00915950388275        1.81892460635359
H          -11.86729996515402        1.85390312030736        2.89499408575793
H          -10.64815859613861        3.79765057071511        3.79859189820181
H           -8.18725040235907        3.88687678612896        3.64641765164599
H           -6.94793916421178        2.03139520511662        2.59208689980743
H           -3.04141105372803        0.73915258953291       -3.24951581874634
H           -1.42798797287815       -0.67828432278516       -4.39127911718339
H           -1.22019655884993       -3.06209636591283       -3.84795683818851
H           -2.66765942749417       -4.08390636058657       -2.12530533845450
H           -6.90516663828383       -3.62365933704129       -1.12488446667576
H           -7.53305482365641       -5.98223356254846       -0.75550384002762
H           -5.86692454241889       -7.58108393286740        0.11292836150121
H           -3.57624444648288       -6.81896117493434        0.61711532490105
H           -2.95715754795674       -4.45438031371282        0.27513523329140
H           -4.51059067853650        3.61656535340732       -3.56671134780639
H           -2.23910609137762        4.30331811005003       -4.27132235407542

          :  Hamiltonian                  GFN2-xTB          :
         :: gradient norm              0.000072715305 Eh/a0 ::
         :: HOMO-LUMO gap              1.716274982145 eV    ::
         :: SCC energy              -234.649801394729 Eh    ::
         :: -> dispersion             -0.247722325460 Eh    ::
         :: repulsion energy           4.285145347310 Eh    ::

    * Orbital Energies and Occupations

         #    Occupation            Energy/Eh            Energy/eV
      -------------------------------------------------------------
         1        2.0000           -0.7008625             -19.0714
       ...           ...                  ...                  ...
       202        2.0000           -0.3924002             -10.6778
       203        2.0000           -0.3906074             -10.6290
       204        2.0000           -0.3897008             -10.6043
       205        2.0000           -0.3887225             -10.5777
       206        2.0000           -0.3882007             -10.5635
       207        2.0000           -0.3869268             -10.5288
       208        2.0000           -0.3867470             -10.5239
       209        2.0000           -0.3708731             -10.0920
       210        2.0000           -0.3687735             -10.0348
       211        2.0000           -0.3519600              -9.5773
       212        2.0000           -0.3509724              -9.5504
       213        2.0000           -0.3494342              -9.5086
       214        2.0000           -0.3490410              -9.4979 (HOMO)
       215                         -0.2859691              -7.7816 (LUMO)
       216                         -0.2484275              -6.7601
       217                         -0.2449301              -6.6649
       218                         -0.2432553              -6.6193
       219                         -0.2423516              -6.5947
       220                         -0.2387523              -6.4968
       221                         -0.2362067              -6.4275
       222                         -0.2356716              -6.4130
       223                         -0.2338214              -6.3626
       224                         -0.2332970              -6.3483
       225                         -0.2322590              -6.3201
       ...                                ...                  ...
       420                          0.7785886              21.1865
      -------------------------------------------------------------
                  HL-Gap            0.0630720 Eh            1.7163 eV

     #   Z          covCN         q      C6AA      α(0)
     1   8 O        0.858    -0.371    21.114     6.161
     2   6 C        2.828     0.227    23.243     7.900
     3   6 C        2.973    -0.013    28.322     8.729
     4   6 C        2.921    -0.027    28.679     8.782
     5   6 C        2.920    -0.043    29.057     8.840
     6   6 C        2.916     0.073    26.365     8.420
     7   7 N        2.804    -0.041    22.039     6.972
     8   6 C        3.077     0.044    26.942     8.510
     9   6 C        2.911    -0.052    29.296     8.875
    10   6 C        2.924    -0.036    28.891     8.815
    11   6 C        2.920    -0.041    29.025     8.835
    12   6 C        2.914    -0.039    28.973     8.827
    13   6 C        3.063    -0.015    28.312     8.725
    14   6 C        3.054    -0.047    29.113     8.849
    15   6 C        3.066     0.042    26.996     8.520
    16   6 C        3.056    -0.048    29.142     8.853
    17   6 C        3.060    -0.015    28.335     8.729
    18   6 C        2.914    -0.040    29.001     8.831
    19   6 C        2.919    -0.042    29.035     8.836
    20   6 C        2.924    -0.036    28.891     8.815
    21   6 C        2.911    -0.052    29.291     8.875
    22   6 C        3.087     0.044    26.924     8.506
    23   7 N        2.803    -0.045    22.104     6.983
    24   6 C        2.917     0.069    26.447     8.433
    25   6 C        2.922    -0.036    28.887     8.814
    26   6 C        2.920    -0.026    28.642     8.776
    27   6 C        2.920    -0.031    28.782     8.798
    28   6 C        2.920    -0.028    28.706     8.786
    29   6 C        2.922    -0.041    29.017     8.834
    30   6 C        3.065     0.042    27.005     8.521
    31   6 C        3.053    -0.048    29.136     8.852
    32   6 C        3.058    -0.016    28.353     8.732
    33   6 C        2.915    -0.041    29.014     8.833
    34   6 C        2.919    -0.041    29.014     8.833
    35   6 C        2.924    -0.036    28.891     8.814
    36   6 C        2.911    -0.052    29.281     8.873
    37   6 C        3.084     0.044    26.926     8.506
    38   7 N        2.803    -0.043    22.061     6.976
    39   6 C        2.917     0.069    26.446     8.433
    40   6 C        2.922    -0.036    28.907     8.817
    41   6 C        2.920    -0.026    28.647     8.777
    42   6 C        2.920    -0.032    28.795     8.800
    43   6 C        2.920    -0.028    28.707     8.786
    44   6 C        2.922    -0.041    29.028     8.835
    45   6 C        3.064     0.040    27.032     8.526
    46   6 C        2.921    -0.036    28.906     8.817
    47   6 C        2.924    -0.017    28.441     8.746
    48   6 C        2.971    -0.018    28.461     8.751
    49   6 C        2.920    -0.025    28.640     8.776
    50   6 C        2.921    -0.038    28.950     8.823
    51   6 C        2.915     0.076    26.306     8.411
    52   7 N        2.802    -0.039    21.990     6.965
    53   6 C        3.074     0.043    26.950     8.512
    54   6 C        2.911    -0.052    29.294     8.875
    55   6 C        2.924    -0.036    28.886     8.814
    56   6 C        2.920    -0.041    29.008     8.832
    57   6 C        2.914    -0.039    28.968     8.826
    58   6 C        3.064    -0.014    28.289     8.722
    59   6 C        3.052    -0.046    29.099     8.847
    60   6 C        3.065     0.042    26.996     8.520
    61   6 C        3.055    -0.048    29.127     8.851
    62   6 C        3.060    -0.015    28.333     8.729
    63   6 C        2.914    -0.040    28.997     8.830
    64   6 C        2.920    -0.041    29.030     8.835
    65   6 C        2.924    -0.036    28.884     8.813
    66   6 C        2.911    -0.052    29.289     8.874
    67   6 C        3.087     0.044    26.919     8.505
    68   7 N        2.803    -0.045    22.104     6.983
    69   6 C        2.918     0.069    26.448     8.433
    70   6 C        2.922    -0.041    29.014     8.833
    71   6 C        2.920    -0.028    28.702     8.785
    72   6 C        2.920    -0.031    28.780     8.797
    73   6 C        2.920    -0.026    28.644     8.777
    74   6 C        2.922    -0.036    28.891     8.815
    75   6 C        3.064     0.042    26.998     8.520
    76   6 C        3.055    -0.048    29.124     8.851
    77   6 C        3.059    -0.016    28.350     8.732
    78   6 C        2.915    -0.040    28.998     8.830
    79   6 C        2.919    -0.040    28.983     8.828
    80   6 C        2.923    -0.033    28.821     8.804
    81   6 C        2.911    -0.051    29.274     8.872
    82   6 C        3.085     0.044    26.913     8.504
    83   7 N        2.803    -0.043    22.070     6.977
    84   6 C        2.917     0.069    26.447     8.433
    85   6 C        2.922    -0.036    28.905     8.817
    86   6 C        2.920    -0.026    28.644     8.777
    87   6 C        2.920    -0.032    28.789     8.799
    88   6 C        2.920    -0.028    28.704     8.786
    89   6 C        2.922    -0.041    29.023     8.835
    90   6 C        3.064     0.040    27.043     8.527
    91   6 C        2.918    -0.043    29.065     8.841
    92   6 C        2.925    -0.018    28.449     8.747
    93   1 H        0.926     0.039     2.460     2.453
    94   1 H        0.926     0.046     2.371     2.408
    95   1 H        0.926     0.028     2.621     2.532
    96   1 H        0.926     0.028     2.621     2.532
    97   1 H        0.926     0.025     2.662     2.552
    98   1 H        0.926     0.027     2.629     2.536
    99   1 H        0.926     0.027     2.630     2.536
   100   1 H        0.926     0.024     2.671     2.556
   101   1 H        0.926     0.027     2.635     2.538
   102   1 H        0.926     0.026     2.646     2.544
   103   1 H        0.926     0.039     2.462     2.454
   104   1 H        0.926     0.037     2.486     2.465
   105   1 H        0.926     0.036     2.506     2.475
   106   1 H        0.926     0.036     2.502     2.474
   107   1 H        0.926     0.041     2.439     2.442
   108   1 H        0.926     0.021     2.720     2.579
   109   1 H        0.926     0.023     2.693     2.566
   110   1 H        0.926     0.029     2.598     2.521
   111   1 H        0.926     0.027     2.634     2.538
   112   1 H        0.926     0.040     2.453     2.449
   113   1 H        0.926     0.037     2.494     2.470
   114   1 H        0.926     0.035     2.513     2.479
   115   1 H        0.926     0.036     2.505     2.475
   116   1 H        0.926     0.041     2.433     2.439
   117   1 H        0.926     0.046     2.369     2.407
   118   1 H        0.926     0.053     2.284     2.363
   119   1 H        0.926     0.044     2.390     2.418
   120   1 H        0.926     0.045     2.388     2.417
   121   1 H        0.926     0.029     2.594     2.518
   122   1 H        0.926     0.029     2.603     2.523
   123   1 H        0.926     0.026     2.647     2.544
   124   1 H        0.926     0.028     2.616     2.529
   125   1 H        0.926     0.027     2.623     2.533
   126   1 H        0.926     0.025     2.664     2.553
   127   1 H        0.926     0.027     2.628     2.535
   128   1 H        0.926     0.026     2.641     2.541
   129   1 H        0.926     0.041     2.432     2.439
   130   1 H        0.926     0.037     2.495     2.470
   131   1 H        0.926     0.036     2.501     2.473
   132   1 H        0.926     0.037     2.489     2.467
   133   1 H        0.926     0.038     2.472     2.459
   134   1 H        0.926     0.025     2.656     2.549
   135   1 H        0.926     0.027     2.636     2.539
   136   1 H        0.926     0.028     2.614     2.528
   137   1 H        0.926     0.026     2.646     2.544
   138   1 H        0.926     0.040     2.451     2.448
   139   1 H        0.926     0.037     2.488     2.467
   140   1 H        0.926     0.036     2.508     2.477
   141   1 H        0.926     0.036     2.504     2.474
   142   1 H        0.926     0.041     2.434     2.440
   143   1 H        0.926     0.049     2.332     2.388
   144   1 H        0.926     0.064     2.156     2.296

molecular dipole:
                 x           y           z       tot (Debye)
 q only:       -0.329      -0.781       1.314
   full:       -0.342      -0.799       1.454       4.306

 projected vibrational frequencies (cm⁻¹)
eigval :       -0.00    -0.00    -0.00    -0.00     0.00     0.00
eigval :        4.99     7.02     9.93    15.41    17.30    24.34
eigval :       25.50    26.60    26.76    36.34    37.94    46.69
eigval :       48.22    52.18    53.06    55.79    61.51    65.75
eigval :       70.22    71.34    72.55    74.50    77.52    84.25
eigval :       86.27    90.54    99.54   106.00   110.82   114.28
eigval :      117.81   126.35   134.32   150.72   151.10   158.61
eigval :      160.02   162.93   167.22   168.28   179.12   188.85
eigval :      194.21   198.30   207.65   211.28   223.82   228.77
eigval :      229.68   230.74   232.54   237.89   242.47   248.61
eigval :      252.38   253.72   269.51   275.93   279.87   289.37
eigval :      296.88   306.60   329.49   343.10   349.58   354.73
eigval :      357.70   364.84   374.31   378.17   378.39   379.36
eigval :      379.43   383.85   385.99   387.21   389.92   391.40
eigval :      395.47   398.98   407.51   408.78   410.84   411.76
eigval :      423.85   429.29   440.95   444.51   450.98   451.92
eigval :      454.99   458.82   470.89   472.00   474.53   478.00
eigval :      486.11   496.40   537.44   538.00   542.22   543.13
eigval :      544.26   545.23   548.12   555.46   556.35   556.62
eigval :      563.53   573.44   575.98   581.36   581.51   582.05
eigval :      585.83   590.38   590.99   594.95   595.03   602.56
eigval :      607.78   608.61   612.68   617.96   622.35   626.90
eigval :      629.40   630.23   641.12   647.44   651.25   651.37
eigval :      662.94   668.12   668.76   669.39   675.54   675.79
eigval :      677.61   687.12   694.15   698.21   698.64   698.79
eigval :      701.13   702.07   702.30   729.97   730.48   730.67
eigval :      732.63   749.06   751.89   764.87   765.28   768.11
eigval :      768.20   769.37   773.03   774.56   774.70   775.86
eigval :      776.13   777.17   820.21   827.58   844.95   845.41
eigval :      846.19   846.54   859.08   861.31   866.11   867.83
eigval :      868.36   868.63   869.05   869.98   877.62   878.32
eigval :      879.39   879.58   880.05   882.51   898.19   899.05
eigval :      900.22   900.57   901.44   903.67   904.77   905.00
eigval :      905.96   906.69   907.09   912.69   912.99   916.45
eigval :      917.07   920.24   922.00   922.06   922.57   923.20
eigval :      924.08   924.64   926.37   928.75   928.96   928.99
eigval :      929.24   933.05   933.22   933.82   934.66   935.17
eigval :      936.49   938.37   956.32   986.94   987.05   993.64
eigval :      994.87  1005.04  1012.10  1018.53  1027.11  1078.42
eigval :     1078.43  1078.85  1078.97  1079.70  1079.80  1081.24
eigval :     1081.44  1085.60  1085.79  1091.47  1091.89  1092.26
eigval :     1093.15  1116.39  1116.40  1116.93  1117.01  1131.96
eigval :     1135.49  1143.99  1144.54  1147.66  1148.28  1149.78
eigval :     1150.22  1173.63  1178.63  1178.72  1179.80  1180.00
eigval :     1180.92  1180.97  1181.01  1181.09  1182.62  1184.18
eigval :     1184.98  1187.09  1188.63  1190.82  1191.14  1195.42
eigval :     1209.27  1213.49  1215.19  1215.73  1216.52  1219.56
eigval :     1246.84  1248.46  1250.07  1252.38  1252.91  1253.79
eigval :     1261.07  1262.31  1264.63  1274.08  1274.11  1274.82
eigval :     1274.86  1291.61  1293.38  1296.77  1296.85  1299.26
eigval :     1299.59  1315.62  1315.79  1315.85  1316.02  1316.11
eigval :     1325.86  1330.14  1331.35  1335.92  1336.45  1341.93
eigval :     1342.22  1361.57  1362.08  1366.34  1367.03  1367.11
eigval :     1367.36  1388.26  1388.44  1392.50  1395.81  1396.07
eigval :     1397.26  1404.15  1410.26  1429.16  1429.89  1433.76
eigval :     1434.31  1434.96  1435.22  1436.99  1437.42  1439.36
eigval :     1439.89  1439.98  1440.54  1475.02  1475.80  1476.06
eigval :     1476.40  1480.79  1481.31  1481.81  1482.13  1484.08
eigval :     1484.58  1486.87  1488.88  1554.70  1558.38  1566.28
eigval :     1566.84  1569.15  1569.43  1581.21  1581.52  1581.95
eigval :     1582.05  1582.56  1584.47  1584.73  1588.03  1590.22
eigval :     1590.38  1591.65  1591.82  1594.85  1594.98  1595.18
eigval :     1595.32  1601.39  1602.00  1603.22  1603.42  1604.65
eigval :     1604.75  1693.53  3076.86  3077.36  3078.12  3078.27
eigval :     3078.31  3078.69  3078.72  3079.18  3079.25  3079.27
eigval :     3079.72  3083.14  3083.25  3083.35  3083.50  3084.33
eigval :     3084.76  3085.07  3086.51  3087.07  3088.86  3090.00
eigval :     3090.25  3090.31  3090.68  3091.39  3092.27  3093.01
eigval :     3094.14  3094.43  3094.85  3094.89  3095.01  3095.09
eigval :     3095.58  3096.02  3097.74  3099.53  3100.06  3100.60
eigval :     3100.70  3100.83  3100.92  3102.01  3102.62  3106.97
eigval :     3128.52  3129.41  3137.31  3138.12  3142.00  3144.41

   temp. (K)  partition function   enthalpy   heat capacity  entropy
                                   cal/mol     cal/K/mol   cal/K/mol   J/K/mol
 298.15  VIB  0.685E+33            42131.299    268.322    262.842
         ROT  0.520E+09              888.752      2.981     42.863
         INT  0.356E+42            43020.052    271.303    305.705
         TR   0.389E+29             1481.254      4.968     47.037
         TOT                       44501.3057   276.2710   352.7419  1475.8722

       T/K    H(0)-H(T)+PV         H(T)/Eh          T*S/Eh         G(T)/Eh
   ------------------------------------------------------------------------
    298.15    0.709173E-01    0.116818E+01    0.167599E+00    0.100058E+01
   ------------------------------------------------------------------------

         :::::::::::::::::::::::::::::::::::::::::::::::::::::
         ::                  THERMODYNAMIC                  ::
         :::::::::::::::::::::::::::::::::::::::::::::::::::::
         :: total free energy        -229.364075833549 Eh   ::
         ::.................................................::
         :: total energy             -230.364656047420 Eh   ::
         :: zero point energy           1.097261942635 Eh   ::
         :: G(RRHO) w/o ZPVE           -0.096681728764 Eh   ::
         :: G(RRHO) contrib.            1.000580213871 Eh   ::
         :::::::::::::::::::::::::::::::::::::::::::::::::::::

           -------------------------------------------------
          | TOTAL ENERGY             -230.364656047420 Eh   |
          | TOTAL ENTHALPY           -229.196476760121 Eh   |
          | TOTAL FREE ENERGY        -229.364075833549 Eh   |
          | GRADIENT NORM               0.000072717002 Eh/α |
          | HOMO-LUMO GAP               1.716275524739 eV   |
           -------------------------------------------------

 * finished run on 2025/09/02 at 09:03:55.043
