   * xtb version 6.7.1 (edcfbbe) compiled by 'albert@albert-system' on 2024-07-22

   ID    Z sym.   atoms
    1    6 C      1-4, 6-23, 25-38
    2   15 P      5, 24
    3    1 H      39-66

          program call               : xtb data2507/gas/P–Cu–C/P–Cu–C_gas_S0_crest.xyz --gfn 2 --ohess vtight --parallel 40 --molden --ceasefiles --namespace data2507/gas/P–Cu–C/P–Cu–C_gas_S0_finalOpt
          :  Hamiltonian                  GFN2-xTB          :
 * total energy  :   -96.3505240 Eh     change       -0.8682022E-08 Eh
 * total energy  :   -96.3505251 Eh     change       -0.1060050E-05 Eh
 * total energy  :   -96.3505261 Eh     change       -0.9728150E-06 Eh
 * total energy  :   -96.3505284 Eh     change       -0.2274634E-05 Eh
 * total energy  :   -96.3505302 Eh     change       -0.1820886E-05 Eh
 * total energy  :   -96.3505311 Eh     change       -0.9077898E-06 Eh
 * total energy  :   -96.3505319 Eh     change       -0.7915787E-06 Eh
 * total energy  :   -96.3505328 Eh     change       -0.9213967E-06 Eh
 * total energy  :   -96.3505336 Eh     change       -0.8121190E-06 Eh
 * total energy  :   -96.3505342 Eh     change       -0.5655522E-06 Eh
 * total energy  :   -96.3505345 Eh     change       -0.3723536E-06 Eh
 * total energy  :   -96.3505348 Eh     change       -0.2201978E-06 Eh
 * total energy  :   -96.3505350 Eh     change       -0.1858444E-06 Eh
 * total energy  :   -96.3505351 Eh     change       -0.1590464E-06 Eh
 * total energy  :   -96.3505351 Eh     change       -0.2905907E-08 Eh
   *** GEOMETRY OPTIMIZATION CONVERGED AFTER 15 ITERATIONS ***

 final structure:
================
66
 xtb: 6.7.1 (edcfbbe)
C            1.12769334592101       -3.94864539759506        2.36509217951087
C            0.63114344417010       -2.77872686400376        2.91506605816897
C            0.71031559397131       -1.58878585779546        2.21365945688472
C            1.31010333838388       -1.56016774552396        0.96040801569430
P            1.27433624111826       -0.11119651332034       -0.13279643014699
C            3.06476972735835        0.07756776237731       -0.54520375379515
C            4.12529399681583       -0.54744449316780        0.09843708855233
C            5.42546042401753       -0.27589714229180       -0.28954807043419
C            5.67877448663627        0.61896184059649       -1.31569071509841
C            4.62565278399839        1.24603976407046       -1.96163457140782
C            3.32673835312571        0.97206999223478       -1.57904892883139
C            1.20608562047277        1.32438645593818        0.99461610011972
C            1.97855709356886        1.38445912175970        2.14701976915061
C            1.92004024937351        2.49161578818644        2.97286793946398
C            1.09737445331350        3.55567200623508        2.63959289564712
C            0.35275345090250        3.51833625534137        1.47524308831579
C            0.39638460253713        2.40842133481099        0.63559625766490
C           -0.37928964539220        2.41597881179558       -0.61685596767743
C           -0.32804996790417        3.53221816130125       -1.44764405688188
C           -1.07197750794877        3.58369185433220       -2.61189187816657
C           -1.90128936616223        2.52762496707077       -2.95402204827716
C           -1.96755401470572        1.41445324401661       -2.13690257981277
C           -1.19611242305555        1.34026747147654       -0.98462155856316
P           -1.27589197629998       -0.10299937685211        0.13223429818371
C           -3.06578857057002        0.09688555849722        0.54197846904229
C           -4.12964549339701       -0.51902690479459       -0.10478022366000
C           -5.42858824306439       -0.23804416963376        0.28083882649151
C           -5.67721176361037        0.65722469858842        1.30767716090371
C           -4.62063674572621        1.27522336703539        1.95685989182505
C           -3.32310953933317        0.99180345284885        1.57671589256153
C           -1.32002420945921       -1.54428506581065       -0.97083905117042
C           -1.80619881465850       -2.72844212637266       -0.42201930847687
C           -1.72804965561477       -3.91139044382539       -1.13098928334259
C           -1.15068561633641       -3.92478496462498       -2.39063350322667
C           -0.64721968775166       -2.75424858692382       -2.93294768246747
C           -0.71988915819444       -1.56835686627092       -2.22401149285260
C            1.78908507518916       -2.74358923294906        0.40375552874227
C            1.70447142394897       -3.93054728328166        1.10524001004746
H            1.05832354106842       -4.87628424500034        2.91451750041525
H            0.17114540724182       -2.79457438989490        3.89296183091058
H            0.30823764389583       -0.67951310863940        2.64037205537838
H            3.93800883736869       -1.24949008459071        0.89919719784570
H            6.24727865313983       -0.76481459070017        0.21448167270729
H            6.69660394319910        0.82594305711573       -1.61281928847819
H            4.81973305465594        1.94354562988147       -2.76393213039648
H            2.49267239121719        1.45274577203261       -2.07723282191840
H            2.62807993441833        0.55527920505903        2.39229763810854
H            2.51558815276170        2.52670507090542        3.87354016297560
H            1.04273583501184        4.42050100070661        3.28479525525719
H           -0.28606926470089        4.35105727140139        1.21591214677882
H            0.31599910269921        4.35870219425498       -1.18139150252940
H           -1.01155543853236        4.45331439624416       -3.25009545437668
H           -2.49621636819383        2.57379023872296       -3.85460513852839
H           -2.62252713877030        0.59155934808730       -2.38881941239055
H           -3.94614726440985       -1.22123072513432       -0.90627283162755
H           -6.25296882378468       -0.72002886745686       -0.22566608289544
H           -6.69400867657945        0.87193422506467        1.60286650139244
H           -4.81123747526556        1.97309442695877        2.75968420611130
H           -2.48634543928100        1.46520924473178        2.07735077364015
H           -2.24023076660299       -2.71048878461863        0.56989269472318
H           -2.10831600121531       -4.82596456053249       -0.69904084268806
H           -1.08590409187298       -4.84939569150431       -2.94570081531877
H           -0.18651846071988       -2.76658678778318       -3.91056160621526
H           -0.31244817591790       -0.65870885929009       -2.64480128093105
H            2.22265302134556       -2.72188608339716       -0.58828114751172
H            2.07928155368415       -4.84451676710327        0.66727709588215

          :  Hamiltonian                  GFN2-xTB          :
         :: gradient norm              0.000116468295 Eh/a0 ::
         :: HOMO-LUMO gap              2.903650472539 eV    ::
         :: SCC energy               -98.173618120508 Eh    ::
         :: -> dispersion             -0.107193517910 Eh    ::
         :: repulsion energy           1.823083005476 Eh    ::

    * Orbital Energies and Occupations

         #    Occupation            Energy/Eh            Energy/eV
      -------------------------------------------------------------
         1        2.0000           -0.6673710             -18.1601
       ...           ...                  ...                  ...
        79        2.0000           -0.4085903             -11.1183
        80        2.0000           -0.4037795             -10.9874
        81        2.0000           -0.4033175             -10.9748
        82        2.0000           -0.4025850             -10.9549
        83        2.0000           -0.4025377             -10.9536
        84        2.0000           -0.4021102             -10.9420
        85        2.0000           -0.4012850             -10.9195
        86        2.0000           -0.3982941             -10.8381
        87        2.0000           -0.3956825             -10.7671
        88        2.0000           -0.3893875             -10.5958
        89        2.0000           -0.3863346             -10.5127
        90        2.0000           -0.3667020              -9.9785
        91        2.0000           -0.3579612              -9.7406 (HOMO)
        92                         -0.2512540              -6.8370 (LUMO)
        93                         -0.2395158              -6.5176
        94                         -0.2388059              -6.4982
        95                         -0.2323092              -6.3215
        96                         -0.2292353              -6.2378
        97                         -0.2269732              -6.1763
        98                         -0.2233062              -6.0765
        99                         -0.2217677              -6.0346
       100                         -0.2205916              -6.0026
       101                         -0.2193697              -5.9694
       102                         -0.2176932              -5.9237
       ...                                ...                  ...
       190                          1.4797663              40.2665
      -------------------------------------------------------------
                  HL-Gap            0.1067071 Eh            2.9036 eV

     #   Z          covCN         q      C6AA      α(0)
     1   6 C        2.920    -0.029    28.734     8.790
     2   6 C        2.919    -0.029    28.726     8.789
     3   6 C        2.974    -0.021    28.533     8.762
     4   6 C        2.922     0.036    27.205     8.553
     5  15 P        4.154    -0.179   168.459    23.315
     6   6 C        2.917     0.024    27.477     8.596
     7   6 C        2.950    -0.026    28.651     8.779
     8   6 C        2.920    -0.029    28.728     8.789
     9   6 C        2.920    -0.029    28.728     8.789
    10   6 C        2.918    -0.029    28.725     8.789
    11   6 C        3.037    -0.024    28.559     8.765
    12   6 C        2.933     0.034    27.242     8.560
    13   6 C        2.979    -0.025    28.613     8.774
    14   6 C        2.919    -0.031    28.776     8.797
    15   6 C        2.918    -0.029    28.727     8.789
    16   6 C        2.925    -0.034    28.840     8.807
    17   6 C        3.065     0.017    27.576     8.611
    18   6 C        3.065     0.017    27.576     8.611
    19   6 C        2.925    -0.034    28.840     8.807
    20   6 C        2.918    -0.029    28.728     8.789
    21   6 C        2.919    -0.031    28.776     8.797
    22   6 C        2.979    -0.025    28.613     8.774
    23   6 C        2.933     0.034    27.242     8.560
    24  15 P        4.154    -0.179   168.458    23.315
    25   6 C        2.917     0.024    27.478     8.596
    26   6 C        2.950    -0.026    28.652     8.779
    27   6 C        2.920    -0.029    28.728     8.789
    28   6 C        2.920    -0.029    28.728     8.790
    29   6 C        2.918    -0.029    28.725     8.789
    30   6 C        3.037    -0.024    28.559     8.765
    31   6 C        2.922     0.036    27.204     8.553
    32   6 C        3.035    -0.024    28.558     8.765
    33   6 C        2.918    -0.030    28.747     8.792
    34   6 C        2.920    -0.029    28.734     8.790
    35   6 C        2.919    -0.029    28.726     8.789
    36   6 C        2.974    -0.021    28.533     8.762
    37   6 C        3.035    -0.024    28.558     8.765
    38   6 C        2.918    -0.030    28.747     8.792
    39   1 H        0.926     0.029     2.596     2.520
    40   1 H        0.926     0.030     2.586     2.515
    41   1 H        0.925     0.045     2.390     2.417
    42   1 H        0.925     0.032     2.555     2.500
    43   1 H        0.926     0.029     2.595     2.519
    44   1 H        0.926     0.030     2.589     2.516
    45   1 H        0.926     0.030     2.592     2.517
    46   1 H        0.925     0.036     2.505     2.475
    47   1 H        0.925     0.040     2.446     2.446
    48   1 H        0.926     0.031     2.566     2.505
    49   1 H        0.926     0.031     2.567     2.505
    50   1 H        0.926     0.031     2.568     2.506
    51   1 H        0.926     0.031     2.568     2.506
    52   1 H        0.926     0.031     2.567     2.505
    53   1 H        0.926     0.031     2.566     2.505
    54   1 H        0.925     0.040     2.446     2.446
    55   1 H        0.925     0.032     2.555     2.500
    56   1 H        0.926     0.029     2.595     2.519
    57   1 H        0.926     0.030     2.590     2.516
    58   1 H        0.926     0.030     2.592     2.518
    59   1 H        0.925     0.036     2.506     2.475
    60   1 H        0.925     0.035     2.515     2.480
    61   1 H        0.926     0.029     2.605     2.524
    62   1 H        0.926     0.029     2.596     2.520
    63   1 H        0.926     0.030     2.587     2.515
    64   1 H        0.925     0.044     2.390     2.417
    65   1 H        0.925     0.035     2.516     2.480
    66   1 H        0.926     0.029     2.605     2.524

molecular dipole:
                 x           y           z       tot (Debye)
 q only:        0.003       0.125       0.000
   full:        0.003       0.160      -0.000       0.406

 projected vibrational frequencies (cm⁻¹)
eigval :       -0.00    -0.00    -0.00    -0.00     0.00     0.00
eigval :       19.52    21.15    27.03    33.30    33.41    41.71
eigval :       43.03    53.59    55.37    59.93    72.24    75.80
eigval :       89.75    96.97   121.41   128.55   143.53   179.62
eigval :      181.08   192.83   199.31   204.26   205.80   231.25
eigval :      239.87   243.43   251.38   293.72   307.83   351.11
eigval :      362.30   362.35   370.02   370.25   384.88   399.81
eigval :      403.07   404.89   419.75   426.63   447.91   469.01
eigval :      477.99   480.80   485.55   504.33   519.09   534.07
eigval :      584.59   585.23   585.84   586.03   586.34   653.81
eigval :      654.72   657.12   658.16   667.75   671.17   677.56
eigval :      679.04   692.23   693.77   705.77   705.81   738.05
eigval :      738.54   740.46   741.45   753.86   767.85   785.53
eigval :      870.53   871.70   877.37   877.69   881.96   887.79
eigval :      896.03   896.74   900.53   900.59   915.29   918.84
eigval :      924.06   924.99   927.70   927.95   928.91   930.69
eigval :      931.22   931.42   933.09   933.12   967.34   967.46
eigval :      970.59   971.00   973.26  1047.19  1080.63  1080.75
eigval :     1080.98  1081.07  1090.08  1094.80  1108.21  1108.84
eigval :     1115.13  1116.07  1117.40  1118.41  1118.50  1121.14
eigval :     1121.41  1156.36  1160.22  1181.00  1181.17  1181.19
eigval :     1181.33  1181.44  1181.74  1194.92  1195.77  1197.39
eigval :     1198.38  1235.20  1243.29  1271.77  1272.48  1276.31
eigval :     1276.88  1281.53  1308.79  1313.27  1316.92  1317.24
eigval :     1320.66  1321.14  1407.78  1416.18  1420.58  1420.79
eigval :     1424.64  1424.81  1438.19  1451.95  1452.29  1453.71
eigval :     1454.05  1466.80  1558.58  1567.40  1576.13  1576.17
eigval :     1578.65  1578.71  1579.09  1583.93  1586.30  1586.34
eigval :     1587.38  1587.74  3033.00  3033.14  3047.11  3047.83
eigval :     3055.79  3055.88  3062.55  3062.61  3064.58  3064.83
eigval :     3067.92  3069.97  3070.11  3070.18  3070.23  3070.40
eigval :     3075.19  3075.24  3076.23  3076.42  3077.08  3078.05
eigval :     3086.69  3086.82  3086.88  3087.37  3087.52  3088.57

   temp. (K)  partition function   enthalpy   heat capacity  entropy
                                   cal/mol     cal/K/mol   cal/K/mol   J/K/mol
 298.15  VIB  0.712E+15            19186.168    118.772    119.899
         ROT  0.139E+08              888.752      2.981     35.663
         INT  0.988E+22            20074.920    121.753    155.562
         TR   0.116E+29             1481.254      4.968     44.627
         TOT                       21556.1741   126.7210   200.1891   837.5912

       T/K    H(0)-H(T)+PV         H(T)/Eh          T*S/Eh         G(T)/Eh
   ------------------------------------------------------------------------
    298.15    0.343519E-01    0.544257E+00    0.951163E-01    0.449140E+00
   ------------------------------------------------------------------------

         :::::::::::::::::::::::::::::::::::::::::::::::::::::
         ::                  THERMODYNAMIC                  ::
         :::::::::::::::::::::::::::::::::::::::::::::::::::::
         :: total free energy         -95.901394677938 Eh   ::
         ::.................................................::
         :: total energy              -96.350535115030 Eh   ::
         :: zero point energy           0.509904789429 Eh   ::
         :: G(RRHO) w/o ZPVE           -0.060764352336 Eh   ::
         :: G(RRHO) contrib.            0.449140437093 Eh   ::
         :::::::::::::::::::::::::::::::::::::::::::::::::::::

           -------------------------------------------------
          | TOTAL ENERGY              -96.350535115030 Eh   |
          | TOTAL ENTHALPY            -95.806278375612 Eh   |
          | TOTAL FREE ENERGY         -95.901394677938 Eh   |
          | GRADIENT NORM               0.000116478472 Eh/α |
          | HOMO-LUMO GAP               2.903649122587 eV   |
           -------------------------------------------------

 * finished run on 2025/09/12 at 12:07:18.953
