   * xtb version 6.7.1 (edcfbbe) compiled by 'albert@albert-system' on 2024-07-22

   ID    Z sym.   atoms
    1    6 C      1-4, 6-23, 25-38
    2   15 P      5, 24
    3    1 H      39-66

          program call               : xtb data2507/gas/P–Cu–C/P–Cu–C_gas_S0_finalOpt.xtbopt.xyz --gfn 2 --spinpol --tblite --uhf 2 --ohess vtight --parallel 40 --molden --ceasefiles --namespace data2507/gas/P–Cu–C/P–Cu–C_gas_T1_preOpt
 * total energy  :   -96.2357011 Eh     change        0.1497453E-07 Eh
 * total energy  :   -96.2458262 Eh     change       -0.1012512E-01 Eh
 * total energy  :   -96.2503677 Eh     change       -0.4541478E-02 Eh
 * total energy  :   -96.2526838 Eh     change       -0.2316150E-02 Eh
 * total energy  :   -96.2552344 Eh     change       -0.2550539E-02 Eh
 * total energy  :   -96.2566827 Eh     change       -0.1448339E-02 Eh
 * total energy  :   -96.2577743 Eh     change       -0.1091613E-02 Eh
 * total energy  :   -96.2586989 Eh     change       -0.9245216E-03 Eh
 * total energy  :   -96.2592947 Eh     change       -0.5958429E-03 Eh
 * total energy  :   -96.2596545 Eh     change       -0.3597510E-03 Eh
 * total energy  :   -96.2617607 Eh     change       -0.7682012E-06 Eh
 * total energy  :   -96.2617614 Eh     change       -0.6655578E-06 Eh
 * total energy  :   -96.2617620 Eh     change       -0.6348721E-06 Eh
 * total energy  :   -96.2617628 Eh     change       -0.7467337E-06 Eh
 * total energy  :   -96.2617637 Eh     change       -0.9312778E-06 Eh
 * total energy  :   -96.2617646 Eh     change       -0.8998512E-06 Eh
 * total energy  :   -96.2617652 Eh     change       -0.6392225E-06 Eh
 * total energy  :   -96.2617656 Eh     change       -0.4004915E-06 Eh
 * total energy  :   -96.2617656 Eh     change       -0.8838185E-08 Eh
   *** GEOMETRY OPTIMIZATION CONVERGED AFTER 68 ITERATIONS ***

 final structure:
================
66
 xtb: 6.7.1 (edcfbbe)
C            0.97991506035944       -3.96523438173705        2.65571645592352
C            0.23922069016070       -2.84986505339242        3.01685419180179
C            0.35602467606914       -1.67898311290625        2.29459099880154
C            1.24369108628371       -1.60516541582306        1.22128154366981
P            1.16456102582017       -0.16720412517835        0.14236565081621
C            2.82193688062627        0.00613698953280       -0.62397776722283
C            3.99365619955604       -0.33064345135573        0.05697300943457
C            5.21613960044121       -0.01476592871587       -0.49934832118203
C            5.28911203328352        0.64254025221666       -1.71989530551638
C            4.12345690481925        0.99797152560603       -2.38529580091573
C            2.89556058436244        0.68927893701235       -1.83839399285674
C            0.99019784932949        1.30065145055832        1.16105278108931
C            1.70880272710181        1.36563599067516        2.36161585049901
C            1.73649053988435        2.51695437194096        3.10773055652421
C            1.08384792156835        3.65772108885178        2.63045628367081
C            0.42842601191318        3.62619042246567        1.42132154195236
C            0.36423403520442        2.46581841947104        0.63960669495117
C           -0.34575867324881        2.47255469116162       -0.62566733985597
C           -0.40145706409865        3.63845958161481       -1.39977464233427
C           -1.05670311515157        3.68270560748789       -2.60860531341726
C           -1.71776656020003        2.54992620735565       -3.09324263645294
C           -1.69847641597465        1.39356717530789       -2.35468378463750
C           -0.98026514570882        1.31545659118395       -1.15467409772853
P           -1.16530063820025       -0.15770857514725       -0.14558949276243
C           -2.82122024118168        0.02276213456937        0.62223007390857
C           -3.99546974776609       -0.30132166637680       -0.06050159822174
C           -5.21553493355026        0.01987655248092        0.49810096480029
C           -5.28350054775503        0.67007069148581        1.72273595846810
C           -4.11517943185944        1.01293030104805        2.39003981917478
C           -2.88964869936249        0.69882594431937        1.84089484554804
C           -1.25505701590019       -1.58799522261012       -1.23381357204630
C           -1.97311348051026       -2.72041747905973       -0.85530218357112
C           -1.85986296837288       -3.88494749019286       -1.58922538018599
C           -1.00874109093549       -3.94049434189736       -2.68369561629241
C           -0.26011551673537       -2.82816659539306       -3.03779936197065
C           -0.36824327709602       -1.66121475945830       -2.30786392261657
C            1.95368808592030       -2.74024800985140        0.83560594159983
C            1.83179873589490       -3.90868847092155        1.56188872186532
H            0.88287964219312       -4.88267497040459        3.21700155842864
H           -0.43744414090986       -2.89887952117179        3.85777913821300
H           -0.22143990257583       -0.80326470107100        2.56465622481944
H            3.94066202226059       -0.83523075585420        1.01108878862494
H            6.12348640984377       -0.28002427507267        0.02460984025252
H            6.25116813389005        0.88410541063247       -2.14604679129638
H            4.17759760929619        1.51906291281739       -3.33017651620073
H            1.98038880924943        0.97319951648204       -2.34278670905219
H            2.21765200531814        0.47421388485552        2.70837719422147
H            2.25835373273350        2.54498329670502        4.05288090240755
H            1.09646887237598        4.56652241476131        3.21387777631912
H           -0.08055996777512        4.51551126266577        1.07896272557286
H            0.11401479761373        4.52177875185303       -1.05162899719808
H           -1.06273118736317        4.59539173824556       -3.18604417859790
H           -2.23949594392409        2.58797803327562       -4.03811841785553
H           -2.21387643363907        0.50819157915286       -2.70721973733653
H           -3.94632721933677       -0.80026509761650       -1.01778935427106
H           -6.12488064387301       -0.23553004583584       -0.02728896396746
H           -6.24370567076395        0.91590857250883        2.15063167553072
H           -4.16535189592374        1.52853782883793        3.33814446478367
H           -1.97235190342308        0.97301798589149        2.34681459121396
H           -2.61592835255188       -2.67913607947183        0.01363177284673
H           -2.42719107725765       -4.75840378122122       -1.30224173176348
H           -0.91849647754277       -4.85492655742074       -3.25099048153838
H            0.41595711652250       -2.87658713331481       -3.87923397839250
H            0.21548976824297       -0.78795842223202       -2.57236641254408
H            2.59707204802023       -2.69794332033176       -0.03285751993551
H            2.39289855259891       -4.78432911205939        1.26937021738135

 projected vibrational frequencies (cm⁻¹)
eigval :       -0.00    -0.00     0.00     0.00     0.00     0.00
eigval :       11.20    17.76    24.18    31.40    34.53    35.46
eigval :       42.57    51.35    53.32    56.37    69.79    76.63
eigval :       90.44    92.97   119.29   125.38   154.71   163.62
eigval :      181.63   182.84   187.68   196.62   196.93   206.15
eigval :      238.89   243.54   251.26   293.75   300.27   348.90
eigval :      359.75   362.76   367.36   371.59   372.74   387.03
eigval :      391.08   392.54   398.73   419.77   425.23   426.31
eigval :      454.04   461.62   474.32   489.51   499.80   518.84
eigval :      579.39   580.65   580.89   584.30   584.35   627.28
eigval :      633.73   637.29   641.26   642.73   651.05   664.30
eigval :      668.13   679.48   692.81   709.30   710.47   722.81
eigval :      728.67   732.49   735.75   747.54   757.69   768.72
eigval :      854.80   856.88   861.99   862.39   864.88   866.79
eigval :      879.66   880.91   891.15   891.30   900.74   904.28
eigval :      908.79   913.86   917.41   917.86   920.11   920.54
eigval :      922.09   922.12   928.47   928.49   957.60   958.62
eigval :      967.08   969.73   969.90  1041.75  1054.64  1069.25
eigval :     1069.60  1072.97  1073.01  1074.28  1075.30  1087.36
eigval :     1091.16  1100.69  1101.61  1111.02  1113.60  1115.06
eigval :     1117.98  1149.26  1162.36  1177.14  1177.27  1178.16
eigval :     1178.87  1179.05  1179.89  1187.89  1189.68  1191.21
eigval :     1194.45  1235.98  1236.02  1261.68  1263.96  1267.99
eigval :     1270.37  1271.55  1321.74  1322.24  1325.43  1326.65
eigval :     1332.23  1338.85  1393.35  1396.67  1409.57  1414.56
eigval :     1415.81  1420.19  1422.17  1423.01  1428.08  1431.68
eigval :     1440.20  1441.33  1505.00  1511.00  1531.74  1533.76
eigval :     1538.76  1551.08  1555.51  1555.62  1556.82  1557.88
eigval :     1563.01  1576.25  3035.73  3036.10  3038.84  3039.20
eigval :     3043.54  3043.76  3061.30  3061.55  3065.85  3066.07
eigval :     3069.61  3072.63  3074.71  3074.74  3075.14  3075.22
eigval :     3077.27  3078.58  3078.78  3080.24  3080.52  3080.85
eigval :     3088.16  3090.14  3091.31  3091.88  3093.21  3093.74

   temp. (K)  partition function   enthalpy   heat capacity  entropy
                                   cal/mol     cal/K/mol   cal/K/mol   J/K/mol
 298.15  VIB  0.365E+16            19578.331    120.357    122.891
         ROT  0.136E+08              888.752      2.981     35.625
         INT  0.496E+23            20467.083    123.338    158.516
         TR   0.116E+29             1481.254      4.968     44.627
         TOT                       21948.3370   128.3060   203.1431   849.9506

       T/K    H(0)-H(T)+PV         H(T)/Eh          T*S/Eh         G(T)/Eh
   ------------------------------------------------------------------------
    298.15    0.349769E-01    0.540896E+00    0.965198E-01    0.444376E+00
   ------------------------------------------------------------------------

         :::::::::::::::::::::::::::::::::::::::::::::::::::::
         ::                  THERMODYNAMIC                  ::
         :::::::::::::::::::::::::::::::::::::::::::::::::::::
         :: total free energy         -95.817389228291 Eh   ::
         ::.................................................::
         :: total energy              -96.261765647841 Eh   ::
         :: zero point energy           0.505919343896 Eh   ::
         :: G(RRHO) w/o ZPVE           -0.061542924346 Eh   ::
         :: G(RRHO) contrib.            0.444376419550 Eh   ::
         :::::::::::::::::::::::::::::::::::::::::::::::::::::

           -------------------------------------------------
          | TOTAL ENERGY              -96.261765647841 Eh   |
          | TOTAL ENTHALPY            -95.720869402554 Eh   |
          | TOTAL FREE ENERGY         -95.817389228291 Eh   |
          | GRADIENT NORM               0.000043070613 Eh/α |
           -------------------------------------------------

 * finished run on 2025/09/12 at 12:07:27.266
