   * xtb version 6.7.1 (edcfbbe) compiled by 'albert@albert-system' on 2024-07-22

   ID    Z sym.   atoms
    1    6 C      1-4, 6-23, 25-38
    2   15 P      5, 24
    3    1 H      39-66

          program call               : xtb data2507/gas/P–Cu–C/P–Cu–C.xyz --gfn 2 --ohess vtight --parallel 40 --molden --ceasefiles --namespace data2507/gas/P–Cu–C/P–Cu–C_gas_S0_preOpt
          :  Hamiltonian                  GFN2-xTB          :
 * total energy  :   -96.3138605 Eh     change       -0.3928093E-08 Eh
 * total energy  :   -96.3259772 Eh     change       -0.1211670E-01 Eh
 * total energy  :   -96.3296836 Eh     change       -0.3706440E-02 Eh
 * total energy  :   -96.3312827 Eh     change       -0.1599076E-02 Eh
 * total energy  :   -96.3323728 Eh     change       -0.1090137E-02 Eh
 * total energy  :   -96.3330769 Eh     change       -0.7040840E-03 Eh
 * total energy  :   -96.3337211 Eh     change       -0.6442395E-03 Eh
 * total energy  :   -96.3344080 Eh     change       -0.6868511E-03 Eh
 * total energy  :   -96.3351025 Eh     change       -0.6945395E-03 Eh
 * total energy  :   -96.3357944 Eh     change       -0.6918745E-03 Eh
 * total energy  :   -96.3505331 Eh     change       -0.1063025E-05 Eh
 * total energy  :   -96.3505339 Eh     change       -0.8473826E-06 Eh
 * total energy  :   -96.3505343 Eh     change       -0.3971992E-06 Eh
 * total energy  :   -96.3505345 Eh     change       -0.2299739E-06 Eh
 * total energy  :   -96.3505348 Eh     change       -0.2282372E-06 Eh
 * total energy  :   -96.3505351 Eh     change       -0.3094470E-06 Eh
 * total energy  :   -96.3505354 Eh     change       -0.2781205E-06 Eh
 * total energy  :   -96.3505355 Eh     change       -0.1469620E-06 Eh
 * total energy  :   -96.3505356 Eh     change       -0.5403264E-07 Eh
   *** GEOMETRY OPTIMIZATION CONVERGED AFTER 132 ITERATIONS ***

 final structure:
================
66
 xtb: 6.7.1 (edcfbbe)
C            1.48925296477744       -3.88991548362921        2.18587234366579
C            1.07967374378508       -2.71789377289090        2.79935301348247
C            1.04659368129878       -1.53186575406468        2.08772748643399
C            1.44675203669525       -1.50914032667645        0.75710758147331
P            1.24029174837184       -0.06609753950701       -0.32514855071448
C            2.94713654015266        0.12640895293738       -1.00423330273649
C            4.09456754546979       -0.49525027171381       -0.52839903773181
C            5.32028893738273       -0.22071365985202       -1.10900773785888
C            5.41283649609035        0.67380318603090       -2.16210305149680
C            4.27227323706150        1.29755872963035       -2.64141610755657
C            3.04707383386700        1.02056570963316       -2.06642312734754
C            1.33802932943893        1.37486840931144        0.79317983827733
C            2.27750988116952        1.44339787881456        1.81352857647474
C            2.34071823906159        2.55394052605401        2.63442051813743
C            1.47168980286683        3.61308579076025        2.42682120282839
C            0.55796461832199        3.56744288474949        1.39021418675570
C            0.47781181618991        2.45389387977490        0.55806323617689
C           -0.48054071613753        2.45277880565063       -0.56084837736176
C           -0.56218712881438        3.56549119491748       -1.39397034423886
C           -1.47605812722334        3.60904341135662       -2.43053947662770
C           -2.34364807314718        2.54853914664003       -2.63721825007935
C           -2.27893385038558        1.43878936760659       -1.81536997480372
C           -1.33937628219111        1.37243261733143       -0.79494975277254
P           -1.24013878602632       -0.06699450734140        0.32522571144308
C           -2.94729118740957        0.12498243521473        1.00367308306578
C           -4.09404937931659       -0.49845452406574        0.52854529908906
C           -5.32019749140486       -0.22382669176092        1.10820248373111
C           -5.41384513105191        0.67258576039493        2.15958908760977
C           -4.27394285396826        1.29805537332019        2.63823957055925
C           -3.04830820703501        1.02094581163906        2.06423252820555
C           -1.44499645451937       -1.51182233024009       -0.75492995496947
C           -1.83476904014474       -2.69692412854339       -0.13577530150017
C           -1.86080366237411       -3.88119525311461       -0.84639015937245
C           -1.48449644251407       -3.89487054913202       -2.17996847094481
C           -1.07634007879808       -2.72330369071411       -2.79526452218346
C           -1.04475451998612       -1.53611930000927       -2.08549465002173
C            1.83791126279297       -2.69473442349115        0.13977739345091
C            1.86544628546131       -3.87786077395274        0.85224777708197
H            1.50758505909943       -4.81456922915832        2.74433416062814
H            0.77516130156929       -2.72910108305993        3.83630727673434
H            0.71209832427473       -0.62104542492418        2.56630192860234
H            4.03278035550818       -1.19696836106344        0.29191859164909
H            6.21019257450491       -0.70716124199467       -0.73498945686826
H            6.37330501394651        0.88335315316875       -2.61009868057353
H            4.34085507275540        1.99479949097778       -3.46423918028348
H            2.14580326688087        1.49845959786431       -2.43280569214937
H            2.96092646755198        0.61803521617602        1.95953932082315
H            3.06683171574047        2.59551252216195        3.43326040977803
H            1.51224047066861        4.48056068790781        3.06950181745340
H           -0.11684925643947        4.39642257034547        1.22839423219574
H            0.11151244872312        4.39551969834767       -1.23288377770703
H           -1.51786434498635        4.47595406325807       -3.07390157796906
H           -3.06987954300400        2.58847727850125       -3.43603481392461
H           -2.96127625264976        0.61240563685729       -1.96062906496021
H           -4.03136524749879       -1.20169856911522       -0.29039412376079
H           -6.20958309620630       -0.71165499123824        0.73475224114638
H           -6.37466089163034        0.88226639063557        2.60677855407481
H           -4.34339177472423        1.99681020617950        3.45970109258182
H           -2.14756495310093        1.50028862914462        2.43002220380686
H           -2.11095295728537       -2.67863473513823        0.91111738984504
H           -2.16537084824304       -4.79650833817207       -0.35949786575449
H           -1.50162641043016       -4.82042828727738       -2.73696912243187
H           -0.77177337422828       -2.73576601238284       -3.83218736512982
H           -0.71136381002036       -0.62563285474458       -2.56546976500744
H            2.11398933940875       -2.67776519870775       -0.90716455019155
H            2.17109776197232       -4.79355970583463        0.36676404974610

          :  Hamiltonian                  GFN2-xTB          :
         :: gradient norm              0.000024796950 Eh/a0 ::
         :: HOMO-LUMO gap              2.904278870368 eV    ::
         :: SCC energy               -98.173616959832 Eh    ::
         :: -> dispersion             -0.107186666149 Eh    ::
         :: repulsion energy           1.823081405737 Eh    ::

    * Orbital Energies and Occupations

         #    Occupation            Energy/Eh            Energy/eV
      -------------------------------------------------------------
         1        2.0000           -0.6673647             -18.1599
       ...           ...                  ...                  ...
        79        2.0000           -0.4085923             -11.1184
        80        2.0000           -0.4037875             -10.9876
        81        2.0000           -0.4033054             -10.9745
        82        2.0000           -0.4025926             -10.9551
        83        2.0000           -0.4025323             -10.9535
        84        2.0000           -0.4021285             -10.9425
        85        2.0000           -0.4012522             -10.9186
        86        2.0000           -0.3983179             -10.8388
        87        2.0000           -0.3956761             -10.7669
        88        2.0000           -0.3893905             -10.5959
        89        2.0000           -0.3863437             -10.5129
        90        2.0000           -0.3667070              -9.9786
        91        2.0000           -0.3579785              -9.7411 (HOMO)
        92                         -0.2512482              -6.8368 (LUMO)
        93                         -0.2395095              -6.5174
        94                         -0.2387915              -6.4978
        95                         -0.2323296              -6.3220
        96                         -0.2292648              -6.2386
        97                         -0.2269545              -6.1757
        98                         -0.2232936              -6.0761
        99                         -0.2217663              -6.0346
       100                         -0.2205805              -6.0023
       101                         -0.2193738              -5.9695
       102                         -0.2177087              -5.9242
       ...                                ...                  ...
       190                          1.4794070              40.2567
      -------------------------------------------------------------
                  HL-Gap            0.1067303 Eh            2.9043 eV

     #   Z          covCN         q      C6AA      α(0)
     1   6 C        2.920    -0.029    28.734     8.790
     2   6 C        2.919    -0.029    28.726     8.789
     3   6 C        2.974    -0.021    28.533     8.762
     4   6 C        2.922     0.036    27.205     8.553
     5  15 P        4.153    -0.179   168.454    23.315
     6   6 C        2.917     0.024    27.478     8.596
     7   6 C        2.950    -0.026    28.652     8.779
     8   6 C        2.920    -0.029    28.728     8.789
     9   6 C        2.920    -0.029    28.728     8.789
    10   6 C        2.918    -0.029    28.725     8.789
    11   6 C        3.037    -0.024    28.559     8.765
    12   6 C        2.933     0.034    27.242     8.560
    13   6 C        2.979    -0.025    28.613     8.774
    14   6 C        2.919    -0.031    28.776     8.797
    15   6 C        2.918    -0.029    28.727     8.789
    16   6 C        2.925    -0.034    28.840     8.807
    17   6 C        3.065     0.017    27.576     8.611
    18   6 C        3.065     0.017    27.576     8.611
    19   6 C        2.925    -0.034    28.840     8.807
    20   6 C        2.918    -0.029    28.727     8.789
    21   6 C        2.919    -0.031    28.776     8.797
    22   6 C        2.979    -0.025    28.613     8.774
    23   6 C        2.933     0.034    27.242     8.560
    24  15 P        4.153    -0.179   168.454    23.315
    25   6 C        2.917     0.024    27.478     8.596
    26   6 C        2.950    -0.026    28.652     8.779
    27   6 C        2.920    -0.029    28.728     8.789
    28   6 C        2.920    -0.029    28.728     8.789
    29   6 C        2.918    -0.029    28.725     8.789
    30   6 C        3.037    -0.024    28.559     8.765
    31   6 C        2.922     0.036    27.204     8.553
    32   6 C        3.035    -0.024    28.558     8.765
    33   6 C        2.918    -0.030    28.747     8.792
    34   6 C        2.920    -0.029    28.734     8.790
    35   6 C        2.919    -0.029    28.726     8.789
    36   6 C        2.974    -0.021    28.533     8.762
    37   6 C        3.035    -0.024    28.558     8.765
    38   6 C        2.918    -0.030    28.747     8.792
    39   1 H        0.926     0.029     2.596     2.520
    40   1 H        0.926     0.030     2.587     2.515
    41   1 H        0.925     0.044     2.390     2.418
    42   1 H        0.925     0.032     2.555     2.500
    43   1 H        0.926     0.029     2.595     2.519
    44   1 H        0.926     0.030     2.589     2.516
    45   1 H        0.926     0.030     2.592     2.518
    46   1 H        0.925     0.036     2.506     2.475
    47   1 H        0.925     0.040     2.446     2.446
    48   1 H        0.926     0.031     2.566     2.505
    49   1 H        0.926     0.031     2.567     2.505
    50   1 H        0.926     0.031     2.568     2.506
    51   1 H        0.926     0.031     2.568     2.506
    52   1 H        0.926     0.031     2.567     2.505
    53   1 H        0.926     0.031     2.566     2.505
    54   1 H        0.925     0.040     2.446     2.446
    55   1 H        0.925     0.032     2.555     2.500
    56   1 H        0.926     0.029     2.595     2.519
    57   1 H        0.926     0.030     2.589     2.516
    58   1 H        0.926     0.030     2.592     2.518
    59   1 H        0.925     0.036     2.506     2.475
    60   1 H        0.925     0.035     2.516     2.480
    61   1 H        0.926     0.029     2.605     2.524
    62   1 H        0.926     0.029     2.596     2.520
    63   1 H        0.926     0.030     2.587     2.515
    64   1 H        0.925     0.044     2.390     2.418
    65   1 H        0.925     0.035     2.516     2.481
    66   1 H        0.926     0.029     2.605     2.524

molecular dipole:
                 x           y           z       tot (Debye)
 q only:        0.000       0.126      -0.000
   full:        0.000       0.160      -0.000       0.408

 projected vibrational frequencies (cm⁻¹)
eigval :       -0.00    -0.00    -0.00     0.00     0.00     0.00
eigval :       19.52    21.14    27.14    33.24    33.37    41.75
eigval :       43.02    53.62    55.36    59.96    72.21    75.86
eigval :       89.68    97.02   121.39   128.66   143.64   179.58
eigval :      181.08   192.87   199.39   204.29   205.86   231.24
eigval :      239.93   243.44   251.36   293.71   307.88   351.13
eigval :      362.30   362.33   370.03   370.26   384.90   399.84
eigval :      403.12   404.88   419.72   426.59   447.90   468.99
eigval :      478.01   480.78   485.56   504.34   519.12   534.07
eigval :      584.59   585.23   585.85   586.04   586.33   653.82
eigval :      654.74   657.12   658.16   667.74   671.17   677.51
eigval :      679.01   692.25   693.74   705.71   705.78   738.06
eigval :      738.56   740.45   741.44   753.88   767.87   785.53
eigval :      870.56   871.75   877.36   877.69   881.99   887.83
eigval :      896.06   896.78   900.54   900.60   915.33   918.87
eigval :      924.08   925.03   927.71   927.96   928.93   930.70
eigval :      931.23   931.44   933.08   933.12   967.34   967.46
eigval :      970.58   971.00   973.26  1047.21  1080.64  1080.77
eigval :     1080.98  1081.07  1090.11  1094.79  1108.23  1108.83
eigval :     1115.16  1116.10  1117.46  1118.43  1118.53  1121.15
eigval :     1121.42  1156.41  1160.24  1181.01  1181.16  1181.19
eigval :     1181.35  1181.45  1181.72  1194.93  1195.78  1197.40
eigval :     1198.39  1235.17  1243.31  1271.78  1272.49  1276.32
eigval :     1276.88  1281.58  1308.81  1313.29  1316.92  1317.24
eigval :     1320.65  1321.13  1407.76  1416.17  1420.55  1420.75
eigval :     1424.59  1424.74  1438.24  1452.13  1452.40  1453.77
eigval :     1454.04  1466.89  1558.59  1567.41  1576.14  1576.17
eigval :     1578.67  1578.70  1579.09  1583.94  1586.29  1586.33
eigval :     1587.38  1587.75  3033.03  3033.12  3047.15  3047.86
eigval :     3055.89  3055.98  3062.65  3062.67  3064.57  3064.80
eigval :     3067.93  3069.99  3070.11  3070.19  3070.22  3070.38
eigval :     3075.21  3075.26  3076.23  3076.44  3077.08  3078.05
eigval :     3086.67  3086.79  3086.87  3087.37  3087.53  3088.57

   temp. (K)  partition function   enthalpy   heat capacity  entropy
                                   cal/mol     cal/K/mol   cal/K/mol   J/K/mol
 298.15  VIB  0.709E+15            19185.511    118.771    119.892
         ROT  0.139E+08              888.752      2.981     35.664
         INT  0.985E+22            20074.263    121.752    155.556
         TR   0.116E+29             1481.254      4.968     44.627
         TOT                       21555.5171   126.7202   200.1826   837.5640

       T/K    H(0)-H(T)+PV         H(T)/Eh          T*S/Eh         G(T)/Eh
   ------------------------------------------------------------------------
    298.15    0.343509E-01    0.544261E+00    0.951132E-01    0.449147E+00
   ------------------------------------------------------------------------

         :::::::::::::::::::::::::::::::::::::::::::::::::::::
         ::                  THERMODYNAMIC                  ::
         :::::::::::::::::::::::::::::::::::::::::::::::::::::
         :: total free energy         -95.901388098001 Eh   ::
         ::.................................................::
         :: total energy              -96.350535554092 Eh   ::
         :: zero point energy           0.509909766569 Eh   ::
         :: G(RRHO) w/o ZPVE           -0.060762310478 Eh   ::
         :: G(RRHO) contrib.            0.449147456091 Eh   ::
         :::::::::::::::::::::::::::::::::::::::::::::::::::::

           -------------------------------------------------
          | TOTAL ENERGY              -96.350535554092 Eh   |
          | TOTAL ENTHALPY            -95.806274884475 Eh   |
          | TOTAL FREE ENERGY         -95.901388098001 Eh   |
          | GRADIENT NORM               0.000024787324 Eh/α |
          | HOMO-LUMO GAP               2.904278594096 eV   |
           -------------------------------------------------

 * finished run on 2025/09/12 at 12:04:32.668
