   * xtb version 6.7.1 (edcfbbe) compiled by 'albert@albert-system' on 2024-07-22

   ID    Z sym.   atoms
    1    6 C      1-4, 6-23, 25-38
    2   15 P      5, 24
    3    1 H      39-66

          program call               : xtb data2507/gas/P–Cu–C/P–Cu–C_gas_T1_crest.xyz --gfn 2 --spinpol --tblite --uhf 2 --ohess vtight --parallel 40 --molden --ceasefiles --namespace data2507/gas/P–Cu–C/P–Cu–C_gas_T1_finalOpt
 * total energy  :   -96.2629136 Eh     change       -0.1620050E-07 Eh
 * total energy  :   -96.2629211 Eh     change       -0.7503178E-05 Eh
 * total energy  :   -96.2629255 Eh     change       -0.4368704E-05 Eh
 * total energy  :   -96.2629271 Eh     change       -0.1603712E-05 Eh
 * total energy  :   -96.2629287 Eh     change       -0.1579244E-05 Eh
 * total energy  :   -96.2629302 Eh     change       -0.1499156E-05 Eh
 * total energy  :   -96.2629323 Eh     change       -0.2138989E-05 Eh
 * total energy  :   -96.2629342 Eh     change       -0.1929139E-05 Eh
 * total energy  :   -96.2629353 Eh     change       -0.1043770E-05 Eh
 * total energy  :   -96.2629362 Eh     change       -0.9504788E-06 Eh
 * total energy  :   -96.2629407 Eh     change       -0.6682936E-06 Eh
 * total energy  :   -96.2629410 Eh     change       -0.2684548E-06 Eh
 * total energy  :   -96.2629413 Eh     change       -0.2610390E-06 Eh
 * total energy  :   -96.2629415 Eh     change       -0.2279120E-06 Eh
 * total energy  :   -96.2629418 Eh     change       -0.2717533E-06 Eh
 * total energy  :   -96.2629420 Eh     change       -0.2203645E-06 Eh
 * total energy  :   -96.2629421 Eh     change       -0.1307323E-06 Eh
 * total energy  :   -96.2629422 Eh     change       -0.1211738E-06 Eh
 * total energy  :   -96.2629423 Eh     change       -0.5530698E-07 Eh
   *** GEOMETRY OPTIMIZATION CONVERGED AFTER 22 ITERATIONS ***

 final structure:
================
66
 xtb: 6.7.1 (edcfbbe)
C            2.06388672439295       -2.95445958110486        3.60037444900051
C            0.76235141169890       -2.76875098168987        3.15968920340370
C            0.49823933944258       -1.85140457262943        2.16098569006250
C            1.53214604526103       -1.11854831941768        1.58856543100702
P            1.11547773610038        0.09397277050702        0.31619308225940
C            2.68236086206136        0.42389519902684       -0.56087789592066
C            3.04898987428451        1.73190516736652       -0.86635711826282
C            4.17865416094120        1.96513165332246       -1.62708348397819
C            4.92960784785921        0.90252679691891       -2.10635166203347
C            4.54281602921736       -0.40241719092436       -1.83296627797751
C            3.41358202061491       -0.64618237502682       -1.07871113248472
C            0.62390239297137        1.59159087650161        1.16026422592007
C            1.13243095944194        1.83605456603503        2.44061711316727
C            0.81828241601162        2.98881251420719        3.11752088564203
C           -0.01549451105369        3.93322638648973        2.50955289382755
C           -0.51244092918832        3.70943293010650        1.24767924370973
C           -0.21839319895780        2.54569038131498        0.52240974879640
C           -0.78488503151741        2.34310938991968       -0.79299250672473
C           -1.04377011671529        3.44152773368187       -1.62641416862815
C           -1.59590974358849        3.29848767510584       -2.87570641512634
C           -1.95113943095226        2.02796210644514       -3.34582342670825
C           -1.73494616933566        0.93383886851118       -2.54942327372253
C           -1.09733130189819        1.05020190645705       -1.30508208188097
P           -1.11906628416739       -0.39141534640832       -0.23232236460974
C           -2.80976510238793       -0.54818061606804        0.44852098860506
C           -3.88217377421132       -0.98991398776107       -0.33406048168436
C           -5.16412630424069       -0.90955469785041        0.16595345362236
C           -5.40034621506612       -0.37867162527857        1.42797007374443
C           -4.33785245687276        0.08529125019947        2.19415297352283
C           -3.05129902785075        0.01340560632942        1.70584166926285
C           -0.84707456901240       -1.81834315224491       -1.29078313598673
C           -1.41074980583836       -3.05980777179736       -0.99474599517284
C           -1.02577497948364       -4.17859467526323       -1.70508631596144
C           -0.05213821200506       -4.08159079085993       -2.69054600633478
C            0.54092002728075       -2.85595929608143       -2.96023463633113
C            0.15879423333794       -1.73204073501541       -2.25766781270011
C            2.83865795299110       -1.30666670419546        2.03319757432570
C            3.09668626006736       -2.22138374669809        3.03846576568497
H            2.27226351234927       -3.66805347604513        4.38363535942775
H           -0.04497008404670       -3.33726890227099        3.59711803233407
H           -0.51716478182812       -1.69967358446817        1.80875650147956
H            2.45560707996069        2.55348293537813       -0.48924254369495
H            4.47424472599437        2.97974019341632       -1.85106747546722
H            5.80987639755774        1.08944081438033       -2.70315655278048
H            5.12095897734641       -1.22939696198893       -2.21941235769868
H            3.08961377547579       -1.65889915884172       -0.87515256392239
H            1.77840567890024        1.09604966278060        2.89611672703457
H            1.20894724316498        3.16498223344952        4.10850890394138
H           -0.27829286144606        4.83654685364940        3.04012221963511
H           -1.18291474574925        4.43644113267335        0.81320046184623
H           -0.77180393665156        4.43017877289551       -1.28481152880301
H           -1.76192942176350        4.16626308074385       -3.49697106878053
H           -2.39292016568161        1.91552456554697       -4.32493521679400
H           -2.01810579077674       -0.05453060060462       -2.89178738383192
H           -3.69981376724112       -1.39720573988324       -1.31840176701788
H           -5.99247730972588       -1.25993770875300       -0.43362912831281
H           -6.40901169631691       -0.31830775328005        1.80788439672736
H           -4.52076345055744        0.50643776384995        3.17227103547356
H           -2.21421032123571        0.37768196639180        2.28965480753065
H           -2.15685713275151       -3.13503180942927       -0.21484358265136
H           -1.47752645459260       -5.13561614280371       -1.48693229818474
H            0.25065346976909       -4.96124864434753       -3.23875597836876
H            1.30791008308539       -2.78147451597672       -3.71796935164564
H            0.61299782812407       -0.76976735296102       -2.46293020154068
H            3.64541982936551       -0.73217225627717        1.59989658650034
H            4.10950262223675       -2.35863773955569        3.38835599062950

 projected vibrational frequencies (cm⁻¹)
eigval :       -0.00    -0.00    -0.00    -0.00     0.00     0.00
eigval :      -10.60    11.53    22.41    31.12    33.56    37.54
eigval :       43.93    48.26    52.49    60.83    66.46    71.46
eigval :       85.25    93.94   117.09   120.75   153.26   161.65
eigval :      179.58   188.64   191.72   195.99   203.37   208.97
eigval :      235.98   244.09   247.81   283.63   301.67   351.30
eigval :      357.20   359.54   363.41   368.25   373.29   379.54
eigval :      388.35   395.10   400.56   412.02   422.41   440.34
eigval :      445.74   456.38   474.63   489.09   498.61   512.59
eigval :      578.67   580.64   581.85   583.99   585.38   624.43
eigval :      630.05   636.48   641.67   645.86   648.52   660.92
eigval :      664.05   681.22   697.38   704.66   707.10   723.20
eigval :      730.65   734.01   735.78   745.84   757.17   765.00
eigval :      856.21   858.55   862.38   863.94   865.13   868.83
eigval :      874.79   887.13   890.74   894.40   898.73   902.21
eigval :      907.35   914.11   916.82   918.29   920.23   921.65
eigval :      923.07   926.05   927.73   929.82   957.69   963.37
eigval :      966.07   967.60   968.11  1034.96  1055.81  1064.84
eigval :     1070.09  1072.78  1073.77  1075.79  1078.34  1086.12
eigval :     1091.28  1095.97  1102.07  1113.21  1114.40  1116.17
eigval :     1117.43  1147.53  1163.57  1176.61  1177.32  1177.98
eigval :     1178.19  1178.63  1180.92  1188.61  1189.68  1190.83
eigval :     1193.75  1234.03  1239.36  1260.22  1263.78  1267.95
eigval :     1269.57  1274.42  1318.55  1321.31  1323.96  1327.45
eigval :     1332.89  1341.46  1389.52  1395.71  1411.45  1413.36
eigval :     1414.53  1419.46  1420.62  1422.19  1427.44  1434.81
eigval :     1437.82  1441.17  1501.32  1504.78  1522.33  1529.67
eigval :     1540.79  1542.98  1549.57  1554.39  1556.04  1559.62
eigval :     1566.10  1572.04  3000.58  3032.26  3034.30  3035.32
eigval :     3046.84  3050.40  3057.63  3064.02  3066.66  3066.83
eigval :     3069.76  3072.29  3072.89  3073.27  3075.58  3075.89
eigval :     3076.61  3077.50  3078.59  3081.31  3082.46  3084.52
eigval :     3087.06  3090.66  3090.95  3092.49  3093.32  3094.45

   temp. (K)  partition function   enthalpy   heat capacity  entropy
                                   cal/mol     cal/K/mol   cal/K/mol   J/K/mol
 298.15  VIB  0.733E+16            19633.471    120.399    123.808
         ROT  0.276E+08              888.752      2.981     37.030
         INT  0.202E+24            20522.224    123.379    160.839
         TR   0.116E+29             1481.254      4.968     44.627
         TOT                       22003.4774   128.3476   205.4653   859.6666

       T/K    H(0)-H(T)+PV         H(T)/Eh          T*S/Eh         G(T)/Eh
   ------------------------------------------------------------------------
    298.15    0.350648E-01    0.540639E+00    0.976232E-01    0.443015E+00
   ------------------------------------------------------------------------

         :::::::::::::::::::::::::::::::::::::::::::::::::::::
         ::                  THERMODYNAMIC                  ::
         :::::::::::::::::::::::::::::::::::::::::::::::::::::
         :: total free energy         -95.819926837777 Eh   ::
         ::.................................................::
         :: total energy              -96.262942284142 Eh   ::
         :: zero point energy           0.505573847326 Eh   ::
         :: G(RRHO) w/o ZPVE           -0.062558400961 Eh   ::
         :: G(RRHO) contrib.            0.443015446365 Eh   ::
         :::::::::::::::::::::::::::::::::::::::::::::::::::::

           -------------------------------------------------
          | TOTAL ENERGY              -96.262942284142 Eh   |
          | TOTAL ENTHALPY            -95.722303663560 Eh   |
          | TOTAL FREE ENERGY         -95.819926837777 Eh   |
          | GRADIENT NORM               0.000080108383 Eh/α |
           -------------------------------------------------

 * finished run on 2025/09/12 at 12:11:00.472
