   * xtb version 6.7.1 (edcfbbe) compiled by 'albert@albert-system' on 2024-07-22

   ID    Z sym.   atoms
    1    6 C      1-5, 7-22, 24-48
    2    7 N      6, 23
    3    1 H      49-94

          program call               : xtb data2507/gas/TPA-BT-Q/TPA-BT-Q_gas_S0_finalOpt.xtbopt.xyz --gfn 2 --spinpol --tblite --uhf 2 --ohess vtight --parallel 40 --molden --ceasefiles --namespace data2507/gas/TPA-BT-Q/TPA-BT-Q_gas_T1_preOpt
 * total energy  :  -127.7557663 Eh     change       -0.4463878E-07 Eh
 * total energy  :  -127.7582444 Eh     change       -0.2478100E-02 Eh
 * total energy  :  -127.7587006 Eh     change       -0.4561858E-03 Eh
 * total energy  :  -127.7587686 Eh     change       -0.6793298E-04 Eh
 * total energy  :  -127.7588315 Eh     change       -0.6297493E-04 Eh
 * total energy  :  -127.7588743 Eh     change       -0.4277205E-04 Eh
 * total energy  :  -127.7589672 Eh     change       -0.9291663E-04 Eh
 * total energy  :  -127.7590793 Eh     change       -0.1120676E-03 Eh
 * total energy  :  -127.7591397 Eh     change       -0.6037542E-04 Eh
 * total energy  :  -127.7591851 Eh     change       -0.4542187E-04 Eh
 * total energy  :  -127.7616604 Eh     change       -0.1194900E-06 Eh
 * total energy  :  -127.7616605 Eh     change       -0.1077300E-06 Eh
 * total energy  :  -127.7616606 Eh     change       -0.1101935E-06 Eh
 * total energy  :  -127.7616607 Eh     change       -0.1256228E-06 Eh
 * total energy  :  -127.7616609 Eh     change       -0.1836896E-06 Eh
 * total energy  :  -127.7616611 Eh     change       -0.1434663E-06 Eh
 * total energy  :  -127.7616613 Eh     change       -0.2151570E-06 Eh
 * total energy  :  -127.7616614 Eh     change       -0.1440672E-06 Eh
 * total energy  :  -127.7616615 Eh     change       -0.8990544E-07 Eh
   *** GEOMETRY OPTIMIZATION CONVERGED AFTER 268 ITERATIONS ***

 final structure:
================
94
 xtb: 6.7.1 (edcfbbe)
C           -1.81144974521187       -5.21777593457330       -2.69860355937108
C           -2.32608692550377       -3.97632199832137       -2.03780477807529
C           -3.67439471451929       -3.63153700396856       -2.13330349391985
C           -4.16366322854341       -2.48738057621618       -1.54378044775448
C           -3.30903879736482       -1.64501623227407       -0.82430711211732
N           -3.78066608315628       -0.47475014970671       -0.23054426869900
C           -5.04852440244833       -0.42737517804291        0.34456824505448
C           -5.59565964006063       -1.54717203787551        0.98021456334151
C           -6.84595478132304       -1.47884953884819        1.55460390560917
C           -7.59219920964239       -0.30272835791516        1.52498566094404
C           -8.94034405648901       -0.23149890460594        2.17304181806047
C           -7.03946208964945        0.81114029876741        0.89729455727698
C           -5.79203293590498        0.75783398438960        0.31568556425298
C           -2.95235652381153        0.63830730955959       -0.18317112144875
C           -2.88775554092763        1.45488774243446        0.96503470826684
C           -2.00697278437517        2.49613695651997        1.03407957553104
C           -1.15183277642647        2.82959196535148       -0.04759029453027
C           -0.03053028118776        3.83735510264568        0.08614381284640
C            1.06183999060083        2.79579632171071        0.15909472389388
C            1.21389589131830        1.98726558138703        1.31255618846591
C            2.03299382102100        0.89896355604887        1.33218555535504
C            2.79764287654232        0.54647788690641        0.19031546412958
N            3.59821321232905       -0.58704926775343        0.19274411764327
C            4.83240026033264       -0.57173175442993       -0.45319413131457
C            5.31296591654255       -1.70374487073907       -1.11990454504241
C            6.53071525251605       -1.66656062589467       -1.76505029911018
C            7.30693188405747       -0.51170087109207       -1.77695582795565
C            8.62595247865172       -0.46372423970076       -2.48433227694091
C            6.82003953694624        0.61593162115217       -1.11595478509580
C            5.60755547091270        0.59385017733512       -0.46523986469731
C            3.13054368748140       -1.74659825386672        0.81008459060171
C            1.76490441857747       -2.05324772249514        0.78630464249080
C            1.29403504356160       -3.18826774739564        1.40975053024473
C            2.15747427859815       -4.05654620620149        2.07142026908632
C            1.64948317443075       -5.28728621456978        2.75683913493320
C            3.51741825827513       -3.74520257513754        2.09411309213832
C            4.00198843611955       -2.61186450586505        1.48072749510770
C            2.69047403065022        1.36456046264193       -0.95273518888923
C            1.84006592527907        2.43222607957000       -0.97262625093033
C            0.04284374626609        4.79512870045562       -1.11370743838348
C            1.24470540246411        5.73225913814699       -1.03102751726664
C            1.18723903615219        6.56118784296505        0.24532338208694
C            1.10399334751683        5.63135951147643        1.44859922207757
C           -0.11244099949241        4.71502473224395        1.34381040706140
C           -1.27599691687458        2.03779137577533       -1.21730892505946
C           -2.12418964720361        0.97431116125356       -1.28363058422461
C           -1.95498319853458       -1.98559103950753       -0.72725775871663
C           -1.47876660102911       -3.13082189283837       -1.32755120501707
H           -1.78234068121746       -5.08520892057615       -3.78083969751068
H           -0.80628637444260       -5.45152211866198       -2.35637832519142
H           -2.46187610250223       -6.06503742690545       -2.48674087187653
H           -4.34556351852691       -4.27213805572767       -2.68758056014383
H           -5.20729507286631       -2.22598225415812       -1.64118534087113
H           -5.02409297136909       -2.46256200936666        1.02667208866996
H           -7.25282723287501       -2.35253404463969        2.04369273108384
H           -9.43992367717360       -1.19715575503210        2.13698574340035
H           -9.56758772088749        0.50980717795120        1.68296381622044
H           -8.83845905363308        0.05460779952679        3.22114445096939
H           -7.60382100504881        1.73191229756768        0.85728657868039
H           -5.38219629075636        1.62396510650441       -0.18249893810137
H           -3.52555219484432        1.22442033390101        1.80678451756164
H           -1.98122367452129        3.08218559484040        1.93840424921614
H            0.65047537128476        2.22083268811129        2.20262610562998
H            2.13199767344425        0.30240593449607        2.22756555012948
H            4.71578742072279       -2.60362914793390       -1.13554063700954
H            6.88407071241702       -2.55016743065996       -2.27742972944120
H            8.57246293318924        0.20902531028273       -3.34075929068924
H            8.91381543856196       -1.45002266139729       -2.83946403213363
H            9.40371596295463       -0.09028358945079       -1.81932389560426
H            7.41146679138484        1.52037465044690       -1.10837278526050
H            5.24906982998123        1.46922189596249        0.05601432852693
H            1.09003919344797       -1.39646436272759        0.25781363799306
H            0.23690024344842       -3.41129015441487        1.37466644354053
H            2.26371164926018       -6.15030090236666        2.50424739074638
H            0.62022278344444       -5.49290327607151        2.47321682194059
H            1.68728336970888       -5.15961193258844        3.83940068623383
H            4.20152633764255       -4.40388406638902        2.61001296023000
H            5.05552703039714       -2.37646076041378        1.52145973678601
H            3.26792795278907        1.11225351433880       -1.83116642341746
H            1.77154211666525        3.00911109450927       -1.88061909254933
H           -0.87507820097384        5.38954969154982       -1.11397193326912
H            0.06636040948240        4.24981975770085       -2.05589444387551
H            1.25713725855034        6.38769536916195       -1.90547445963173
H            2.16715237665513        5.14848009057646       -1.03353552126530
H            2.07082190183498        7.19882777959141        0.32104311705833
H            0.30697459299660        7.20878242616554        0.22328789441641
H            1.04181783899201        6.21539556092077        2.37001182052375
H            2.00706447466993        5.01813899406164        1.49780218868151
H           -1.02170621780788        5.31934899892026        1.29294694756077
H           -0.16298039667417        4.10976413645801        2.24720560647375
H           -0.66568416293054        2.26351210942987       -2.07781656765492
H           -2.19767034481701        0.38602240740283       -2.18697597314560
H           -1.29395843990634       -1.34623148196449       -0.16115863635194
H           -0.43094308676179       -3.38004052806770       -1.23587237647530

 projected vibrational frequencies (cm⁻¹)
eigval :       -0.00    -0.00    -0.00     0.00     0.00     0.00
eigval :       -6.43    -3.35    10.46    11.14    18.07    20.64
eigval :       20.96    21.45    30.84    34.72    40.90    43.15
eigval :       46.93    49.46    53.11    62.75    69.71    76.08
eigval :       98.75   108.73   110.58   118.77   129.92   141.78
eigval :      148.12   148.67   165.65   173.96   193.45   215.68
eigval :      225.33   242.39   259.05   260.17   262.17   277.21
eigval :      291.00   304.34   309.35   316.86   324.36   328.84
eigval :      333.25   347.34   355.73   360.73   367.11   374.05
eigval :      374.72   379.40   380.69   385.43   388.57   391.71
eigval :      404.61   413.48   425.94   437.16   440.11   442.19
eigval :      467.26   477.03   479.42   498.00   499.75   515.46
eigval :      533.99   535.78   539.25   572.86   597.16   598.79
eigval :      605.63   609.11   609.77   609.87   618.10   625.54
eigval :      626.34   644.48   653.87   654.37   655.53   656.11
eigval :      699.69   742.36   774.94   780.81   786.17   787.34
eigval :      797.17   799.04   799.20   800.90   805.78   814.89
eigval :      819.87   820.70   824.55   860.53   861.15   863.56
eigval :      864.24   880.89   888.70   892.20   894.44   898.68
eigval :      900.53   902.34   907.31   908.39   909.87   911.56
eigval :      914.52   917.63   918.40   921.47   922.62   923.13
eigval :      926.47   940.93   954.68   972.08   975.97   979.50
eigval :      998.68  1004.13  1004.78  1005.07  1005.73  1008.80
eigval :     1012.45  1016.72  1019.32  1029.60  1029.86  1030.00
eigval :     1030.35  1052.92  1090.20  1095.03  1118.07  1125.24
eigval :     1139.51  1143.57  1143.80  1145.32  1148.36  1150.83
eigval :     1156.27  1175.65  1181.24  1182.23  1187.39  1195.76
eigval :     1196.82  1198.66  1214.20  1218.45  1220.80  1224.18
eigval :     1229.91  1237.96  1240.00  1242.49  1252.00  1255.69
eigval :     1259.00  1269.06  1270.71  1274.39  1276.49  1295.66
eigval :     1305.76  1310.25  1313.01  1316.93  1325.30  1326.47
eigval :     1328.05  1330.44  1333.65  1336.00  1336.95  1341.80
eigval :     1343.12  1348.89  1352.47  1361.27  1361.64  1400.47
eigval :     1403.62  1403.82  1403.97  1405.65  1409.16  1409.83
eigval :     1419.92  1421.36  1433.97  1455.82  1457.66  1458.65
eigval :     1461.29  1465.39  1466.46  1467.91  1472.02  1475.93
eigval :     1477.34  1480.11  1480.65  1481.72  1482.02  1482.20
eigval :     1484.07  1488.76  1491.92  1492.59  1492.79  1493.98
eigval :     1495.57  1498.19  1513.50  1529.94  1545.04  1549.04
eigval :     1551.72  1609.44  2955.14  2956.81  2960.06  2962.99
eigval :     2967.04  2978.57  2979.86  2986.10  2989.49  2991.20
eigval :     2991.37  2994.99  3007.98  3008.56  3014.95  3018.50
eigval :     3018.93  3033.19  3035.04  3041.90  3042.02  3043.85
eigval :     3067.99  3069.16  3070.35  3070.68  3070.90  3071.23
eigval :     3072.27  3072.84  3073.07  3073.34  3073.89  3074.37
eigval :     3085.45  3085.77  3087.05  3087.38  3088.33  3089.68
eigval :     3090.01  3090.33  3093.37  3095.11  3105.06  3105.88

   temp. (K)  partition function   enthalpy   heat capacity  entropy
                                   cal/mol     cal/K/mol   cal/K/mol   J/K/mol
 298.15  VIB  0.309E+25            26899.619    159.294    173.541
         ROT  0.859E+08              888.752      2.981     39.286
         INT  0.266E+33            27788.371    162.274    212.827
         TR   0.152E+29             1481.254      4.968     45.169
         TOT                       29269.6248   167.2426   257.9962  1079.4561

       T/K    H(0)-H(T)+PV         H(T)/Eh          T*S/Eh         G(T)/Eh
   ------------------------------------------------------------------------
    298.15    0.466441E-01    0.817023E+00    0.122582E+00    0.694440E+00
   ------------------------------------------------------------------------

         :::::::::::::::::::::::::::::::::::::::::::::::::::::
         ::                  THERMODYNAMIC                  ::
         :::::::::::::::::::::::::::::::::::::::::::::::::::::
         :: total free energy        -127.067221163716 Eh   ::
         ::.................................................::
         :: total energy             -127.761661514554 Eh   ::
         :: zero point energy           0.770378552370 Eh   ::
         :: G(RRHO) w/o ZPVE           -0.075938201531 Eh   ::
         :: G(RRHO) contrib.            0.694440350839 Eh   ::
         :::::::::::::::::::::::::::::::::::::::::::::::::::::

           -------------------------------------------------
          | TOTAL ENERGY             -127.761661514554 Eh   |
          | TOTAL ENTHALPY           -126.944638846029 Eh   |
          | TOTAL FREE ENERGY        -127.067221163716 Eh   |
          | GRADIENT NORM               0.000057069735 Eh/α |
           -------------------------------------------------

 * finished run on 2025/09/04 at 20:46:36.258
