   * xtb version 6.7.1 (edcfbbe) compiled by 'albert@albert-system' on 2024-07-22

   ID    Z sym.   atoms
    1    6 C      1-5, 7-22, 24-48
    2    7 N      6, 23
    3    1 H      49-94

          program call               : xtb data2507/gas/TPA-BT-Q/TPA-BT-Q_gas_S0_crest.xyz --gfn 2 --ohess vtight --parallel 40 --molden --ceasefiles --namespace data2507/gas/TPA-BT-Q/TPA-BT-Q_gas_S0_finalOpt
          :  Hamiltonian                  GFN2-xTB          :
 * total energy  :  -127.8683468 Eh     change       -0.2610420E-08 Eh
 * total energy  :  -127.8683477 Eh     change       -0.8460679E-06 Eh
 * total energy  :  -127.8683488 Eh     change       -0.1137969E-05 Eh
 * total energy  :  -127.8683518 Eh     change       -0.2941077E-05 Eh
 * total energy  :  -127.8683532 Eh     change       -0.1427844E-05 Eh
 * total energy  :  -127.8683545 Eh     change       -0.1339930E-05 Eh
 * total energy  :  -127.8683558 Eh     change       -0.1273345E-05 Eh
 * total energy  :  -127.8683566 Eh     change       -0.7742314E-06 Eh
 * total energy  :  -127.8683573 Eh     change       -0.7187378E-06 Eh
 * total energy  :  -127.8683582 Eh     change       -0.8650995E-06 Eh
 * total energy  :  -127.8683729 Eh     change       -0.3169838E-06 Eh
 * total energy  :  -127.8683732 Eh     change       -0.2456164E-06 Eh
 * total energy  :  -127.8683735 Eh     change       -0.3031336E-06 Eh
 * total energy  :  -127.8683739 Eh     change       -0.4438676E-06 Eh
 * total energy  :  -127.8683747 Eh     change       -0.7544607E-06 Eh
 * total energy  :  -127.8683758 Eh     change       -0.1147213E-05 Eh
 * total energy  :  -127.8683762 Eh     change       -0.3665985E-06 Eh
 * total energy  :  -127.8683766 Eh     change       -0.3844178E-06 Eh
 * total energy  :  -127.8683766 Eh     change       -0.5763533E-07 Eh
   *** GEOMETRY OPTIMIZATION CONVERGED AFTER 46 ITERATIONS ***

 final structure:
================
94
 xtb: 6.7.1 (edcfbbe)
C           -3.32482263835134       -5.79350378488545       -1.86450003797374
C           -3.61471282444358       -4.37738922990473       -1.46789117493519
C           -4.78014223934883       -3.73916317755190       -1.87145694489653
C           -5.05007413645034       -2.43766539618702       -1.49623612325481
C           -4.15643215776086       -1.73664762428205       -0.68854770991435
N           -4.42507231138363       -0.41975880583100       -0.30046578701930
C           -5.73504667924791       -0.02250802268877       -0.01312355743030
C           -6.62331662354171       -0.89366833556670        0.61779108849218
C           -7.91460577140397       -0.49410269781994        0.89269579384747
C           -8.36141650809288        0.78067851651268        0.56073673397398
C           -9.76583801822510        1.19799896459284        0.87709125008261
C           -7.47121033038781        1.64555275484227       -0.06136312339924
C           -6.17843848430332        1.25473890702049       -0.35097095347470
C           -3.37548840105100        0.49715970420158       -0.18193866991902
C           -3.35989024492037        1.43891157424744        0.84279562325448
C           -2.30878745476778        2.32799351842780        0.96933294254761
C           -1.23675886535179        2.30748140631190        0.08721172736747
C           -0.02679060270140        3.23070062670190        0.19211128143179
C            1.17390249966982        2.29492141319187        0.18603358807294
C            1.34472914362495        1.42755665822100        1.26375739151689
C            2.36540449239200        0.50225805887777        1.29753131398033
C            3.25522446011786        0.39380606568061        0.22992875208102
N            4.27980606476804       -0.55878966750746        0.24623218923937
C            5.53190866001228       -0.24621184717415       -0.29137089453790
C            6.27632822316637       -1.20517272288800       -0.97575096763434
C            7.51506633274945       -0.88709229194151       -1.49760750853332
C            8.04497366904417        0.38942073243212       -1.36618713352095
C            9.39026688532660        0.73930262938653       -1.92690937864298
C            7.29483863373662        1.34462545475524       -0.68824738994416
C            6.06106811394201        1.03743774610911       -0.15368564569792
C            4.03515431197386       -1.82913207509758        0.77878247103235
C            2.79278297251188       -2.44066590675971        0.61453543080913
C            2.55424161742799       -3.69084015075574        1.14904117149305
C            3.53949814736968       -4.37396287873329        1.85133535895653
C            3.28416520262556       -5.74332267433855        2.40473286814162
C            4.77718985082568       -3.76140052406873        2.00803530011399
C            5.02580017374200       -2.50737490930063        1.48774439645191
C            3.08199711751465        1.24035101148285       -0.86089710243407
C            2.05679931990697        2.16706717630081       -0.87982783821171
C           -0.07679506525680        4.21480810654837       -0.99395306838018
C            1.03172981918867        5.26708844567404       -0.96257925329308
C            1.03303646642172        6.03022219155822        0.35611294838988
C            1.13827014189686        5.04454047786189        1.51306956099082
C           -0.04208175310867        4.07952907611064        1.47532058157938
C           -1.26576657846700        1.36754544575969       -0.94154538206984
C           -2.31145296252265        0.48188976256415       -1.08334150168486
C           -2.98623422413443       -2.37450538201918       -0.27599216537832
C           -2.72374981252091       -3.67110796846232       -0.66720544315440
H           -3.97116060231426       -6.10887794095485       -2.67987503626139
H           -2.28744902565457       -5.90150290056803       -2.17599748345476
H           -3.49033923317713       -6.46265201099905       -1.01933940481399
H           -5.48617740084891       -4.26438945213566       -2.49910322860828
H           -5.95631943071236       -1.95407611832075       -1.83053802260737
H           -6.29097410924167       -1.88418659488745        0.89230122441221
H           -8.58946880674030       -1.18134886036140        1.38315211031606
H          -10.47932173357157        0.50122445240319        0.43891399713240
H           -9.97141771687806        2.19400387237569        0.49304642371923
H           -9.92655864867835        1.20296618388020        1.95509596533350
H           -7.79501443010555        2.64020093409494       -0.33371165227000
H           -5.50270026034407        1.93788736247516       -0.84456609231305
H           -4.17485582504343        1.46596995993642        1.55160154126747
H           -2.33812875928627        3.03008794687211        1.78713407776190
H            0.65576940936025        1.46184502065450        2.09438230734131
H            2.47454085763663       -0.15307793289875        2.14937685042445
H            5.87612885042133       -2.20098149925068       -1.09860508795897
H            8.07527492824034       -1.64602251119795       -2.02537219585489
H            9.32317683103094        1.62290351419015       -2.56014098225993
H            9.79187542992017       -0.08185459848746       -2.51531196242378
H           10.09033678242956        0.96092799228801       -1.12123730087995
H            7.69027599236415        2.34368143865934       -0.57047645846538
H            5.49707463261137        1.78949160161482        0.37863011382845
H            2.01601566832932       -1.92896215190582        0.06501246300589
H            1.58451683693334       -4.14789184151383        1.01126229593141
H            3.57772231401140       -6.50219472873088        1.67801131065478
H            2.22854484807762       -5.88131413519454        2.62726062993094
H            3.86085028914346       -5.90810021584879        3.31226016889132
H            5.55717253585910       -4.27072200365629        2.55620828254405
H            5.99006065342219       -2.04181981674567        1.63052417131111
H            3.74886072289183        1.15894531630845       -1.70728032064196
H            1.94720080800168        2.77283628102457       -1.76498012012333
H           -1.04366957338284        4.72460262104412       -0.95034145411705
H           -0.04833338251860        3.67030956063372       -1.93899724012058
H            0.88760576635124        5.95944276234837       -1.79589381450679
H            2.00660398747746        4.79466652983916       -1.08643707599257
H            1.86829972632537        6.73339044163906        0.37800941463546
H            0.10845886187945        6.60505496054142        0.45249468852291
H            1.14112286305735        5.58150851296725        2.46439900158988
H            2.07354832020133        4.48510704530446        1.43846299154129
H           -0.96178524395210        4.66819025077683        1.49948527665160
H           -0.02440934069718        3.44257902463304        2.35961763521015
H           -0.44666551689172        1.32144828175938       -1.64410667727125
H           -2.30920145200551       -0.23523276698421       -1.89122979314348
H           -2.28573988791556       -1.84537414130507        0.35360481119810
H           -1.81182945763045       -4.14920352324809       -0.33845303208942

          :  Hamiltonian                  GFN2-xTB          :
         :: gradient norm              0.000076018168 Eh/a0 ::
         :: HOMO-LUMO gap              3.044393823439 eV    ::
         :: SCC energy              -130.172286011292 Eh    ::
         :: -> dispersion             -0.120202529611 Eh    ::
         :: repulsion energy           2.303909378737 Eh    ::

    * Orbital Energies and Occupations

         #    Occupation            Energy/Eh            Energy/eV
      -------------------------------------------------------------
         1        2.0000           -0.6556122             -17.8401
       ...           ...                  ...                  ...
       108        2.0000           -0.4013309             -10.9208
       109        2.0000           -0.3999630             -10.8835
       110        2.0000           -0.3988083             -10.8521
       111        2.0000           -0.3971703             -10.8076
       112        2.0000           -0.3968196             -10.7980
       113        2.0000           -0.3963536             -10.7853
       114        2.0000           -0.3955656             -10.7639
       115        2.0000           -0.3913574             -10.6494
       116        2.0000           -0.3898410             -10.6081
       117        2.0000           -0.3897066             -10.6045
       118        2.0000           -0.3860211             -10.5042
       119        2.0000           -0.3392985              -9.2328
       120        2.0000           -0.3364620              -9.1556 (HOMO)
       121                         -0.2245826              -6.1112 (LUMO)
       122                         -0.2203482              -5.9960
       123                         -0.2202084              -5.9922
       124                         -0.2199186              -5.9843
       125                         -0.2188215              -5.9544
       126                         -0.2174635              -5.9175
       127                         -0.2135080              -5.8098
       128                         -0.2133563              -5.8057
       129                         -0.2131817              -5.8010
       130                         -0.2120366              -5.7698
       131                         -0.1863152              -5.0699
       ...                                ...                  ...
       238                          0.6786287              18.4664
      -------------------------------------------------------------
                  HL-Gap            0.1118794 Eh            3.0444 eV

     #   Z          covCN         q      C6AA      α(0)
     1   6 C        3.757    -0.107    22.606     6.779
     2   6 C        2.965     0.008    27.838     8.654
     3   6 C        2.925    -0.040    28.996     8.831
     4   6 C        2.921    -0.050    29.245     8.868
     5   6 C        2.924     0.061    26.641     8.464
     6   7 N        2.752    -0.077    22.734     7.081
     7   6 C        2.924     0.061    26.640     8.464
     8   6 C        2.921    -0.050    29.237     8.867
     9   6 C        2.925    -0.040    29.005     8.832
    10   6 C        2.965     0.008    27.836     8.654
    11   6 C        3.757    -0.108    22.609     6.779
    12   6 C        2.924    -0.040    28.992     8.830
    13   6 C        2.921    -0.050    29.246     8.868
    14   6 C        2.925     0.062    26.620     8.461
    15   6 C        2.922    -0.051    29.264     8.871
    16   6 C        2.924    -0.040    28.997     8.831
    17   6 C        2.983    -0.000    28.025     8.684
    18   6 C        3.911     0.011    20.332     6.409
    19   6 C        2.979     0.007    27.861     8.658
    20   6 C        2.928    -0.036    28.900     8.816
    21   6 C        2.921    -0.050    29.239     8.867
    22   6 C        2.925     0.061    26.627     8.462
    23   7 N        2.752    -0.078    22.746     7.083
    24   6 C        2.924     0.061    26.637     8.464
    25   6 C        2.921    -0.050    29.254     8.870
    26   6 C        2.924    -0.040    28.993     8.830
    27   6 C        2.965     0.008    27.843     8.655
    28   6 C        3.757    -0.107    22.606     6.779
    29   6 C        2.925    -0.040    29.006     8.832
    30   6 C        2.921    -0.050    29.241     8.868
    31   6 C        2.924     0.061    26.639     8.464
    32   6 C        2.921    -0.050    29.236     8.867
    33   6 C        2.925    -0.040    28.989     8.830
    34   6 C        2.965     0.008    27.838     8.654
    35   6 C        3.757    -0.107    22.604     6.779
    36   6 C        2.925    -0.040    29.001     8.831
    37   6 C        2.921    -0.050    29.239     8.867
    38   6 C        2.922    -0.051    29.277     8.873
    39   6 C        2.924    -0.038    28.955     8.824
    40   6 C        3.812    -0.054    21.540     6.606
    41   6 C        3.805    -0.055    21.558     6.610
    42   6 C        3.806    -0.055    21.551     6.609
    43   6 C        3.806    -0.053    21.522     6.604
    44   6 C        3.813    -0.057    21.589     6.613
    45   6 C        2.927    -0.037    28.921     8.819
    46   6 C        2.921    -0.050    29.234     8.867
    47   6 C        2.921    -0.050    29.235     8.867
    48   6 C        2.925    -0.040    28.993     8.830
    49   1 H        0.925     0.040     2.454     2.450
    50   1 H        0.925     0.042     2.418     2.432
    51   1 H        0.924     0.044     2.396     2.420
    52   1 H        0.926     0.029     2.603     2.523
    53   1 H        0.926     0.030     2.584     2.514
    54   1 H        0.926     0.030     2.582     2.513
    55   1 H        0.926     0.030     2.590     2.516
    56   1 H        0.925     0.043     2.407     2.426
    57   1 H        0.925     0.039     2.458     2.452
    58   1 H        0.925     0.044     2.400     2.423
    59   1 H        0.926     0.029     2.604     2.523
    60   1 H        0.926     0.030     2.586     2.515
    61   1 H        0.926     0.030     2.584     2.514
    62   1 H        0.926     0.033     2.542     2.493
    63   1 H        0.926     0.028     2.611     2.527
    64   1 H        0.926     0.029     2.598     2.521
    65   1 H        0.926     0.030     2.588     2.516
    66   1 H        0.926     0.028     2.608     2.525
    67   1 H        0.925     0.043     2.413     2.429
    68   1 H        0.925     0.039     2.459     2.452
    69   1 H        0.925     0.044     2.401     2.423
    70   1 H        0.926     0.029     2.594     2.519
    71   1 H        0.926     0.029     2.594     2.519
    72   1 H        0.926     0.030     2.584     2.514
    73   1 H        0.926     0.029     2.605     2.524
    74   1 H        0.924     0.044     2.392     2.419
    75   1 H        0.925     0.041     2.440     2.443
    76   1 H        0.925     0.041     2.437     2.441
    77   1 H        0.926     0.029     2.598     2.521
    78   1 H        0.926     0.030     2.582     2.513
    79   1 H        0.926     0.028     2.609     2.526
    80   1 H        0.926     0.035     2.520     2.482
    81   1 H        0.924     0.030     2.580     2.512
    82   1 H        0.924     0.030     2.589     2.516
    83   1 H        0.924     0.025     2.653     2.547
    84   1 H        0.924     0.036     2.506     2.476
    85   1 H        0.924     0.025     2.661     2.551
    86   1 H        0.924     0.029     2.597     2.520
    87   1 H        0.924     0.025     2.654     2.548
    88   1 H        0.924     0.031     2.567     2.506
    89   1 H        0.924     0.034     2.524     2.485
    90   1 H        0.925     0.031     2.577     2.511
    91   1 H        0.926     0.029     2.594     2.518
    92   1 H        0.926     0.030     2.582     2.513
    93   1 H        0.926     0.030     2.583     2.513
    94   1 H        0.926     0.029     2.598     2.521

molecular dipole:
                 x           y           z       tot (Debye)
 q only:       -0.025      -0.014       0.008
   full:       -0.024      -0.090       0.014       0.240

 projected vibrational frequencies (cm⁻¹)
eigval :       -0.00    -0.00    -0.00     0.00     0.00     0.00
eigval :      -13.59   -12.43     3.85     4.99     7.99     9.32
eigval :       12.79    24.41    31.68    32.27    38.04    40.48
eigval :       45.25    47.90    56.66    60.85    62.26    75.76
eigval :       96.83   101.70   107.95   125.18   137.76   143.67
eigval :      150.36   155.74   168.04   176.87   190.80   215.11
eigval :      236.54   252.13   259.48   260.07   273.95   281.48
eigval :      295.85   311.88   318.46   325.86   334.92   339.08
eigval :      350.58   356.12   363.78   366.78   373.56   378.69
eigval :      379.71   381.17   383.20   387.26   390.35   401.81
eigval :      410.18   413.61   427.32   439.32   469.16   473.94
eigval :      487.62   489.04   489.90   510.80   513.37   525.28
eigval :      545.41   556.41   565.42   583.28   605.09   609.62
eigval :      610.63   612.20   612.70   613.12   620.22   660.30
eigval :      661.83   663.19   666.23   671.30   685.88   697.10
eigval :      719.10   793.11   794.27   801.07   801.64   802.28
eigval :      804.62   812.99   817.26   820.43   823.16   827.82
eigval :      845.66   868.92   870.81   871.08   871.74   873.39
eigval :      873.79   894.04   908.98   912.59   913.10   914.20
eigval :      915.34   915.43   918.87   925.71   925.80   926.21
eigval :      927.20   927.83   929.17   930.34   935.50   935.79
eigval :      943.39   954.75   964.08   974.24  1001.01  1008.45
eigval :     1008.45  1008.67  1008.94  1011.65  1019.81  1029.75
eigval :     1029.89  1030.07  1033.44  1033.48  1033.54  1033.55
eigval :     1039.51  1096.00  1097.81  1123.13  1136.31  1144.54
eigval :     1145.06  1145.88  1146.98  1151.42  1154.37  1156.05
eigval :     1187.54  1187.98  1198.01  1199.39  1202.44  1203.70
eigval :     1205.15  1209.61  1214.52  1219.77  1224.75  1237.91
eigval :     1238.24  1252.89  1255.00  1258.85  1259.95  1274.68
eigval :     1275.20  1279.29  1280.14  1281.18  1283.68  1291.49
eigval :     1317.30  1317.59  1326.13  1328.16  1328.78  1329.03
eigval :     1329.86  1334.05  1337.30  1338.44  1339.99  1342.33
eigval :     1351.89  1356.90  1365.05  1405.07  1405.23  1405.39
eigval :     1405.49  1405.99  1407.55  1418.77  1419.84  1422.76
eigval :     1423.17  1482.17  1482.80  1482.98  1483.57  1484.49
eigval :     1486.26  1487.06  1487.26  1487.85  1487.94  1489.82
eigval :     1492.12  1495.37  1496.15  1496.41  1496.77  1497.03
eigval :     1500.71  1513.03  1562.93  1564.03  1572.30  1572.70
eigval :     1575.26  1575.40  1602.46  1604.94  1608.39  1608.92
eigval :     1610.85  1611.23  2953.59  2958.61  2963.16  2964.47
eigval :     2970.59  2981.13  2983.06  2988.40  2990.34  2994.23
eigval :     2997.55  2999.52  3000.94  3002.51  3016.56  3017.59
eigval :     3024.70  3033.54  3036.55  3041.86  3043.40  3043.79
eigval :     3069.70  3069.73  3069.88  3070.24  3071.71  3071.98
eigval :     3072.37  3072.72  3077.28  3077.74  3079.21  3080.49
eigval :     3085.33  3085.66  3086.29  3086.60  3087.16  3087.38
eigval :     3088.39  3088.46  3089.62  3090.98  3106.36  3107.05

   temp. (K)  partition function   enthalpy   heat capacity  entropy
                                   cal/mol     cal/K/mol   cal/K/mol   J/K/mol
 298.15  VIB  0.132E+26            26490.461    155.843    172.720
         ROT  0.101E+09              888.752      2.981     39.607
         INT  0.134E+34            27379.213    158.824    212.326
         TR   0.152E+29             1481.254      4.968     45.169
         TOT                       28860.4670   163.7922   257.4951  1077.3596

       T/K    H(0)-H(T)+PV         H(T)/Eh          T*S/Eh         G(T)/Eh
   ------------------------------------------------------------------------
    298.15    0.459921E-01    0.824025E+00    0.122344E+00    0.701681E+00
   ------------------------------------------------------------------------

         :::::::::::::::::::::::::::::::::::::::::::::::::::::
         ::                  THERMODYNAMIC                  ::
         :::::::::::::::::::::::::::::::::::::::::::::::::::::
         :: total free energy        -127.166695439804 Eh   ::
         ::.................................................::
         :: total energy             -127.868376632555 Eh   ::
         :: zero point energy           0.778033352748 Eh   ::
         :: G(RRHO) w/o ZPVE           -0.076352159997 Eh   ::
         :: G(RRHO) contrib.            0.701681192751 Eh   ::
         :::::::::::::::::::::::::::::::::::::::::::::::::::::

           -------------------------------------------------
          | TOTAL ENERGY             -127.868376632555 Eh   |
          | TOTAL ENTHALPY           -127.044351198071 Eh   |
          | TOTAL FREE ENERGY        -127.166695439804 Eh   |
          | GRADIENT NORM               0.000076009766 Eh/α |
          | HOMO-LUMO GAP               3.044393467376 eV   |
           -------------------------------------------------

 * finished run on 2025/09/04 at 20:45:54.068
