   * xtb version 6.7.1 (edcfbbe) compiled by 'albert@albert-system' on 2024-07-22

   ID    Z sym.   atoms
    1    6 C      1-5, 7-22, 24-48
    2    7 N      6, 23
    3    1 H      49-94

          program call               : xtb data2507/gas/TPA-BT-Q/TPA-BT-Q_gas_T1_crest.xyz --gfn 2 --spinpol --tblite --uhf 2 --ohess vtight --parallel 40 --molden --ceasefiles --namespace data2507/gas/TPA-BT-Q/TPA-BT-Q_gas_T1_finalOpt
 * total energy  :  -127.7657675 Eh     change        0.3869187E-07 Eh
 * total energy  :  -127.7657815 Eh     change       -0.1395481E-04 Eh
 * total energy  :  -127.7657872 Eh     change       -0.5730878E-05 Eh
 * total energy  :  -127.7657895 Eh     change       -0.2268567E-05 Eh
 * total energy  :  -127.7657920 Eh     change       -0.2556410E-05 Eh
 * total energy  :  -127.7657938 Eh     change       -0.1734047E-05 Eh
 * total energy  :  -127.7657961 Eh     change       -0.2298524E-05 Eh
 * total energy  :  -127.7657978 Eh     change       -0.1683477E-05 Eh
 * total energy  :  -127.7657986 Eh     change       -0.7997287E-06 Eh
 * total energy  :  -127.7657992 Eh     change       -0.6281304E-06 Eh
 * total energy  :  -127.7658081 Eh     change       -0.3818773E-06 Eh
 * total energy  :  -127.7658086 Eh     change       -0.5085459E-06 Eh
 * total energy  :  -127.7658090 Eh     change       -0.3220061E-06 Eh
 * total energy  :  -127.7658091 Eh     change       -0.1768056E-06 Eh
 * total energy  :  -127.7658094 Eh     change       -0.3094656E-06 Eh
 * total energy  :  -127.7658096 Eh     change       -0.1775481E-06 Eh
 * total energy  :  -127.7658098 Eh     change       -0.1632564E-06 Eh
 * total energy  :  -127.7658099 Eh     change       -0.1371155E-06 Eh
 * total energy  :  -127.7658100 Eh     change       -0.7263142E-07 Eh
   *** GEOMETRY OPTIMIZATION CONVERGED AFTER 38 ITERATIONS ***

 final structure:
================
94
 xtb: 6.7.1 (edcfbbe)
C           -2.41817789139366       -3.57135682955082       -3.70470724739819
C           -2.22216052318130       -2.22968544569985       -3.06800954533639
C           -3.18285370460199       -1.23044540082368       -3.20230959707743
C           -3.00787660004245        0.01167605400000       -2.63090427533914
C           -1.85712746787953        0.29193354636221       -1.88830337695973
N           -1.67393061301404        1.54593986372183       -1.30120563010495
C           -2.76434066854874        2.23910109361185       -0.77460835349506
C           -3.81859769887014        1.56092420623606       -0.15779832293516
C           -4.87992354451337        2.26271682975320        0.37568186583344
C           -4.92834423916558        3.65131811703967        0.31942949086035
C           -6.07189657685777        4.41633619381613        0.91225283909861
C           -3.87368878049913        4.32194106888929       -0.29546590928032
C           -2.80826811269006        3.63501292540333       -0.83554008330629
C           -0.38642663145047        2.04450760210662       -1.15623348298664
C            0.00991653277585        2.77260365842054       -0.00788152043114
C            1.32177190229568        3.05616092593869        0.21591493708809
C            2.35275832362769        2.61356251085689       -0.67377359595990
C            3.77949529626703        2.42524064441507       -0.20916642795666
C            3.33341527031943        1.08943346463793        0.33664333191714
C            2.74951137150764        0.96943584105474        1.63770495766379
C            1.92326987562505       -0.06319146098098        1.95260233417113
C            1.64481662061958       -1.08786240635950        1.01719338366024
N            0.64070036658765       -2.01434388453482        1.26326014731614
C            0.74684600605459       -3.31845257754028        0.77830036650384
C           -0.36387316616649       -3.98204812387560        0.25070331676424
C           -0.23754340814800       -5.26227144340728       -0.24676593417777
C            0.98771906351181       -5.92099892682794       -0.24273510916997
C            1.11862136952702       -7.31759027503249       -0.76867211212032
C            2.09079067836105       -5.25472397604725        0.28438235953351
C            1.97975927858980       -3.97653894241424        0.78811973214890
C           -0.52719076471450       -1.60083158775918        1.90831078892377
C           -1.00562570454248       -0.29700430067696        1.75415907798093
C           -2.15631921630320        0.10506588111986        2.39816995189953
C           -2.87437829339400       -0.76968855518584        3.20562794945311
C           -4.12342874639759       -0.32873128530470        3.90513018495736
C           -2.39050390042502       -2.06610821759482        3.36211832244591
C           -1.23581108354362       -2.47942673507864        2.73298890542257
C            2.40061395854800       -1.10479405925492       -0.18063008615056
C            3.21894477686511       -0.06551734473749       -0.50011189930015
C            4.83793498101420        2.36434577618009       -1.31433227319569
C            6.18179367217549        1.91103385666263       -0.74900910852809
C            6.66873214396438        2.87640249884947        0.32406456207362
C            5.61506134245888        2.99914132874224        1.41738673059344
C            4.27659511146053        3.43676064523381        0.82779298159182
C            1.90065662969701        2.10636761050529       -1.93350638121739
C            0.59196125872747        1.81182377390106       -2.15261585494595
C           -0.88733658669177       -0.70568056719727       -1.75750945508198
C           -1.07165787840336       -1.93982472477642       -2.34341764565774
H           -1.72415631361452       -4.29878639520041       -3.29043589397144
H           -3.43613369820882       -3.92596542425032       -3.55241972351549
H           -2.24553883539917       -3.50816791525496       -4.77980839448541
H           -4.07951673948948       -1.43008557625958       -3.77194820584079
H           -3.75798372467063        0.77850848264892       -2.75907294975843
H           -3.78963853948606        0.48349397756310       -0.08900160304578
H           -5.68442107705035        1.72007102080446        0.85204830912830
H           -5.75297673320137        4.93031461953190        1.81975076167900
H           -6.89450953726231        3.75238226766180        1.16630880706703
H           -6.43213343074698        5.17038936897703        0.21432352782006
H           -3.89637710052773        5.40069783166530       -0.35676278870023
H           -2.00382045387000        4.16690899517964       -1.32197578935310
H           -0.73851144151198        3.07170730083140        0.71191948918074
H            1.58538499997841        3.59678193416256        1.11059644528009
H            2.95609118783068        1.71597275009655        2.38764160530904
H            1.47248546234088       -0.12336693214094        2.93334627975356
H           -1.31871491630983       -3.47827267484057        0.22016803293283
H           -1.10698173449324       -5.75757138431117       -0.65583770047335
H            2.05851386372160       -7.44350265737256       -1.30256313765031
H            0.29694834445374       -7.55983386314360       -1.43866206887025
H            1.10529903957817       -8.03185013686113        0.05579427078323
H            3.05038236457769       -5.75147249324720        0.30428116267303
H            2.84155734790286       -3.47578747883220        1.20433357647560
H           -0.47256070736655        0.39600093340212        1.12243381665099
H           -2.51166997201344        1.11647386439369        2.26053016761926
H           -4.49962718643847        0.59617512448424        3.47448640980323
H           -3.92297408896962       -0.15623060195195        4.96329795728000
H           -4.89579498336696       -1.09263206610195        3.83404028639792
H           -2.92639204350617       -2.75938921609424        3.99499596459492
H           -0.86851518202268       -3.48494244431031        2.87857706841046
H            2.29297318086932       -1.93726441983897       -0.86114840011670
H            3.76064050994059       -0.10453960296878       -1.43145978309197
H            4.93976559130630        3.36147142521631       -1.75041595932974
H            4.54807517970676        1.68655381408441       -2.11422429834150
H            6.91622131295125        1.84535415729758       -1.55537031373969
H            6.06666843373745        0.91535925692105       -0.31431607328951
H            7.61192990583745        2.52432565897572        0.74763907431768
H            6.84749890781764        3.85798089020617       -0.12240515062914
H            5.93858382823518        3.72137923264533        2.17085198188874
H            5.49066509094206        2.03113219203375        1.90795469934098
H            4.39382583593727        4.40379707178032        0.33170467168875
H            3.56032994746964        3.57247285445402        1.63523879484763
H            2.60896453859832        1.94521654361155       -2.73022081140779
H            0.27384906149497        1.40618789135154       -3.10282068522846
H            0.00801946467857       -0.50804685457564       -1.18945551030920
H           -0.31141482742449       -2.69884553221910       -2.22477861686797

 projected vibrational frequencies (cm⁻¹)
eigval :       -0.00    -0.00    -0.00     0.00     0.00     0.00
eigval :       -4.66    12.10    13.01    20.04    26.89    27.50
eigval :       30.92    31.54    36.45    38.42    43.96    49.64
eigval :       51.83    64.87    67.56    79.54    82.51    89.23
eigval :      104.51   107.94   111.57   131.14   140.58   150.63
eigval :      155.37   162.15   167.95   183.74   205.73   225.57
eigval :      238.42   246.46   260.44   261.12   271.11   272.95
eigval :      293.51   306.66   311.91   316.05   328.65   330.05
eigval :      335.72   353.04   354.91   356.27   366.02   382.03
eigval :      387.30   387.48   390.82   394.49   398.70   399.78
eigval :      411.03   417.13   418.72   424.82   440.83   443.96
eigval :      471.09   475.07   486.51   499.61   500.47   515.57
eigval :      532.12   534.80   541.40   576.44   591.07   595.36
eigval :      600.84   609.24   610.59   610.92   611.38   621.05
eigval :      628.40   656.02   659.86   660.15   663.03   666.21
eigval :      707.69   754.21   777.60   783.53   789.41   791.62
eigval :      796.37   801.60   803.58   803.69   806.05   808.39
eigval :      818.06   820.53   822.43   865.99   867.32   870.37
eigval :      874.15   878.44   882.29   890.22   891.84   894.52
eigval :      901.43   903.08   906.47   913.95   914.37   915.71
eigval :      919.33   924.20   927.49   928.53   929.25   930.33
eigval :      931.78   946.06   953.06   973.01   974.19   977.22
eigval :      997.24  1006.77  1007.34  1008.78  1009.02  1014.72
eigval :     1015.62  1023.87  1024.10  1030.70  1030.85  1030.92
eigval :     1031.10  1087.58  1091.50  1106.57  1119.36  1138.18
eigval :     1143.44  1143.76  1147.33  1147.75  1148.50  1150.11
eigval :     1155.25  1174.38  1183.45  1192.10  1194.45  1201.60
eigval :     1201.97  1205.41  1212.71  1219.58  1222.61  1230.35
eigval :     1236.77  1239.62  1247.36  1249.88  1253.19  1257.38
eigval :     1259.46  1273.79  1274.48  1279.31  1280.39  1306.29
eigval :     1308.77  1313.72  1317.25  1320.30  1324.62  1326.43
eigval :     1330.23  1333.10  1333.74  1335.21  1335.75  1339.94
eigval :     1342.51  1355.16  1359.88  1365.91  1375.68  1402.95
eigval :     1402.98  1403.86  1404.02  1413.07  1413.66  1417.74
eigval :     1419.46  1426.73  1430.48  1475.79  1476.71  1480.49
eigval :     1480.74  1480.78  1481.75  1481.83  1482.82  1483.00
eigval :     1483.21  1484.91  1485.37  1486.90  1487.09  1487.38
eigval :     1488.75  1494.05  1495.49  1500.80  1510.52  1534.90
eigval :     1536.44  1543.72  1545.92  1581.59  1582.39  1588.35
eigval :     1595.62  1612.96  2956.23  2956.57  2961.05  2964.23
eigval :     2966.80  2977.67  2978.76  2984.25  2989.58  2991.25
eigval :     2991.34  2993.01  3016.56  3017.35  3020.09  3021.26
eigval :     3021.64  3027.05  3036.88  3039.12  3039.13  3041.05
eigval :     3065.66  3065.87  3069.00  3069.30  3070.44  3070.73
eigval :     3071.04  3071.43  3073.58  3073.92  3074.08  3074.29
eigval :     3084.63  3084.96  3087.68  3087.88  3089.44  3089.83
eigval :     3094.16  3096.05  3100.88  3101.66  3105.50  3108.14

   temp. (K)  partition function   enthalpy   heat capacity  entropy
                                   cal/mol     cal/K/mol   cal/K/mol   J/K/mol
 298.15  VIB  0.190E+23            26484.919    160.010    167.972
         ROT  0.617E+08              888.752      2.981     38.627
         INT  0.117E+31            27373.671    162.991    206.599
         TR   0.152E+29             1481.254      4.968     45.169
         TOT                       28854.9254   167.9587   251.7680  1053.3973

       T/K    H(0)-H(T)+PV         H(T)/Eh          T*S/Eh         G(T)/Eh
   ------------------------------------------------------------------------
    298.15    0.459833E-01    0.819389E+00    0.119623E+00    0.699766E+00
   ------------------------------------------------------------------------

         :::::::::::::::::::::::::::::::::::::::::::::::::::::
         ::                  THERMODYNAMIC                  ::
         :::::::::::::::::::::::::::::::::::::::::::::::::::::
         :: total free energy        -127.066044328554 Eh   ::
         ::.................................................::
         :: total energy             -127.765810012942 Eh   ::
         :: zero point energy           0.773405531161 Eh   ::
         :: G(RRHO) w/o ZPVE           -0.073639846772 Eh   ::
         :: G(RRHO) contrib.            0.699765684389 Eh   ::
         :::::::::::::::::::::::::::::::::::::::::::::::::::::

           -------------------------------------------------
          | TOTAL ENERGY             -127.765810012942 Eh   |
          | TOTAL ENTHALPY           -126.946421231221 Eh   |
          | TOTAL FREE ENERGY        -127.066044328554 Eh   |
          | GRADIENT NORM               0.000083478275 Eh/α |
           -------------------------------------------------

 * finished run on 2025/09/04 at 21:00:08.048
