   * xtb version 6.7.1 (edcfbbe) compiled by 'albert@albert-system' on 2024-07-22

   ID    Z sym.   atoms
    1    6 C      1-5, 7-22, 24-48
    2    7 N      6, 23
    3    1 H      49-94

          program call               : xtb data2507/gas/TPA-BT-Q/TPA-BT-Q.xyz --gfn 2 --ohess vtight --parallel 40 --molden --ceasefiles --namespace data2507/gas/TPA-BT-Q/TPA-BT-Q_gas_S0_preOpt
          :  Hamiltonian                  GFN2-xTB          :
 * total energy  :  -127.8408569 Eh     change       -0.3130737E-08 Eh
 * total energy  :  -127.8555633 Eh     change       -0.1470646E-01 Eh
 * total energy  :  -127.8618561 Eh     change       -0.6292735E-02 Eh
 * total energy  :  -127.8646429 Eh     change       -0.2786887E-02 Eh
 * total energy  :  -127.8661391 Eh     change       -0.1496166E-02 Eh
 * total energy  :  -127.8666452 Eh     change       -0.5060715E-03 Eh
 * total energy  :  -127.8668594 Eh     change       -0.2142156E-03 Eh
 * total energy  :  -127.8670537 Eh     change       -0.1942568E-03 Eh
 * total energy  :  -127.8672116 Eh     change       -0.1579571E-03 Eh
 * total energy  :  -127.8673297 Eh     change       -0.1181348E-03 Eh
 * total energy  :  -127.8680496 Eh     change       -0.6390850E-06 Eh
 * total energy  :  -127.8680502 Eh     change       -0.5394103E-06 Eh
 * total energy  :  -127.8680506 Eh     change       -0.4634814E-06 Eh
 * total energy  :  -127.8680511 Eh     change       -0.4403295E-06 Eh
 * total energy  :  -127.8680516 Eh     change       -0.4976672E-06 Eh
 * total energy  :  -127.8680522 Eh     change       -0.6502545E-06 Eh
 * total energy  :  -127.8680532 Eh     change       -0.9593598E-06 Eh
 * total energy  :  -127.8680545 Eh     change       -0.1334346E-05 Eh
 * total energy  :  -127.8680545 Eh     change       -0.8942450E-08 Eh
   *** GEOMETRY OPTIMIZATION CONVERGED AFTER 94 ITERATIONS ***

 final structure:
================
94
 xtb: 6.7.1 (edcfbbe)
C           -7.02931191309192        1.20265887532081       -5.13964478056414
C           -6.37156533662133        0.86396514167337       -3.83612456518569
C           -5.76341151276622        1.84638425534660       -3.06439355269616
C           -5.18150642019415        1.54393800146653       -1.84959441296624
C           -5.18444153524153        0.23375908882051       -1.37278475729215
N           -4.59608303633192       -0.07931280882943       -0.14338651888407
C           -5.16819647931257       -1.05450874791990        0.68107948582939
C           -6.55329281651777       -1.18254069412906        0.77839902108192
C           -7.10909556672426       -2.14936529439735        1.59133247048724
C           -6.31119069158907       -3.00886296596627        2.33778597435063
C           -6.92652556148424       -4.06605391236614        3.20393301584773
C           -4.93202596562906       -2.87317087710712        2.24095448645271
C           -4.36304813590685       -1.91639635601423        1.42417177356221
C           -3.43558773619130        0.58441046216013        0.26755906895309
C           -2.43659930051951        0.91279571452736       -0.64839073743182
C           -1.29611208522145        1.56406328689524       -0.23120440435849
C           -1.09948067384221        1.91465345740643        1.10330620860828
C            0.19125630783124        2.63169588080107        1.48501290474776
C            1.31190738415048        1.73963732403782        0.96988905382683
C            1.51467688204782        0.50116865782302        1.57586542258143
C            2.48989255941843       -0.37066326195826        1.14130752226496
C            3.29626039856573       -0.04221279514457        0.05266212778198
N            4.29108359982162       -0.91680098230911       -0.39524805179110
C            5.50417270066686       -0.40800034608590       -0.87069209426520
C            6.16073320580453       -1.01426868178512       -1.94068412007419
C            7.36274518782342       -0.51202907625680       -2.39762510619700
C            7.94296376170187        0.60826100464859       -1.81551592604216
C            9.23559116311299        1.16487656173811       -2.33100272411723
C            7.28039130920075        1.21317481029337       -0.75393476469405
C            6.08314076153372        0.71544404001637       -0.28129528917964
C            4.07151044793649       -2.29836101948007       -0.36919862150102
C            5.10837834277433       -3.17747000614891       -0.05825435238587
C            4.88633627892513       -4.53933036746394       -0.03913224480395
C            3.63104028895587       -5.06853241425943       -0.31614169737696
C            3.40661195675206       -6.55046707458599       -0.30940846696560
C            2.60042989815860       -4.18768767449589       -0.61903593492629
C            2.81145364891767       -2.82353178295797       -0.65151964253271
C            3.07409944919876        1.17398207546456       -0.58704423171283
C            2.09813152245886        2.04200535744493       -0.13606849582242
C            0.15575600124329        4.03725824155490        0.85068938333357
C            1.35823012717457        4.90349293111729        1.22494802929992
C            1.50517630599651        5.01895279044037        2.73697514391139
C            1.58518317650865        3.62514132122129        3.34682898174744
C            0.32395677820952        2.83878170897944        3.00424789785700
C           -2.09575222619901        1.57726004229880        2.00980312980869
C           -3.24595268275220        0.92734141669639        1.60324590138095
C           -5.78665691589734       -0.75760432910974       -2.14686998850481
C           -6.37356558466955       -0.43997536744511       -3.35492939048070
H           -6.57222635760921        2.08155893737545       -5.58843321917254
H           -6.95674588730400        0.37138681437716       -5.83761592460345
H           -8.08728768162688        1.41642822252732       -4.98113728171040
H           -5.75190382094445        2.86846839963572       -3.41584747561747
H           -4.72137780141726        2.32302305505807       -1.25948193702939
H           -7.18923349661859       -0.51578195283221        0.21451073889581
H           -8.18483191843050       -2.23244063131149        1.65582436185520
H           -6.23968937079305       -4.37350329672505        3.98893323015372
H           -7.17243793062866       -4.94460866873015        2.60590418137884
H           -7.84586432581244       -3.70521040068627        3.66050656476229
H           -4.29042117764573       -3.53246897410791        2.80837168722382
H           -3.28838417529453       -1.83069117227306        1.35517952922204
H           -2.55950369333965        0.64560550580148       -1.68787870512493
H           -0.52976455637511        1.78742592250690       -0.95887636327393
H            0.89262920528503        0.20080865030034        2.40552003345910
H            2.63131381878714       -1.31727538267084        1.64217019473752
H            5.72105049309760       -1.88169889449366       -2.41099759683188
H            7.85626804770903       -0.99658933735292       -3.22821544031006
H            9.81590858258812        1.60687480383054       -1.52389269441638
H            9.04074854830141        1.94369709542693       -3.06963197597491
H            9.82923225682395        0.38893974506458       -2.80873247250321
H            7.71522419484287        2.08293332596660       -0.28189566768137
H            5.58909458570513        1.19126037784914        0.55328855545874
H            6.08779933241803       -2.78375303049352        0.17132523004108
H            5.70176349999854       -5.20523503907234        0.20567872512698
H            2.35649815650604       -6.78354682785934       -0.15007602800819
H            3.99662736951565       -7.02749737036169        0.47047350700686
H            3.70735407127913       -6.97961418335191       -1.26615423510165
H            1.61609630904912       -4.57477080557149       -0.84145517310139
H            1.99910576353860       -2.15502929876129       -0.89703716001704
H            3.66851341648485        1.43565098538608       -1.45067313114540
H            1.95165483666755        2.95831275378501       -0.68527038278309
H           -0.75437525984738        4.52963902188043        1.20543968911705
H            0.07244878681104        3.96309613251131       -0.23444092193224
H            1.23316090573049        5.89558049214372        0.78380015827040
H            2.27497270672824        4.47189555427645        0.82187905746840
H            2.40134652287936        5.59321800127034        2.98133261012914
H            0.64416985697491        5.54806468590831        3.15328567468512
H            1.68814813415154        3.69588566757626        4.43209987242228
H            2.46164282995904        3.10156839848355        2.95830925887850
H           -0.53834505165129        3.40752448894609        3.35941166456021
H            0.33623598743446        1.88225522475364        3.52634019461480
H           -1.99679036342257        1.82019447901082        3.05558461380529
H           -4.00905674627822        0.68183490030788        2.32762495965120
H           -5.78791177667405       -1.77890408380557       -1.79488151581550
H           -6.83456509574903       -1.22246690347299       -3.94104012205687

          :  Hamiltonian                  GFN2-xTB          :
         :: gradient norm              0.000063916529 Eh/a0 ::
         :: HOMO-LUMO gap              3.052983983395 eV    ::
         :: SCC energy              -130.171913834649 Eh    ::
         :: -> dispersion             -0.119513214508 Eh    ::
         :: repulsion energy           2.303859300016 Eh    ::

    * Orbital Energies and Occupations

         #    Occupation            Energy/Eh            Energy/eV
      -------------------------------------------------------------
         1        2.0000           -0.6554518             -17.8357
       ...           ...                  ...                  ...
       108        2.0000           -0.4010186             -10.9123
       109        2.0000           -0.3996890             -10.8761
       110        2.0000           -0.3988566             -10.8534
       111        2.0000           -0.3968793             -10.7996
       112        2.0000           -0.3966854             -10.7944
       113        2.0000           -0.3964086             -10.7868
       114        2.0000           -0.3951004             -10.7512
       115        2.0000           -0.3910433             -10.6408
       116        2.0000           -0.3897757             -10.6063
       117        2.0000           -0.3895901             -10.6013
       118        2.0000           -0.3855506             -10.4914
       119        2.0000           -0.3389296              -9.2227
       120        2.0000           -0.3365287              -9.1574 (HOMO)
       121                         -0.2243336              -6.1044 (LUMO)
       122                         -0.2202158              -5.9924
       123                         -0.2200663              -5.9883
       124                         -0.2196073              -5.9758
       125                         -0.2186189              -5.9489
       126                         -0.2172495              -5.9117
       127                         -0.2133879              -5.8066
       128                         -0.2132410              -5.8026
       129                         -0.2128644              -5.7923
       130                         -0.2120747              -5.7708
       131                         -0.1862060              -5.0669
       ...                                ...                  ...
       238                          0.6783956              18.4601
      -------------------------------------------------------------
                  HL-Gap            0.1121951 Eh            3.0530 eV

     #   Z          covCN         q      C6AA      α(0)
     1   6 C        3.757    -0.108    22.608     6.779
     2   6 C        2.965     0.008    27.839     8.654
     3   6 C        2.925    -0.040    28.998     8.831
     4   6 C        2.921    -0.050    29.247     8.869
     5   6 C        2.924     0.061    26.640     8.464
     6   7 N        2.752    -0.077    22.737     7.082
     7   6 C        2.924     0.061    26.640     8.464
     8   6 C        2.921    -0.050    29.235     8.867
     9   6 C        2.925    -0.040    29.002     8.832
    10   6 C        2.965     0.008    27.833     8.654
    11   6 C        3.757    -0.108    22.609     6.779
    12   6 C        2.925    -0.040    28.995     8.831
    13   6 C        2.921    -0.050    29.236     8.867
    14   6 C        2.924     0.062    26.622     8.461
    15   6 C        2.921    -0.050    29.234     8.867
    16   6 C        2.927    -0.037    28.924     8.820
    17   6 C        2.981    -0.000    28.024     8.684
    18   6 C        3.910     0.011    20.333     6.409
    19   6 C        2.978     0.007    27.867     8.659
    20   6 C        2.928    -0.036    28.903     8.817
    21   6 C        2.921    -0.050    29.253     8.870
    22   6 C        2.924     0.061    26.629     8.463
    23   7 N        2.752    -0.077    22.744     7.083
    24   6 C        2.924     0.061    26.636     8.464
    25   6 C        2.921    -0.050    29.242     8.868
    26   6 C        2.925    -0.040    28.997     8.831
    27   6 C        2.965     0.008    27.837     8.654
    28   6 C        3.757    -0.108    22.607     6.779
    29   6 C        2.925    -0.040    29.002     8.831
    30   6 C        2.921    -0.050    29.237     8.867
    31   6 C        2.924     0.061    26.639     8.464
    32   6 C        2.921    -0.050    29.239     8.867
    33   6 C        2.925    -0.040    29.003     8.832
    34   6 C        2.965     0.008    27.834     8.654
    35   6 C        3.757    -0.108    22.608     6.779
    36   6 C        2.925    -0.040    28.994     8.830
    37   6 C        2.921    -0.050    29.236     8.867
    38   6 C        2.922    -0.052    29.286     8.875
    39   6 C        2.925    -0.038    28.952     8.824
    40   6 C        3.812    -0.054    21.541     6.606
    41   6 C        3.805    -0.055    21.559     6.610
    42   6 C        3.806    -0.055    21.551     6.609
    43   6 C        3.806    -0.053    21.522     6.604
    44   6 C        3.813    -0.057    21.591     6.614
    45   6 C        2.924    -0.040    28.999     8.831
    46   6 C        2.922    -0.051    29.266     8.872
    47   6 C        2.921    -0.050    29.244     8.868
    48   6 C        2.925    -0.040    29.000     8.831
    49   1 H        0.925     0.041     2.441     2.443
    50   1 H        0.925     0.041     2.436     2.441
    51   1 H        0.924     0.044     2.391     2.418
    52   1 H        0.926     0.029     2.599     2.521
    53   1 H        0.926     0.030     2.587     2.515
    54   1 H        0.926     0.030     2.582     2.513
    55   1 H        0.926     0.029     2.594     2.519
    56   1 H        0.925     0.040     2.444     2.445
    57   1 H        0.924     0.045     2.390     2.417
    58   1 H        0.925     0.041     2.429     2.437
    59   1 H        0.926     0.029     2.596     2.520
    60   1 H        0.926     0.030     2.581     2.512
    61   1 H        0.926     0.030     2.583     2.513
    62   1 H        0.926     0.030     2.589     2.516
    63   1 H        0.926     0.028     2.608     2.526
    64   1 H        0.926     0.029     2.600     2.522
    65   1 H        0.926     0.030     2.585     2.514
    66   1 H        0.926     0.029     2.600     2.522
    67   1 H        0.925     0.041     2.435     2.440
    68   1 H        0.924     0.044     2.391     2.418
    69   1 H        0.925     0.040     2.443     2.444
    70   1 H        0.926     0.029     2.598     2.521
    71   1 H        0.926     0.030     2.592     2.517
    72   1 H        0.926     0.030     2.584     2.514
    73   1 H        0.926     0.029     2.596     2.520
    74   1 H        0.925     0.040     2.444     2.445
    75   1 H        0.925     0.041     2.431     2.438
    76   1 H        0.924     0.044     2.391     2.418
    77   1 H        0.926     0.029     2.596     2.519
    78   1 H        0.926     0.030     2.581     2.512
    79   1 H        0.926     0.028     2.613     2.528
    80   1 H        0.926     0.034     2.526     2.485
    81   1 H        0.924     0.030     2.583     2.513
    82   1 H        0.924     0.030     2.589     2.516
    83   1 H        0.924     0.025     2.654     2.548
    84   1 H        0.924     0.036     2.505     2.475
    85   1 H        0.924     0.025     2.662     2.551
    86   1 H        0.924     0.029     2.598     2.521
    87   1 H        0.924     0.025     2.656     2.549
    88   1 H        0.924     0.031     2.569     2.506
    89   1 H        0.924     0.034     2.527     2.486
    90   1 H        0.925     0.031     2.576     2.510
    91   1 H        0.926     0.033     2.542     2.493
    92   1 H        0.926     0.030     2.587     2.515
    93   1 H        0.926     0.030     2.586     2.515
    94   1 H        0.926     0.029     2.598     2.520

molecular dipole:
                 x           y           z       tot (Debye)
 q only:       -0.026      -0.014      -0.026
   full:       -0.047      -0.072      -0.077       0.294

 projected vibrational frequencies (cm⁻¹)
eigval :       -0.00    -0.00    -0.00    -0.00     0.00     0.00
eigval :        1.34     6.84     7.25     7.49     7.87     9.71
eigval :       11.64    24.64    30.63    32.46    40.02    41.59
eigval :       44.84    47.26    53.68    60.70    62.95    76.91
eigval :       96.77   101.21   108.65   126.33   139.36   143.66
eigval :      149.76   156.35   167.47   168.83   194.24   217.48
eigval :      234.87   256.76   259.91   260.56   273.81   279.47
eigval :      297.40   311.06   319.14   326.94   334.62   338.64
eigval :      353.51   357.82   363.79   366.10   373.78   379.13
eigval :      379.69   381.22   382.92   387.25   390.52   400.17
eigval :      411.00   421.55   428.29   432.88   469.99   473.10
eigval :      487.64   487.95   490.59   511.35   513.30   525.60
eigval :      543.81   553.96   568.22   582.62   605.47   609.57
eigval :      610.55   612.42   612.52   613.01   620.29   660.52
eigval :      661.48   664.01   666.19   670.71   685.48   696.75
eigval :      719.10   792.56   794.60   800.59   801.84   802.17
eigval :      805.01   812.65   817.22   820.95   823.29   828.03
eigval :      846.09   869.50   871.01   871.15   871.50   873.28
eigval :      873.85   893.55   908.67   912.92   913.48   914.64
eigval :      915.23   915.27   918.90   925.45   925.90   926.32
eigval :      927.21   927.81   929.01   930.49   935.62   935.79
eigval :      943.71   955.13   963.68   974.53  1001.31  1008.54
eigval :     1008.62  1008.78  1009.04  1011.61  1019.89  1029.61
eigval :     1029.77  1030.12  1033.19  1033.34  1033.38  1033.44
eigval :     1039.41  1095.55  1097.65  1123.11  1136.85  1144.87
eigval :     1145.01  1146.26  1146.37  1151.04  1154.77  1156.22
eigval :     1187.30  1188.17  1198.69  1198.80  1202.94  1203.45
eigval :     1205.02  1209.98  1214.61  1219.73  1225.05  1238.00
eigval :     1238.13  1252.81  1255.03  1259.17  1259.73  1274.61
eigval :     1275.21  1279.15  1280.24  1280.93  1283.60  1290.81
eigval :     1317.32  1317.77  1326.54  1327.27  1328.91  1329.34
eigval :     1329.90  1334.60  1336.30  1337.02  1339.44  1342.34
eigval :     1351.73  1356.94  1364.80  1405.15  1405.21  1405.29
eigval :     1405.35  1405.57  1407.65  1418.63  1419.95  1422.82
eigval :     1423.02  1482.34  1484.07  1484.18  1484.49  1484.51
eigval :     1486.13  1486.23  1486.53  1486.65  1487.25  1489.86
eigval :     1492.49  1495.46  1496.32  1496.48  1496.81  1497.38
eigval :     1501.41  1514.26  1562.72  1563.83  1572.22  1572.47
eigval :     1575.30  1575.36  1602.25  1604.86  1608.42  1608.56
eigval :     1610.71  1610.99  2953.55  2958.45  2962.95  2964.36
eigval :     2970.21  2981.00  2983.09  2989.94  2990.75  2990.94
eigval :     2991.52  2991.72  2998.41  3001.49  3030.34  3030.45
eigval :     3032.38  3032.96  3037.08  3037.67  3039.14  3039.24
eigval :     3070.02  3070.03  3070.28  3070.40  3071.71  3071.79
eigval :     3072.45  3072.60  3077.03  3078.11  3079.58  3080.44
eigval :     3085.41  3085.60  3086.41  3086.63  3087.22  3087.42
eigval :     3088.24  3088.30  3089.40  3091.90  3105.30  3107.06

   temp. (K)  partition function   enthalpy   heat capacity  entropy
                                   cal/mol     cal/K/mol   cal/K/mol   J/K/mol
 298.15  VIB  0.878E+26            26501.723    155.811    174.576
         ROT  0.108E+09              888.752      2.981     39.740
         INT  0.948E+34            27390.476    158.792    214.316
         TR   0.152E+29             1481.254      4.968     45.169
         TOT                       28871.7296   163.7603   259.4851  1085.6857

       T/K    H(0)-H(T)+PV         H(T)/Eh          T*S/Eh         G(T)/Eh
   ------------------------------------------------------------------------
    298.15    0.460100E-01    0.824038E+00    0.123290E+00    0.700748E+00
   ------------------------------------------------------------------------

         :::::::::::::::::::::::::::::::::::::::::::::::::::::
         ::                  THERMODYNAMIC                  ::
         :::::::::::::::::::::::::::::::::::::::::::::::::::::
         :: total free energy        -127.167306179877 Eh   ::
         ::.................................................::
         :: total energy             -127.868054534631 Eh   ::
         :: zero point energy           0.778028076695 Eh   ::
         :: G(RRHO) w/o ZPVE           -0.077279721941 Eh   ::
         :: G(RRHO) contrib.            0.700748354754 Eh   ::
         :::::::::::::::::::::::::::::::::::::::::::::::::::::

           -------------------------------------------------
          | TOTAL ENERGY             -127.868054534631 Eh   |
          | TOTAL ENTHALPY           -127.044016428141 Eh   |
          | TOTAL FREE ENERGY        -127.167306179877 Eh   |
          | GRADIENT NORM               0.000063913769 Eh/α |
          | HOMO-LUMO GAP               3.052983631841 eV   |
           -------------------------------------------------

 * finished run on 2025/09/04 at 20:29:42.692
