   * xtb version 6.7.1 (edcfbbe) compiled by 'albert@albert-system' on 2024-07-22

   ID    Z sym.   atoms
    1    6 C      1-20, 22-24, 26-46, 48-61, 63, 65-76
    2    7 N      21, 25, 47, 62, 64
    3    1 H      77-141

          program call               : xtb data2507/toluene/2tCz2CzBn/2tCz2CzBn.xyz --gfn 2 --gbsa toluene --ohess vtight --parallel 40 --molden --ceasefiles --namespace data2507/toluene/2tCz2CzBn/2tCz2CzBn_toluene_S0_preOpt
      * Solvation model:               GBSA
        Solvent                        toluene
        Solvent mass                       9.2140E+01 g/mol
          :  Hamiltonian                  GFN2-xTB          :
 * total energy  :  -200.0416989 Eh     change       -0.2952703E-08 Eh
 * total energy  :  -200.0672180 Eh     change       -0.2551912E-01 Eh
 * total energy  :  -200.0751980 Eh     change       -0.7979940E-02 Eh
 * total energy  :  -200.0776992 Eh     change       -0.2501270E-02 Eh
 * total energy  :  -200.0792636 Eh     change       -0.1564389E-02 Eh
 * total energy  :  -200.0800604 Eh     change       -0.7967496E-03 Eh
 * total energy  :  -200.0805195 Eh     change       -0.4591229E-03 Eh
 * total energy  :  -200.0808589 Eh     change       -0.3394007E-03 Eh
 * total energy  :  -200.0811025 Eh     change       -0.2435950E-03 Eh
 * total energy  :  -200.0813442 Eh     change       -0.2416655E-03 Eh
 * total energy  :  -200.0852669 Eh     change       -0.3831572E-06 Eh
 * total energy  :  -200.0852673 Eh     change       -0.3727800E-06 Eh
 * total energy  :  -200.0852678 Eh     change       -0.4780811E-06 Eh
 * total energy  :  -200.0852683 Eh     change       -0.5698279E-06 Eh
 * total energy  :  -200.0852690 Eh     change       -0.6938774E-06 Eh
 * total energy  :  -200.0852699 Eh     change       -0.8854693E-06 Eh
 * total energy  :  -200.0852701 Eh     change       -0.2265992E-06 Eh
 * total energy  :  -200.0852706 Eh     change       -0.4886144E-06 Eh
 * total energy  :  -200.0852707 Eh     change       -0.8964074E-07 Eh
   *** GEOMETRY OPTIMIZATION CONVERGED AFTER 96 ITERATIONS ***

 final structure:
================
141
 xtb: 6.7.1 (edcfbbe)
C           -6.20777490411796        5.34357633380044        0.66421053925897
C           -4.75901268862137        5.36034741994922        0.16736508196140
C           -4.75687913496362        5.88730473223552       -1.27551227628180
C           -3.95705249691988        6.31056641040156        1.06943786957272
C           -4.11445070126521        3.98130541955980        0.19859735808487
C           -2.78549221989768        3.84595834516289       -0.22157970553815
C           -2.11984162718608        2.63620244214868       -0.22120630843434
C           -2.80147158713506        1.51620167012591        0.22252429683331
C           -4.14418500445466        1.62001154240608        0.63528843836211
C           -4.79102983298828        2.84823551471827        0.62303942509415
C           -4.56603076498802        0.29371917872466        1.00134967351210
C           -5.75400421403427       -0.22825894540838        1.48596978123296
C           -5.84808529814315       -1.58094693000429        1.79102775786099
C           -7.17458612270912       -2.13765177050047        2.29032304483010
C           -7.57060837846922       -1.41686793633721        3.58771809070487
C           -8.24544608815209       -1.90080968698548        1.21486628959840
C           -7.11840305528234       -3.64075864178248        2.57969980145484
C           -4.71127501703125       -2.37834725421383        1.64095628125324
C           -3.51357134815007       -1.88276877176103        1.15809239783357
C           -3.45648851306999       -0.55014118446803        0.79478644530976
N           -2.39253894704103        0.19305517152371        0.30737958423310
C           -1.20220053487774       -0.33219338092779       -0.19547302566998
C            0.01827828416612        0.17204277689582        0.23923635224200
C            1.23056084631679       -0.35943341001577       -0.18731677761543
N            2.42710393449175        0.15364690639890        0.31421968044179
C            2.84765493258379        1.47147668313546        0.21127589373147
C            2.18451434732545        2.58618241437763       -0.27243992674646
C            2.86038913355422        3.78994863945926       -0.28729367148000
C            4.18236925374430        3.92365380948287        0.15577432747406
C            4.83929596467634        5.29629640450009        0.10525906889322
C            4.03650578013755        6.26853506728047        0.98275004378775
C            4.85539086792844        5.79785458656013       -1.34656468760273
C            6.28324393094500        5.27622760288334        0.61581187225346
C            4.84065517097042        2.79567937952600        0.62002788479832
C            4.18280473686572        1.57318017203903        0.64807324549366
C            4.58580887829192        0.25153973349477        1.04842978460980
C            5.76392746362204       -0.26233388573911        1.57287925688266
C            5.84242396755120       -1.60585128465076        1.90448683919048
C            7.10807603046865       -2.24015731509084        2.46437714155653
C            6.81985536002702       -2.79383070757305        3.86782378012400
C            8.26596806668400       -1.24332457072005        2.57511351849667
C            7.54834335173016       -3.38064540152019        1.53461361908264
C            4.70393126801538       -2.40366534755471        1.73345096865545
C            3.52039552287375       -1.91799171150388        1.21540248770064
C            3.47631301491480       -0.58820060862938        0.83315537576240
C            1.23122605183117       -1.42201373759730       -1.10895112053452
N            2.42359212892637       -1.96655978776228       -1.58590368862244
C            2.81480187089400       -3.29200255275547       -1.47956638853448
C            2.12643994478125       -4.37649636244950       -0.96059694680104
C            2.76522015883433       -5.60220154462697       -0.94480155701098
C            4.06469190216770       -5.74678227788461       -1.42278341751100
C            4.76369438144849       -4.66397277727196       -1.91947064026745
C            4.14069189309853       -3.42363213580504       -1.94531797401557
C            4.56290550984151       -2.11417751458375       -2.36239775109256
C            5.73665980231294       -1.61754209554005       -2.91263058084788
C            5.79962236403141       -0.27627742850843       -3.23761946161033
C            4.70130023825737        0.55863149292860       -3.05187066346532
C            3.52172835330517        0.08539199567157       -2.50846052910916
C            3.47404885106495       -1.24703755372430       -2.13167896866468
C            0.00126242083362       -1.91462996961966       -1.57310640462214
C           -0.00292425971767       -2.86906528944197       -2.61465033304341
N           -0.00372871838915       -3.59927231505948       -3.49955509310614
C           -1.22014230123181       -1.38738087658966       -1.12683154605783
N           -2.42266329945315       -1.88285599343577       -1.63134513181257
C           -3.43483716092378       -1.11032179173815       -2.17803133689216
C           -3.41803271538932        0.22715689009677       -2.53925281204029
C           -4.56798005640697        0.75927188655989       -3.09168085339490
C           -5.70009407409702       -0.02320968201992       -3.30064562618127
C           -5.70171253930111       -1.36938923125420       -2.99039705263412
C           -4.55874988599629       -1.92447898983200       -2.43124576324615
C           -4.20002479533960       -3.25624398186862       -2.02569235892813
C           -4.88003775276311       -4.46649342892480       -2.02007059210277
C           -4.23479132180778       -5.58731717275218       -1.53515645548306
C           -2.93287740673824       -5.50919149481555       -1.04850645456361
C           -2.23884895813920       -4.31382605640034       -1.04161074195358
C           -2.87363493334460       -3.19093144320317       -1.54701227583973
H           -6.26418851746701        4.99988570429737        1.69465691954490
H           -6.82853543988120        4.70545013820625        0.03926297119503
H           -6.61572098407356        6.35167203131127        0.62359207883946
H           -5.22691595804063        6.86777511249705       -1.31593714364005
H           -3.74653533438650        5.97890984750158       -1.66465388396953
H           -5.31232880139390        5.21185157332217       -1.92339011016873
H           -4.42111102929981        7.29457512352530        1.08243983129313
H           -2.93420809315819        6.42234274437705        0.72046103152004
H           -3.92965101992471        5.92828656073127        2.08813137193603
H           -2.24614462757331        4.71528379540419       -0.56524125308636
H           -1.09942549497148        2.57482042750571       -0.56850249160129
H           -5.81793312256777        2.89201167277118        0.94393400016451
H           -6.59579921676061        0.43167816423277        1.62510509584330
H           -7.69918390647916       -0.35030663805523        3.42590968035975
H           -8.50724515349541       -1.81900919570426        3.96818773350571
H           -6.80170473799986       -1.55657632907597        4.34525512981137
H           -7.96263573145062       -2.39967715477207        0.28999242741081
H           -9.20271702936529       -2.29901158520054        1.54501610450689
H           -8.37011678012172       -0.84210175006940        1.00522321518832
H           -6.40209992504331       -3.86240281496087        3.36782364220986
H           -6.85237534320188       -4.20219554482711        1.68670306021934
H           -8.09737970696835       -3.98078138814323        2.91200223633627
H           -4.74314151702962       -3.42135950626667        1.90757200370658
H           -2.65089126876019       -2.52788310392616        1.08082348909529
H            0.02500872775835        0.96068814523422        0.97650362804587
H            1.17161457111813        2.52347182361871       -0.64147747596033
H            2.33597162431856        4.65549053076039       -0.66218041208362
H            3.01666870027855        6.37834848621982        0.62430905926187
H            3.99995404508988        5.90638893247946        2.00848522775911
H            4.50577588800270        7.25014622922156        0.97969476676712
H            5.40588356272065        5.10332710233079       -1.97830114344988
H            3.84958823819175        5.89731691089384       -1.74533845691748
H            5.33959619003229        6.77075348171579       -1.40039828887092
H            6.32717010621410        4.95405701610976        1.65373429028470
H            6.90325204340998        4.61890948185383        0.01032185095114
H            6.70131776666867        6.27930668450539        0.55770065523203
H            5.86168837636216        2.83822011300605        0.95916407691726
H            6.59751988598555        0.40385918825084        1.71719730066622
H            7.72182158160406       -3.23307331821487        4.28885980155953
H            6.04920214948506       -3.55934811389306        3.84206858428128
H            6.48472395022869       -1.99430123115359        4.52590747231354
H            9.14581120746179       -1.75257479678975        2.96351398665468
H            8.51896205554710       -0.82970603489551        1.60154998255565
H            8.02064348901038       -0.43205317927399        3.25679805318339
H            7.71882085233109       -2.99982134122344        0.52955039340409
H            8.47253211997157       -3.82470796865544        1.89885048169199
H            6.79468408439066       -4.16124245201356        1.47895288377149
H            4.73558959346144       -3.44430498222253        2.01727230146855
H            2.65861980022735       -2.56251132981437        1.12540155267488
H            1.12259806514212       -4.27633362536719       -0.57412939113631
H            2.24450655339132       -6.46246790239302       -0.55088139797502
H            4.53047060103324       -6.72052400113026       -1.39678714318849
H            5.77649343430274       -4.77394328517665       -2.27557962991749
H            6.57723154825706       -2.27143504532656       -3.08795864866060
H            6.70588246267271        0.13054201403095       -3.66080323243963
H            4.76650051470018        1.59658222766494       -3.34206732501573
H            2.66777692413261        0.73574715568563       -2.39450564523793
H           -2.53681016502315        0.83654414047203       -2.40741680288907
H           -4.58266451442308        1.80213671498364       -3.37091913512138
H           -6.58172657953137        0.42825589944478       -3.73035310577200
H           -6.56885388171341       -1.98205595567786       -3.18414042872108
H           -5.89375523686574       -4.52471214819224       -2.38604859902394
H           -4.74470446931046       -6.53896223105853       -1.52596126999869
H           -2.45430423238495       -6.39831343691710       -0.66552802005926
H           -1.23326121581126       -4.26665917494743       -0.65000033587758

          :  Hamiltonian                  GFN2-xTB          :
         :: gradient norm              0.000091960490 Eh/a0 ::
         :: HOMO-LUMO gap              1.933840816633 eV    ::
         :: SCC energy              -203.687333654410 Eh    ::
         :: -> dispersion             -0.220306778635 Eh    ::
         :: -> Gsolv                  -0.073878293559 Eh    ::
         :: repulsion energy           3.602062923778 Eh    ::

    * Orbital Energies and Occupations

         #    Occupation            Energy/Eh            Energy/eV
      -------------------------------------------------------------
         1        2.0000           -0.7064797             -19.2243
       ...           ...                  ...                  ...
       175        2.0000           -0.4112536             -11.1908
       176        2.0000           -0.4100953             -11.1593
       177        2.0000           -0.4098406             -11.1523
       178        2.0000           -0.4008722             -10.9083
       179        2.0000           -0.4001878             -10.8897
       180        2.0000           -0.3873066             -10.5391
       181        2.0000           -0.3870910             -10.5333
       182        2.0000           -0.3796130             -10.3298
       183        2.0000           -0.3787157             -10.3054
       184        2.0000           -0.3768794             -10.2554
       185        2.0000           -0.3762062             -10.2371
       186        2.0000           -0.3664084              -9.9705
       187        2.0000           -0.3640198              -9.9055 (HOMO)
       188                         -0.2929526              -7.9716 (LUMO)
       189                         -0.2692180              -7.3258
       190                         -0.2529439              -6.8830
       191                         -0.2517813              -6.8513
       192                         -0.2466031              -6.7104
       193                         -0.2448634              -6.6631
       194                         -0.2314561              -6.2982
       195                         -0.2311028              -6.2886
       196                         -0.2259806              -6.1492
       197                         -0.2217705              -6.0347
       198                         -0.2214220              -6.0252
       ...                                ...                  ...
       369                          1.1464942              31.1977
      -------------------------------------------------------------
                  HL-Gap            0.0710672 Eh            1.9338 eV

     #   Z          covCN         q      C6AA      α(0)
     1   6 C        3.761    -0.108    22.604     6.778
     2   6 C        3.902     0.025    20.092     6.371
     3   6 C        3.761    -0.105    22.552     6.770
     4   6 C        3.761    -0.106    22.564     6.771
     5   6 C        2.972     0.001    28.013     8.682
     6   6 C        2.931    -0.039    28.971     8.827
     7   6 C        2.909    -0.054    29.337     8.881
     8   6 C        3.073     0.045    26.922     8.507
     9   6 C        3.066    -0.018    28.395     8.738
    10   6 C        2.918    -0.043    29.071     8.842
    11   6 C        3.064    -0.019    28.424     8.743
    12   6 C        2.921    -0.040    28.998     8.831
    13   6 C        2.972     0.001    28.007     8.681
    14   6 C        3.903     0.025    20.095     6.372
    15   6 C        3.761    -0.106    22.567     6.772
    16   6 C        3.762    -0.105    22.559     6.771
    17   6 C        3.761    -0.107    22.596     6.776
    18   6 C        2.929    -0.044    29.084     8.844
    19   6 C        2.910    -0.053    29.316     8.878
    20   6 C        3.076     0.045    26.902     8.504
    21   7 N        2.799    -0.054    22.290     7.012
    22   6 C        2.908     0.053    26.804     8.489
    23   6 C        2.924    -0.058    29.452     8.900
    24   6 C        2.908     0.053    26.806     8.490
    25   7 N        2.800    -0.054    22.279     7.010
    26   6 C        3.075     0.044    26.930     8.508
    27   6 C        2.909    -0.054    29.336     8.881
    28   6 C        2.931    -0.039    28.975     8.828
    29   6 C        2.972     0.000    28.014     8.682
    30   6 C        3.902     0.025    20.092     6.372
    31   6 C        3.761    -0.105    22.562     6.771
    32   6 C        3.761    -0.105    22.552     6.770
    33   6 C        3.761    -0.108    22.608     6.778
    34   6 C        2.918    -0.043    29.077     8.843
    35   6 C        3.066    -0.018    28.397     8.738
    36   6 C        3.066    -0.020    28.436     8.744
    37   6 C        2.918    -0.044    29.105     8.847
    38   6 C        2.973     0.001    28.010     8.681
    39   6 C        3.903     0.025    20.096     6.372
    40   6 C        3.761    -0.105    22.561     6.771
    41   6 C        3.761    -0.108    22.612     6.779
    42   6 C        3.761    -0.105    22.549     6.769
    43   6 C        2.932    -0.039    28.971     8.827
    44   6 C        2.909    -0.053    29.306     8.877
    45   6 C        3.076     0.045    26.906     8.504
    46   6 C        2.918     0.058    26.701     8.474
    47   7 N        2.801    -0.056    22.311     7.015
    48   6 C        3.070     0.053    26.752     8.481
    49   6 C        2.910    -0.047    29.171     8.856
    50   6 C        2.924    -0.033    28.813     8.803
    51   6 C        2.920    -0.039    28.978     8.828
    52   6 C        2.913    -0.032    28.797     8.800
    53   6 C        3.068    -0.015    28.314     8.725
    54   6 C        3.067    -0.016    28.338     8.729
    55   6 C        2.913    -0.033    28.819     8.803
    56   6 C        2.920    -0.039    28.974     8.827
    57   6 C        2.925    -0.032    28.806     8.802
    58   6 C        2.910    -0.049    29.224     8.864
    59   6 C        3.072     0.052    26.761     8.482
    60   6 C        2.975    -0.014    28.353     8.734
    61   6 C        1.914     0.134    27.837     8.521
    62   7 N        0.911    -0.267    26.921     7.504
    63   6 C        2.918     0.058    26.699     8.473
    64   7 N        2.800    -0.056    22.316     7.016
    65   6 C        3.073     0.052    26.760     8.482
    66   6 C        2.910    -0.049    29.222     8.864
    67   6 C        2.925    -0.032    28.805     8.802
    68   6 C        2.920    -0.039    28.968     8.826
    69   6 C        2.913    -0.033    28.814     8.802
    70   6 C        3.066    -0.016    28.340     8.729
    71   6 C        3.068    -0.015    28.320     8.726
    72   6 C        2.913    -0.032    28.807     8.801
    73   6 C        2.920    -0.039    28.977     8.827
    74   6 C        2.924    -0.032    28.807     8.802
    75   6 C        2.910    -0.047    29.160     8.855
    76   6 C        3.069     0.053    26.750     8.481
    77   1 H        0.925     0.036     2.498     2.472
    78   1 H        0.925     0.036     2.498     2.472
    79   1 H        0.925     0.038     2.473     2.459
    80   1 H        0.925     0.039     2.457     2.451
    81   1 H        0.925     0.036     2.505     2.475
    82   1 H        0.925     0.033     2.550     2.497
    83   1 H        0.925     0.039     2.457     2.451
    84   1 H        0.925     0.036     2.497     2.471
    85   1 H        0.925     0.033     2.543     2.494
    86   1 H        0.926     0.035     2.521     2.483
    87   1 H        0.926     0.019     2.742     2.590
    88   1 H        0.926     0.043     2.412     2.428
    89   1 H        0.926     0.037     2.488     2.466
    90   1 H        0.925     0.038     2.481     2.463
    91   1 H        0.925     0.040     2.449     2.447
    92   1 H        0.925     0.033     2.551     2.498
    93   1 H        0.925     0.033     2.550     2.497
    94   1 H        0.925     0.040     2.447     2.446
    95   1 H        0.925     0.037     2.484     2.465
    96   1 H        0.925     0.035     2.517     2.481
    97   1 H        0.925     0.035     2.514     2.479
    98   1 H        0.925     0.039     2.459     2.452
    99   1 H        0.926     0.038     2.471     2.458
   100   1 H        0.926     0.014     2.833     2.632
   101   1 H        0.926     0.069     2.099     2.265
   102   1 H        0.926     0.018     2.759     2.597
   103   1 H        0.926     0.034     2.526     2.485
   104   1 H        0.925     0.036     2.499     2.472
   105   1 H        0.925     0.033     2.543     2.494
   106   1 H        0.925     0.039     2.458     2.452
   107   1 H        0.925     0.032     2.551     2.498
   108   1 H        0.925     0.036     2.506     2.476
   109   1 H        0.925     0.039     2.459     2.452
   110   1 H        0.925     0.037     2.495     2.470
   111   1 H        0.925     0.037     2.495     2.470
   112   1 H        0.925     0.038     2.474     2.460
   113   1 H        0.926     0.044     2.400     2.423
   114   1 H        0.926     0.044     2.391     2.418
   115   1 H        0.925     0.040     2.447     2.446
   116   1 H        0.925     0.035     2.514     2.480
   117   1 H        0.925     0.033     2.542     2.493
   118   1 H        0.925     0.039     2.465     2.455
   119   1 H        0.925     0.037     2.488     2.467
   120   1 H        0.925     0.037     2.490     2.468
   121   1 H        0.925     0.033     2.545     2.495
   122   1 H        0.925     0.040     2.447     2.446
   123   1 H        0.925     0.035     2.516     2.481
   124   1 H        0.926     0.031     2.571     2.507
   125   1 H        0.926     0.014     2.829     2.630
   126   1 H        0.926     0.011     2.874     2.651
   127   1 H        0.926     0.036     2.503     2.474
   128   1 H        0.926     0.038     2.471     2.458
   129   1 H        0.926     0.041     2.433     2.439
   130   1 H        0.926     0.039     2.458     2.452
   131   1 H        0.926     0.037     2.483     2.464
   132   1 H        0.926     0.036     2.502     2.474
   133   1 H        0.926     0.022     2.708     2.573
   134   1 H        0.926     0.021     2.713     2.576
   135   1 H        0.926     0.036     2.501     2.473
   136   1 H        0.926     0.038     2.477     2.461
   137   1 H        0.926     0.039     2.457     2.451
   138   1 H        0.926     0.040     2.449     2.447
   139   1 H        0.926     0.038     2.472     2.458
   140   1 H        0.926     0.036     2.497     2.471
   141   1 H        0.926     0.012     2.864     2.647

molecular dipole:
                 x           y           z       tot (Debye)
 q only:        0.002       1.453       1.230
   full:       -0.007       1.585       1.464       5.484

 projected vibrational frequencies (cm⁻¹)
eigval :       -0.00    -0.00    -0.00     0.00     0.00     0.00
eigval :        8.14    15.20    15.98    18.09    25.24    28.03
eigval :       31.43    32.62    34.67    37.91    38.70    39.33
eigval :       41.52    44.69    51.01    59.23    64.07    67.96
eigval :       75.81    77.78    79.16    86.49    92.23    97.94
eigval :      114.00   114.57   116.67   120.05   123.44   133.31
eigval :      136.54   146.71   153.30   156.79   166.45   168.29
eigval :      178.93   180.05   180.89   186.72   195.19   198.35
eigval :      200.25   206.13   215.80   222.19   223.38   224.43
eigval :      226.39   229.24   236.90   238.17   245.44   260.03
eigval :      261.08   266.76   274.06   275.04   281.03   284.08
eigval :      286.03   293.93   307.24   316.67   321.04   321.96
eigval :      323.83   325.53   328.75   334.91   339.81   340.58
eigval :      346.50   353.92   358.27   360.37   370.38   375.11
eigval :      386.41   397.37   397.69   400.13   401.44   410.00
eigval :      410.92   413.86   418.07   420.56   422.84   432.89
eigval :      435.74   437.19   442.30   445.37   446.06   448.36
eigval :      453.12   462.39   465.00   465.38   470.34   471.96
eigval :      503.84   506.92   515.80   517.95   518.28   524.71
eigval :      531.50   537.70   542.15   542.74   544.48   551.14
eigval :      575.30   576.42   581.10   582.61   584.48   585.77
eigval :      591.44   593.62   600.65   617.82   630.59   640.80
eigval :      641.19   655.17   660.44   670.56   670.91   676.22
eigval :      679.16   686.26   686.69   688.50   702.51   705.31
eigval :      706.42   707.67   708.08   720.24   724.65   732.25
eigval :      755.06   755.88   763.79   767.42   780.60   782.08
eigval :      786.45   807.50   815.73   822.75   823.47   826.48
eigval :      832.78   842.58   857.88   860.66   865.69   870.45
eigval :      872.76   874.00   874.59   874.73   875.30   880.32
eigval :      884.60   894.65   895.44   896.47   898.05   902.15
eigval :      903.99   905.22   905.79   910.81   912.73   917.34
eigval :      918.66   919.08   924.18   924.70   926.48   927.83
eigval :      929.52   931.60   958.56   959.09   959.45   959.74
eigval :      961.40   961.73   962.11   962.39   962.43   962.78
eigval :      963.23   964.02  1000.53  1009.33  1014.79  1024.73
eigval :     1030.87  1032.39  1034.28  1034.51  1034.70  1035.27
eigval :     1035.36  1035.95  1040.14  1042.53  1068.47  1070.23
eigval :     1071.24  1074.32  1075.19  1110.91  1119.21  1121.69
eigval :     1127.26  1129.29  1137.74  1148.69  1151.46  1158.08
eigval :     1170.45  1171.77  1174.29  1176.14  1177.97  1178.38
eigval :     1182.36  1191.59  1193.52  1219.60  1225.52  1225.62
eigval :     1225.80  1226.47  1226.61  1229.47  1229.91  1230.80
eigval :     1231.07  1232.61  1233.25  1234.13  1234.79  1239.96
eigval :     1243.20  1248.24  1251.77  1265.27  1278.71  1282.73
eigval :     1287.31  1292.21  1294.09  1295.97  1296.76  1297.47
eigval :     1303.58  1305.27  1306.96  1321.41  1338.28  1345.71
eigval :     1346.75  1356.44  1358.04  1358.37  1358.86  1361.14
eigval :     1361.31  1362.75  1399.58  1399.66  1401.83  1401.86
eigval :     1401.96  1402.84  1402.99  1403.41  1406.80  1410.66
eigval :     1411.44  1419.43  1421.01  1425.81  1426.50  1426.80
eigval :     1427.20  1427.51  1427.60  1432.18  1434.21  1454.66
eigval :     1461.61  1472.51  1472.63  1473.39  1480.42  1480.67
eigval :     1482.41  1485.81  1485.98  1488.54  1488.62  1489.12
eigval :     1489.28  1491.87  1492.09  1492.15  1493.31  1498.88
eigval :     1499.17  1499.59  1499.86  1502.12  1502.43  1502.61
eigval :     1502.81  1506.79  1510.95  1511.07  1511.20  1511.43
eigval :     1517.76  1517.78  1518.15  1518.60  1540.91  1572.11
eigval :     1573.17  1576.94  1577.29  1584.92  1587.40  1591.62
eigval :     1592.33  1599.96  1600.31  1605.67  1606.16  1613.09
eigval :     1613.89  1616.57  1618.44  2360.86  3019.33  3020.21
eigval :     3020.36  3020.47  3020.97  3021.33  3021.42  3021.74
eigval :     3023.88  3024.34  3024.49  3024.55  3026.14  3026.34
eigval :     3026.35  3026.51  3028.45  3028.60  3028.86  3029.16
eigval :     3030.83  3031.37  3031.63  3032.11  3035.62  3036.13
eigval :     3036.42  3036.78  3043.97  3044.03  3044.56  3045.71
eigval :     3047.13  3047.44  3048.03  3048.98  3068.29  3070.69
eigval :     3073.69  3076.09  3076.68  3077.09  3078.66  3079.13
eigval :     3080.02  3080.11  3082.46  3083.28  3087.47  3087.79
eigval :     3090.17  3090.26  3091.51  3091.96  3093.53  3093.99
eigval :     3096.50  3096.68  3099.19  3099.24  3102.24  3120.05
eigval :     3121.39  3122.65  3123.17

   temp. (K)  partition function   enthalpy   heat capacity  entropy
                                   cal/mol     cal/K/mol   cal/K/mol   J/K/mol
 298.15  VIB  0.826E+31            41285.635    256.289    254.745
         ROT  0.235E+09              888.752      2.981     41.283
         INT  0.194E+40            42174.387    259.270    296.028
         TR   0.301E+29             1481.254      4.968     46.525
         TOT                       43655.6411   264.2384   342.5531  1433.2423

       T/K    H(0)-H(T)+PV         H(T)/Eh          T*S/Eh         G(T)/Eh
   ------------------------------------------------------------------------
    298.15    0.695697E-01    0.121680E+01    0.162758E+00    0.105404E+01
   ------------------------------------------------------------------------

         :::::::::::::::::::::::::::::::::::::::::::::::::::::
         ::                  THERMODYNAMIC                  ::
         :::::::::::::::::::::::::::::::::::::::::::::::::::::
         :: total free energy        -199.031226971110 Eh   ::
         ::.................................................::
         :: total energy             -200.085270728874 Eh   ::
         :: zero point energy           1.147232112211 Eh   ::
         :: G(RRHO) w/o ZPVE           -0.093188354447 Eh   ::
         :: G(RRHO) contrib.            1.054043757764 Eh   ::
         :::::::::::::::::::::::::::::::::::::::::::::::::::::

           -------------------------------------------------
          | TOTAL ENERGY             -200.085270728874 Eh   |
          | TOTAL ENTHALPY           -198.868468924317 Eh   |
          | TOTAL FREE ENERGY        -199.031226971110 Eh   |
          | GRADIENT NORM               0.000092199128 Eh/α |
          | HOMO-LUMO GAP               1.933836012030 eV   |
           -------------------------------------------------

 * finished run on 2025/09/07 at 19:29:55.076
