   * xtb version 6.7.1 (edcfbbe) compiled by 'albert@albert-system' on 2024-07-22

   ID    Z sym.   atoms
    1    6 C      1-20, 22-24, 26-46, 48-61, 63, 65-76
    2    7 N      21, 25, 47, 62, 64
    3    1 H      77-141

          program call               : xtb data2507/toluene/2tCz2CzBn/2tCz2CzBn_toluene_S0_crest.xyz --gfn 2 --gbsa toluene --ohess vtight --parallel 40 --molden --ceasefiles --namespace data2507/toluene/2tCz2CzBn/2tCz2CzBn_toluene_S0_finalOpt
      * Solvation model:               GBSA
        Solvent                        toluene
        Solvent mass                       9.2140E+01 g/mol
          :  Hamiltonian                  GFN2-xTB          :
 * total energy  :  -200.0823145 Eh     change       -0.5105818E-08 Eh
 * total energy  :  -200.0824708 Eh     change       -0.1563373E-03 Eh
 * total energy  :  -200.0826065 Eh     change       -0.1357076E-03 Eh
 * total energy  :  -200.0826794 Eh     change       -0.7289141E-04 Eh
 * total energy  :  -200.0827972 Eh     change       -0.1178030E-03 Eh
 * total energy  :  -200.0829520 Eh     change       -0.1547348E-03 Eh
 * total energy  :  -200.0831130 Eh     change       -0.1610464E-03 Eh
 * total energy  :  -200.0832791 Eh     change       -0.1660744E-03 Eh
 * total energy  :  -200.0834528 Eh     change       -0.1737095E-03 Eh
 * total energy  :  -200.0836289 Eh     change       -0.1760578E-03 Eh
 * total energy  :  -200.0856197 Eh     change       -0.1113966E-05 Eh
 * total energy  :  -200.0856209 Eh     change       -0.1215661E-05 Eh
 * total energy  :  -200.0856220 Eh     change       -0.1085619E-05 Eh
 * total energy  :  -200.0856228 Eh     change       -0.8162903E-06 Eh
 * total energy  :  -200.0856234 Eh     change       -0.6092997E-06 Eh
 * total energy  :  -200.0856240 Eh     change       -0.5571589E-06 Eh
 * total energy  :  -200.0856246 Eh     change       -0.6476909E-06 Eh
 * total energy  :  -200.0856253 Eh     change       -0.6928269E-06 Eh
 * total energy  :  -200.0856253 Eh     change       -0.5558491E-08 Eh
   *** GEOMETRY OPTIMIZATION CONVERGED AFTER 68 ITERATIONS ***

 final structure:
================
141
 xtb: 6.7.1 (edcfbbe)
C           -6.22885377411518        5.68837869239815        0.50046546333110
C           -4.78249105258018        5.66931033468255       -0.00332783845964
C           -4.78826661988134        6.08251460928529       -1.48283479382071
C           -3.97859663867167        6.68818146350860        0.81844536004460
C           -4.13514059641163        4.29765575308671        0.13003448304407
C           -2.80914505209248        4.13195889810576       -0.28942825660362
C           -2.14270804633949        2.92576046950663       -0.20478563595672
C           -2.81970861232780        1.84206956224584        0.32757926958581
C           -4.15891308738523        1.97586119693012        0.74265280646069
C           -4.80741875408200        3.19957922804386        0.64326336939600
C           -4.57732445928135        0.67954642108785        1.20493989353191
C           -5.76649449801190        0.20190407101059        1.73853378260402
C           -5.86064349085228       -1.12270590320130        2.13573204818596
C           -7.13900859124343       -1.71869240724604        2.70865978484480
C           -7.57482895654888       -2.90250761177413        1.83254116423082
C           -6.87508640014005       -2.20137122256979        4.14278299624686
C           -8.29085205665940       -0.70968709262136        2.75070860637836
C           -4.72635909285526       -1.93643220627435        2.02108876112468
C           -3.53217384922587       -1.48659097736500        1.49509869440655
C           -3.47228127201213       -0.17842066659063        1.04616523393592
N           -2.41086927870679        0.52789743904021        0.50242104695457
C           -1.21750540231022       -0.02201621234121        0.03328106551842
C           -0.00062982668335        0.51885476120334        0.43422533734617
C            1.21621855358069       -0.02030074263851        0.03091376091761
N            2.40974605202743        0.52734350154672        0.50176273472723
C            2.81684802393842        1.84405024060662        0.34126088070947
C            2.13782123171169        2.93375928393492       -0.17608951769596
C            2.80284810843235        4.14164865581838       -0.24693102136115
C            4.12947607016140        4.30357591658596        0.17187549970880
C            4.77431552239848        5.67805480808039        0.05711267535024
C            6.22261928079131        5.69147915689377        0.55549034976036
C            3.97174728853162        6.68190322774297        0.89844787153936
C            4.77361549473737        6.11507082923326       -1.41552142579969
C            4.80395181465990        3.19976842691387        0.66961303810411
C            4.15686148736414        1.97428912230101        0.75494421882214
C            4.57764530920003        0.67328967458291        1.20163030821943
C            5.76833413048947        0.19121463506228        1.72776430575993
C            5.86448300996262       -1.13736925564877        2.11095214281932
C            7.14470292504178       -1.73826270185017        2.67450309416823
C            6.88386529504657       -2.23988829447821        4.10267093904632
C            8.29466938819123       -0.72766892593334        2.72806056467781
C            7.58131180498856       -2.90986017997795        1.78251747300808
C            4.73047214971412       -1.95063550250173        1.99068640194843
C            3.53470042022336       -1.49618978071874        1.47225233029847
C            3.47292652196667       -0.18372650768862        1.03621961505920
C            1.22517007656429       -1.12642420497574       -0.83884167931967
N            2.42146018662090       -1.67009025049617       -1.30647796611763
C            2.83782517196416       -2.98333401773071       -1.15430881664200
C            2.17875665071555       -4.05735803329496       -0.57868437061929
C            2.83892737931425       -5.27064648468383       -0.52686964122015
C            4.13114770031696       -5.41291340786441       -1.02467966855454
C            4.80163369601298       -4.33934706529961       -1.57739295133114
C            4.15704291034005       -3.11141505717222       -1.63940963480297
C            4.54902330156652       -1.81284452217710       -2.11563737197948
C            5.70469192041292       -1.31892647078974       -2.70523931290217
C            5.73926618830591        0.00937644729882       -3.08342931939554
C            4.62989899220887        0.83251743630511       -2.91160079778563
C            3.46798490425868        0.36161068593767       -2.32946273435117
C            3.44964906714839       -0.95532227123635       -1.89938027326459
C           -0.00089462488917       -1.66259811530340       -1.26219123413761
C           -0.00294616435543       -2.67339410326110       -2.24926272115740
N           -0.00580729561080       -3.45255469184548       -3.09139147058360
C           -1.22673430095912       -1.13083816646750       -0.83240538818536
N           -2.42313321431356       -1.68372405521060       -1.28926207136577
C           -3.45854395507026       -0.98078066278149       -1.88334018334953
C           -3.48679883925712        0.33166016062511       -2.32636687367132
C           -4.65425935584759        0.78963073842493       -2.90768931104570
C           -5.75961611115831       -0.04169390731892       -3.06575354171833
C           -5.71557026284263       -1.36569585911176       -2.67380113744548
C           -4.55410586049896       -1.84680501894224       -2.08501714116245
C           -4.15212189869299       -3.13823590892667       -1.59787846450915
C           -4.78906973723305       -4.36923374774746       -1.51940615171152
C           -4.10892981730076       -5.43313402165616       -0.95980740294168
C           -2.81467720044866       -5.27830747156543       -0.47105384090042
C           -2.16205738812856       -4.06173571721980       -0.53904071433554
C           -2.83097323515163       -2.99763829352303       -1.12165700680712
H           -6.28001315526732        5.42251730300948        1.55391678161850
H           -6.85200209555634        5.00489009963655       -0.07192108625678
H           -6.63814751611073        6.69029345034169        0.38671517015662
H           -5.26577687149979        7.05336850196893       -1.59819897853050
H           -3.77968919985608        6.15084162545777       -1.88129391620965
H           -5.34002413566350        5.35407883015443       -2.07392953393288
H           -4.44088859439226        7.67083398865080        0.75121253553044
H           -2.95555360260633        6.76933693225053        0.46160239294361
H           -3.95194271523298        6.38993488430096        1.86481445861792
H           -2.27395852645343        4.97324301578921       -0.70235848719707
H           -1.12629661641229        2.83725011880990       -0.55822912925252
H           -5.83236098635339        3.26627094843199        0.96629520456230
H           -6.59635750682959        0.88089297854288        1.83766974042486
H           -6.82540842568843       -3.68909142312217        1.82578218655862
H           -8.50602358527110       -3.32249805991504        2.20733901859587
H           -7.73082343206716       -2.57217474475671        0.80747532091016
H           -6.53970350510432       -1.37234804548984        4.76312964983388
H           -7.78727937892172       -2.60865841525863        4.57381221344916
H           -6.11263377524396       -2.97512432386116        4.16703473411657
H           -8.52573842015405       -0.34402546663462        1.75367782382258
H           -8.04995913394977        0.13329050174229        3.39439364960083
H           -9.18031342660879       -1.19277572419809        3.15043394246133
H           -4.77028200286732       -2.96106932803736        2.35673253912428
H           -2.67481574150348       -2.14163805051960        1.44955563941044
H           -0.00082269515001        1.34692036386366        1.12697136590638
H            1.12050727764941        2.84940588721728       -0.52771303554562
H            2.26570285559356        4.98757211775908       -0.64764434450832
H            6.27815172032951        5.41076545531417        1.60485765457754
H            6.84406646034108        5.01674105473698       -0.02899105663948
H            6.63052760446007        6.69532237730481        0.45441334603420
H            2.94751066840054        6.76764040902102        0.54610145402529
H            3.94860408025891        6.36584545568634        1.93966932411089
H            4.43257503268895        7.66615815141315        0.84658222877322
H            5.32436595800991        5.39728700575258       -2.02045207441003
H            3.76343671357874        6.18819468123190       -1.80903816907116
H            5.24904169296178        7.08850422041367       -1.51695416254624
H            5.82940960384021        3.26342954509727        0.99160784720094
H            6.59772077039275        0.86994868508374        1.83241452540723
H            7.79764249231516       -2.65033740462680        4.52727773435797
H            6.12345341912178       -3.01585246417180        4.11812402937465
H            6.54725740228837       -1.41965253923947        4.73393687198749
H            9.18546165981174       -1.21406042459860        3.12075315048548
H            8.52788565875252       -0.34901582535997        1.73552085436873
H            8.05268592187463        0.10656615308317        3.38263976219696
H            6.83284117568244       -3.69722182351765        1.76620006277846
H            7.73592141958250       -2.56592440875638        0.76172198468628
H            8.51341710066283       -3.33348217232026        2.15090130462889
H            4.77584344727610       -2.97857171328541        2.31585119690744
H            2.67749262423982       -2.15115216804389        1.42302292816094
H            1.18087843031595       -3.95893738661952       -0.17682177747522
H            2.34077931779452       -6.12284979543323       -0.08874331102396
H            4.61393619676872       -6.37709864967326       -0.96977221452326
H            5.80906257846749       -4.44665375988988       -1.94919938508918
H            6.55353648321059       -1.96507034206072       -2.86910764749335
H            6.63140273435189        0.41423856994033       -3.53736932901147
H            4.67246712023876        1.85952043077248       -3.24219429289617
H            2.60517403840995        1.00201806728301       -2.22652838270592
H           -2.62737158527383        0.97820239872647       -2.23386182049525
H           -4.70439038752600        1.81274469692575       -3.24902935460104
H           -6.65620317970983        0.35333997005686       -3.51962476800696
H           -6.56134910988050       -2.01851074742821       -2.82674025489577
H           -5.79806697891039       -4.48629396990748       -1.88395699252354
H           -4.58565845033264       -6.39953460912900       -0.89218836855796
H           -2.30900588796981       -6.12307199017588       -0.02716407616850
H           -1.16265970453788       -3.95275702443657       -0.14357709603536

          :  Hamiltonian                  GFN2-xTB          :
         :: gradient norm              0.000081701182 Eh/a0 ::
         :: HOMO-LUMO gap              1.938839598831 eV    ::
         :: SCC energy              -203.687700074830 Eh    ::
         :: -> dispersion             -0.220204412166 Eh    ::
         :: -> Gsolv                  -0.073893781788 Eh    ::
         :: repulsion energy           3.602074769171 Eh    ::

    * Orbital Energies and Occupations

         #    Occupation            Energy/Eh            Energy/eV
      -------------------------------------------------------------
         1        2.0000           -0.7064951             -19.2247
       ...           ...                  ...                  ...
       175        2.0000           -0.4111302             -11.1874
       176        2.0000           -0.4102139             -11.1625
       177        2.0000           -0.4097667             -11.1503
       178        2.0000           -0.4009235             -10.9097
       179        2.0000           -0.4008731             -10.9083
       180        2.0000           -0.3871387             -10.5346
       181        2.0000           -0.3870913             -10.5333
       182        2.0000           -0.3791232             -10.3165
       183        2.0000           -0.3786383             -10.3033
       184        2.0000           -0.3768367             -10.2542
       185        2.0000           -0.3761396             -10.2353
       186        2.0000           -0.3666151              -9.9761
       187        2.0000           -0.3642270              -9.9111 (HOMO)
       188                         -0.2929760              -7.9723 (LUMO)
       189                         -0.2692266              -7.3260
       190                         -0.2529151              -6.8822
       191                         -0.2517620              -6.8508
       192                         -0.2465404              -6.7087
       193                         -0.2447234              -6.6593
       194                         -0.2312948              -6.2939
       195                         -0.2310463              -6.2871
       196                         -0.2259220              -6.1476
       197                         -0.2214737              -6.0266
       198                         -0.2213976              -6.0245
       ...                                ...                  ...
       369                          1.1464097              31.1954
      -------------------------------------------------------------
                  HL-Gap            0.0712510 Eh            1.9388 eV

     #   Z          covCN         q      C6AA      α(0)
     1   6 C        3.761    -0.108    22.608     6.778
     2   6 C        3.902     0.025    20.092     6.372
     3   6 C        3.761    -0.105    22.551     6.770
     4   6 C        3.761    -0.106    22.563     6.771
     5   6 C        2.972     0.000    28.014     8.682
     6   6 C        2.931    -0.039    28.975     8.828
     7   6 C        2.909    -0.054    29.338     8.882
     8   6 C        3.075     0.044    26.929     8.508
     9   6 C        3.066    -0.018    28.396     8.738
    10   6 C        2.918    -0.043    29.077     8.843
    11   6 C        3.066    -0.020    28.435     8.744
    12   6 C        2.918    -0.044    29.105     8.847
    13   6 C        2.973     0.001    28.009     8.681
    14   6 C        3.903     0.025    20.096     6.372
    15   6 C        3.761    -0.105    22.549     6.769
    16   6 C        3.761    -0.105    22.560     6.771
    17   6 C        3.761    -0.108    22.612     6.779
    18   6 C        2.932    -0.039    28.972     8.827
    19   6 C        2.909    -0.053    29.305     8.877
    20   6 C        3.076     0.045    26.905     8.504
    21   7 N        2.800    -0.054    22.282     7.011
    22   6 C        2.908     0.053    26.806     8.490
    23   6 C        2.924    -0.058    29.453     8.900
    24   6 C        2.908     0.053    26.806     8.490
    25   7 N        2.800    -0.054    22.278     7.010
    26   6 C        3.074     0.044    26.931     8.509
    27   6 C        2.909    -0.054    29.338     8.882
    28   6 C        2.931    -0.039    28.974     8.828
    29   6 C        2.972     0.001    28.012     8.682
    30   6 C        3.902     0.025    20.092     6.372
    31   6 C        3.761    -0.108    22.608     6.778
    32   6 C        3.761    -0.106    22.563     6.771
    33   6 C        3.761    -0.105    22.552     6.770
    34   6 C        2.918    -0.043    29.077     8.843
    35   6 C        3.067    -0.018    28.395     8.738
    36   6 C        3.066    -0.020    28.434     8.744
    37   6 C        2.919    -0.044    29.105     8.847
    38   6 C        2.973     0.001    28.008     8.681
    39   6 C        3.903     0.025    20.096     6.372
    40   6 C        3.761    -0.105    22.561     6.771
    41   6 C        3.761    -0.108    22.612     6.779
    42   6 C        3.761    -0.105    22.549     6.769
    43   6 C        2.932    -0.039    28.972     8.827
    44   6 C        2.909    -0.052    29.303     8.876
    45   6 C        3.076     0.045    26.907     8.504
    46   6 C        2.918     0.058    26.701     8.474
    47   7 N        2.801    -0.055    22.308     7.015
    48   6 C        3.070     0.053    26.752     8.481
    49   6 C        2.910    -0.047    29.167     8.856
    50   6 C        2.924    -0.033    28.812     8.803
    51   6 C        2.920    -0.039    28.977     8.828
    52   6 C        2.913    -0.032    28.798     8.800
    53   6 C        3.068    -0.015    28.315     8.725
    54   6 C        3.067    -0.016    28.337     8.729
    55   6 C        2.913    -0.033    28.819     8.803
    56   6 C        2.920    -0.039    28.974     8.827
    57   6 C        2.925    -0.032    28.807     8.802
    58   6 C        2.910    -0.049    29.224     8.864
    59   6 C        3.072     0.052    26.763     8.482
    60   6 C        2.975    -0.014    28.353     8.734
    61   6 C        1.914     0.134    27.833     8.520
    62   7 N        0.911    -0.268    26.926     7.505
    63   6 C        2.918     0.058    26.701     8.474
    64   7 N        2.801    -0.056    22.311     7.015
    65   6 C        3.072     0.052    26.761     8.482
    66   6 C        2.910    -0.049    29.225     8.865
    67   6 C        2.925    -0.032    28.807     8.802
    68   6 C        2.920    -0.039    28.974     8.827
    69   6 C        2.913    -0.033    28.819     8.803
    70   6 C        3.067    -0.016    28.338     8.729
    71   6 C        3.068    -0.015    28.316     8.725
    72   6 C        2.913    -0.032    28.798     8.800
    73   6 C        2.920    -0.039    28.978     8.828
    74   6 C        2.924    -0.033    28.813     8.803
    75   6 C        2.910    -0.047    29.170     8.856
    76   6 C        3.070     0.053    26.751     8.481
    77   1 H        0.925     0.037     2.496     2.470
    78   1 H        0.925     0.037     2.495     2.470
    79   1 H        0.925     0.038     2.474     2.460
    80   1 H        0.925     0.039     2.458     2.452
    81   1 H        0.925     0.036     2.506     2.476
    82   1 H        0.925     0.032     2.552     2.498
    83   1 H        0.925     0.039     2.458     2.452
    84   1 H        0.925     0.036     2.499     2.472
    85   1 H        0.925     0.033     2.542     2.493
    86   1 H        0.926     0.034     2.526     2.485
    87   1 H        0.926     0.019     2.754     2.595
    88   1 H        0.926     0.044     2.401     2.423
    89   1 H        0.926     0.044     2.391     2.418
    90   1 H        0.925     0.035     2.517     2.481
    91   1 H        0.925     0.040     2.446     2.446
    92   1 H        0.925     0.033     2.545     2.495
    93   1 H        0.925     0.033     2.542     2.493
    94   1 H        0.925     0.040     2.447     2.446
    95   1 H        0.925     0.035     2.514     2.479
    96   1 H        0.925     0.037     2.488     2.467
    97   1 H        0.925     0.037     2.489     2.467
    98   1 H        0.925     0.039     2.465     2.455
    99   1 H        0.926     0.031     2.571     2.508
   100   1 H        0.926     0.014     2.829     2.630
   101   1 H        0.926     0.069     2.098     2.265
   102   1 H        0.926     0.019     2.749     2.593
   103   1 H        0.926     0.034     2.525     2.485
   104   1 H        0.925     0.037     2.495     2.470
   105   1 H        0.925     0.037     2.495     2.470
   106   1 H        0.925     0.038     2.474     2.460
   107   1 H        0.925     0.036     2.499     2.472
   108   1 H        0.925     0.033     2.543     2.494
   109   1 H        0.925     0.039     2.458     2.452
   110   1 H        0.925     0.033     2.551     2.498
   111   1 H        0.925     0.036     2.506     2.476
   112   1 H        0.925     0.039     2.458     2.452
   113   1 H        0.926     0.044     2.400     2.423
   114   1 H        0.926     0.044     2.390     2.418
   115   1 H        0.925     0.040     2.447     2.446
   116   1 H        0.925     0.035     2.514     2.479
   117   1 H        0.925     0.033     2.542     2.493
   118   1 H        0.925     0.039     2.465     2.455
   119   1 H        0.925     0.037     2.488     2.467
   120   1 H        0.925     0.037     2.489     2.467
   121   1 H        0.925     0.035     2.517     2.481
   122   1 H        0.925     0.033     2.545     2.495
   123   1 H        0.925     0.040     2.446     2.446
   124   1 H        0.926     0.031     2.571     2.507
   125   1 H        0.926     0.014     2.830     2.631
   126   1 H        0.926     0.011     2.872     2.650
   127   1 H        0.926     0.036     2.503     2.474
   128   1 H        0.926     0.038     2.470     2.458
   129   1 H        0.926     0.041     2.433     2.439
   130   1 H        0.926     0.039     2.458     2.452
   131   1 H        0.926     0.038     2.482     2.464
   132   1 H        0.926     0.036     2.501     2.473
   133   1 H        0.926     0.022     2.708     2.573
   134   1 H        0.926     0.022     2.708     2.573
   135   1 H        0.926     0.036     2.502     2.474
   136   1 H        0.926     0.037     2.483     2.464
   137   1 H        0.926     0.039     2.458     2.452
   138   1 H        0.926     0.041     2.433     2.439
   139   1 H        0.926     0.038     2.471     2.458
   140   1 H        0.926     0.036     2.504     2.475
   141   1 H        0.926     0.011     2.875     2.651

molecular dipole:
                 x           y           z       tot (Debye)
 q only:        0.014       1.521       1.143
   full:        0.014       1.648       1.372       5.452

 projected vibrational frequencies (cm⁻¹)
eigval :       -0.00    -0.00    -0.00    -0.00     0.00     0.00
eigval :        7.98    15.66    18.48    19.05    26.56    31.59
eigval :       32.78    35.35    36.25    37.11    38.11    40.08
eigval :       42.96    46.14    51.58    61.39    65.33    68.03
eigval :       77.67    78.19    82.61    88.51    94.23    98.66
eigval :      112.86   114.84   116.03   121.66   123.09   133.70
eigval :      135.89   147.56   154.23   158.34   166.80   167.74
eigval :      178.47   180.21   182.58   189.49   195.39   198.12
eigval :      207.07   207.87   217.31   221.68   222.46   225.84
eigval :      226.74   229.54   235.49   237.40   240.97   261.48
eigval :      262.18   263.06   273.70   275.25   278.37   283.81
eigval :      284.55   289.52   306.04   317.69   318.59   322.15
eigval :      322.74   323.12   330.65   337.64   338.66   342.27
eigval :      347.53   353.68   359.91   360.60   369.86   374.72
eigval :      386.17   398.00   398.74   401.23   402.54   410.61
eigval :      410.91   416.65   418.41   421.34   423.47   433.41
eigval :      436.77   438.46   442.20   445.83   445.87   447.61
eigval :      452.23   462.66   465.16   465.87   470.93   471.06
eigval :      503.93   506.83   516.08   518.09   518.47   524.85
eigval :      531.56   537.80   542.08   542.77   545.04   552.23
eigval :      575.29   576.73   581.49   583.18   585.03   586.34
eigval :      591.69   594.19   601.45   618.21   631.46   641.80
eigval :      642.02   655.71   661.24   671.35   671.64   676.40
eigval :      678.89   686.37   686.81   689.21   702.56   704.82
eigval :      706.59   707.97   708.14   720.40   724.83   732.30
eigval :      755.42   756.21   764.37   767.91   778.75   780.47
eigval :      786.87   807.05   817.06   823.28   828.20   828.90
eigval :      832.42   842.63   859.67   868.10   871.01   872.83
eigval :      874.03   874.26   874.60   875.32   876.25   877.06
eigval :      888.40   896.41   897.07   897.58   900.44   902.23
eigval :      903.18   905.38   905.95   912.56   918.30   919.82
eigval :      921.70   922.07   923.06   923.37   925.22   926.87
eigval :      930.87   932.67   958.80   958.92   959.50   959.82
eigval :      961.88   961.94   962.02   962.08   962.20   962.39
eigval :      964.35   964.95  1000.60  1009.37  1014.97  1024.80
eigval :     1030.82  1032.22  1034.57  1034.85  1035.20  1035.29
eigval :     1035.79  1037.19  1041.16  1042.83  1068.31  1070.24
eigval :     1071.15  1074.34  1075.49  1111.34  1119.80  1122.52
eigval :     1127.55  1129.36  1138.64  1149.15  1152.06  1158.22
eigval :     1171.12  1172.68  1174.95  1176.44  1178.56  1179.22
eigval :     1182.76  1191.86  1193.90  1220.78  1225.55  1225.55
eigval :     1226.32  1226.45  1228.16  1230.01  1230.04  1230.75
eigval :     1231.06  1233.65  1233.87  1234.12  1235.11  1238.46
eigval :     1242.71  1247.74  1253.23  1265.62  1279.00  1282.69
eigval :     1287.71  1292.59  1294.40  1296.19  1297.49  1298.23
eigval :     1304.85  1305.16  1308.41  1322.44  1338.41  1345.79
eigval :     1346.45  1356.73  1358.21  1358.63  1358.90  1359.19
eigval :     1361.30  1361.45  1399.59  1399.97  1401.83  1401.94
eigval :     1402.17  1402.44  1402.69  1403.00  1406.77  1410.65
eigval :     1411.35  1419.58  1420.84  1426.30  1426.75  1426.83
eigval :     1426.88  1427.06  1427.52  1432.41  1434.55  1455.03
eigval :     1461.39  1472.55  1472.82  1480.43  1480.75  1482.46
eigval :     1482.66  1485.84  1486.02  1488.90  1488.97  1489.24
eigval :     1489.46  1492.09  1492.40  1492.92  1492.97  1498.74
eigval :     1498.91  1499.18  1499.28  1502.23  1502.52  1502.63
eigval :     1503.00  1507.32  1511.06  1511.11  1511.72  1511.78
eigval :     1516.62  1516.97  1517.89  1518.27  1540.50  1572.13
eigval :     1572.71  1577.05  1577.34  1584.68  1585.49  1591.70
eigval :     1592.41  1600.05  1600.39  1605.64  1605.95  1613.16
eigval :     1613.88  1616.17  1617.43  2360.66  3019.96  3020.09
eigval :     3020.19  3020.25  3020.76  3021.17  3021.33  3021.42
eigval :     3024.06  3024.28  3024.41  3024.53  3025.99  3026.10
eigval :     3026.34  3026.47  3028.42  3028.47  3028.87  3029.23
eigval :     3031.37  3031.40  3032.23  3032.25  3036.09  3036.13
eigval :     3036.91  3036.94  3043.82  3043.99  3044.68  3044.83
eigval :     3047.30  3047.37  3048.37  3048.38  3068.37  3069.74
eigval :     3074.65  3076.20  3076.94  3077.03  3079.21  3079.54
eigval :     3080.61  3080.76  3083.50  3083.77  3087.76  3087.93
eigval :     3090.47  3090.75  3091.87  3092.48  3094.14  3094.25
eigval :     3097.15  3097.30  3099.51  3099.68  3101.89  3120.30
eigval :     3120.40  3123.31  3123.40

   temp. (K)  partition function   enthalpy   heat capacity  entropy
                                   cal/mol     cal/K/mol   cal/K/mol   J/K/mol
 298.15  VIB  0.390E+31            41222.445    256.466    254.061
         ROT  0.235E+09              888.752      2.981     41.285
         INT  0.915E+39            42111.198    259.447    295.345
         TR   0.301E+29             1481.254      4.968     46.525
         TOT                       43592.4515   264.4154   341.8707  1430.3870

       T/K    H(0)-H(T)+PV         H(T)/Eh          T*S/Eh         G(T)/Eh
   ------------------------------------------------------------------------
    298.15    0.694690E-01    0.121703E+01    0.162434E+00    0.105460E+01
   ------------------------------------------------------------------------

         :::::::::::::::::::::::::::::::::::::::::::::::::::::
         ::                  THERMODYNAMIC                  ::
         :::::::::::::::::::::::::::::::::::::::::::::::::::::
         :: total free energy        -199.031029729690 Eh   ::
         ::.................................................::
         :: total energy             -200.085625306526 Eh   ::
         :: zero point energy           1.147560388408 Eh   ::
         :: G(RRHO) w/o ZPVE           -0.092964811572 Eh   ::
         :: G(RRHO) contrib.            1.054595576836 Eh   ::
         :::::::::::::::::::::::::::::::::::::::::::::::::::::

           -------------------------------------------------
          | TOTAL ENERGY             -200.085625306526 Eh   |
          | TOTAL ENTHALPY           -198.868595924840 Eh   |
          | TOTAL FREE ENERGY        -199.031029729690 Eh   |
          | GRADIENT NORM               0.000081710860 Eh/α |
          | HOMO-LUMO GAP               1.938839349437 eV   |
           -------------------------------------------------

 * finished run on 2025/09/07 at 19:58:54.986
