   * xtb version 6.7.1 (edcfbbe) compiled by 'albert@albert-system' on 2024-07-22

   ID    Z sym.   atoms
    1    6 C      1-20, 22-24, 26-46, 48-61, 63, 65-76
    2    7 N      21, 25, 47, 62, 64
    3    1 H      77-141

          program call               : xtb data2507/toluene/2tCz2CzBn/2tCz2CzBn_toluene_T1_crest.xyz --gfn 2 --uhf 2 --gbsa toluene --ohess vtight --parallel 40 --molden --ceasefiles --namespace data2507/toluene/2tCz2CzBn/2tCz2CzBn_toluene_T1_finalOpt
      * Solvation model:               GBSA
        Solvent                        toluene
        Solvent mass                       9.2140E+01 g/mol
          :  Hamiltonian                  GFN2-xTB          :
 * total energy  :  -199.9958373 Eh     change       -0.2207554E-07 Eh
 * total energy  :  -199.9960543 Eh     change       -0.2170421E-03 Eh
 * total energy  :  -199.9962178 Eh     change       -0.1634789E-03 Eh
 * total energy  :  -199.9963156 Eh     change       -0.9777818E-04 Eh
 * total energy  :  -199.9964580 Eh     change       -0.1424209E-03 Eh
 * total energy  :  -199.9966341 Eh     change       -0.1761278E-03 Eh
 * total energy  :  -199.9968209 Eh     change       -0.1867420E-03 Eh
 * total energy  :  -199.9970253 Eh     change       -0.2044345E-03 Eh
 * total energy  :  -199.9972642 Eh     change       -0.2388759E-03 Eh
 * total energy  :  -199.9975295 Eh     change       -0.2652855E-03 Eh
 * total energy  :  -199.9995016 Eh     change       -0.9016858E-06 Eh
 * total energy  :  -199.9995026 Eh     change       -0.9385957E-06 Eh
 * total energy  :  -199.9995034 Eh     change       -0.7800722E-06 Eh
 * total energy  :  -199.9995040 Eh     change       -0.6235366E-06 Eh
 * total energy  :  -199.9995045 Eh     change       -0.4675686E-06 Eh
 * total energy  :  -199.9995047 Eh     change       -0.2087663E-06 Eh
 * total energy  :  -199.9995050 Eh     change       -0.3288205E-06 Eh
 * total energy  :  -199.9995054 Eh     change       -0.3641296E-06 Eh
 * total energy  :  -199.9995054 Eh     change       -0.7062545E-07 Eh
   *** GEOMETRY OPTIMIZATION CONVERGED AFTER 68 ITERATIONS ***

 final structure:
================
141
 xtb: 6.7.1 (edcfbbe)
C           -6.23013632031429        5.67386167155459        0.60761546847352
C           -4.79415227628066        5.65881223109294        0.07490363456010
C           -4.82881779631251        6.07717277181177       -1.40313057787592
C           -3.97457667229007        6.67572481834139        0.88415831236049
C           -4.14181175191799        4.28942699388869        0.18840091915092
C           -2.82211934559814        4.12819958996831       -0.25530773727241
C           -2.15483577922649        2.92210421228434       -0.19318180441106
C           -2.82320215820895        1.83114283680855        0.34264343214464
C           -4.15685467534075        1.96375671437966        0.78641557387982
C           -4.80694119282151        3.18481770214350        0.70680965386652
C           -4.56379925932689        0.66008102152992        1.24409130575677
C           -5.73925285579932        0.17092773672160        1.79037500820200
C           -5.81924324171011       -1.16256354338977        2.17385451095522
C           -7.08735458761512       -1.77233490631602        2.75123886456335
C           -7.52642209029774       -2.94216613782828        1.85745348943664
C           -6.80471628173309       -2.28065610175786        4.17313646898698
C           -8.24302305896623       -0.76957944057345        2.82507435956116
C           -4.68123918750024       -1.96791485868101        2.03442968306085
C           -3.49947661717872       -1.50565519789337        1.49220957271171
C           -3.45457596628432       -0.19088020783861        1.05368112072730
N           -2.41548296317378        0.52079715915270        0.48844935482876
C           -1.21729226448776       -0.01897808843742        0.00428592752722
C            0.00059115002194        0.56516078937723        0.40733754776871
C            1.21772766232228       -0.02105016652433        0.00498503349775
N            2.41653948411794        0.51595715625306        0.49058985575324
C            2.82661333071027        1.82592146390737        0.34786064434297
C            2.16068473985394        2.91921786812769       -0.18628829635994
C            2.82999645897635        4.12436450045972       -0.24490332224014
C            4.14936931991893        4.28250897654885        0.20085335980057
C            4.80389790941422        5.65120443541570        0.09177842123604
C            6.23882381051194        5.66296869175718        0.62740127580891
C            3.98423707138216        6.66745560763756        0.90178738822954
C            4.84205494889997        6.07286994404609       -1.38523045734277
C            4.81217595347179        3.17557216898894        0.71729458848295
C            4.16005742942933        1.95538839117992        0.79323704118643
C            4.56446832916950        0.65004379521138        1.24841896597895
C            5.73873273824716        0.15775675957141        1.79440780974760
C            5.81629575091237       -1.17673195828879        2.17494425476334
C            7.08322499125801       -1.79003661111437        2.75116844317565
C            6.79923526930988       -2.30274908013075        4.17121299386767
C            8.24017535200971       -0.78905831781790        2.82896707243982
C            7.52114976092587       -2.95744561201441        1.85365268836831
C            4.67698392945751       -1.97981014341902        2.03315670856269
C            3.49631666813737       -1.51434259708499        1.49129130895769
C            3.45394585253170       -0.19860847027525        1.05535782751808
C            1.23484156962670       -1.12955378123137       -0.82840001258001
N            2.44105866867579       -1.65104323001838       -1.30617149315889
C            2.86885912830679       -2.95581276741476       -1.17317186492547
C            2.22503459283013       -4.04042842267966       -0.59472670271553
C            2.89659056520457       -5.24715180355988       -0.55512634690200
C            4.18617474127291       -5.37494281656358       -1.06641505605529
C            4.84213072575341       -4.29296656657333       -1.62413171509251
C            4.18661616488024       -3.07183322406272       -1.67561996750786
C            4.55788930586645       -1.76714178949921       -2.15057649052245
C            5.69877282240289       -1.25279664787796       -2.74894298388525
C            5.70633188140310        0.07709073242579       -3.12907339346451
C            4.58359269149463        0.88125480144294       -2.94934251484295
C            3.43739496056743        0.39125823790282       -2.35200419020938
C            3.44398553846501       -0.92670266487284       -1.91964301299706
C           -0.00090542490242       -1.71631526865806       -1.28270861697781
C           -0.00173341926632       -2.67235726816052       -2.27286673626951
N           -0.00272547338786       -3.49221434765404       -3.10090266566485
C           -1.23588373997520       -1.12791190131751       -0.82841054033331
N           -2.44279112538634       -1.64861357021232       -1.30534343680902
C           -3.44515733287891       -0.92421734708386       -1.91960616906505
C           -3.43721090290488        0.39295385925527       -2.35435484535883
C           -4.58306357425149        0.88314573978389       -2.95218819826254
C           -5.70681386241896        0.07996572481401       -3.12997647538204
C           -5.70068097938008       -1.24921318334817       -2.74734289830024
C           -4.56013755615535       -1.76378570840596       -2.14855150922341
C           -4.19014997869070       -3.06806790778743       -1.67143995314104
C           -4.84701674299711       -4.28836112118925       -1.61743578349634
C           -4.19194770385290       -5.37010891060906       -1.05821952625464
C           -2.90190936548855       -5.24290010171157       -0.54793922262086
C           -2.22902422144661       -4.03699721023249       -0.58999637786929
C           -2.87200605168504       -2.95266261694153       -1.16989338803115
H           -6.26023460712271        5.40299280027535        1.66055429019369
H           -6.86473244763672        4.99372470792505        0.04398757800202
H           -6.64183993547674        6.67609589871699        0.50727894429546
H           -5.30928980894137        7.04796934822022       -1.50459315598825
H           -3.82848615587013        6.14791860567786       -1.82114658149436
H           -5.39184000832652        5.35092929676100       -1.98611669261710
H           -4.44195849653200        7.65667885889998        0.83153164328434
H           -2.96013971741764        6.76248362077902        0.50524797693098
H           -3.92430200318187        6.37272928294272        1.92821117818823
H           -2.29591809745695        4.97360099063392       -0.67060917077901
H           -1.14476101227332        2.83154829489339       -0.56170828319848
H           -5.82658265401854        3.25077260350033        1.04593166786971
H           -6.57322476971151        0.84124992536363        1.91026477105313
H           -6.77446136884087       -3.72578377506522        1.82979696356035
H           -8.45266180408654       -3.37172208842516        2.23325451690735
H           -7.69277378565687       -2.59449057572388        0.83973268136645
H           -6.46723514878040       -1.46178726563400        4.80557145512057
H           -7.71061439735607       -2.70038971164229        4.60510463349524
H           -6.03880801523469       -3.05115689871548        4.17490971800179
H           -8.49345144793941       -0.38886186713750        1.83758873392811
H           -7.99807075285092        0.06319131020682        3.48031689862545
H           -9.12459105219608       -1.26414176876171        3.22792604228330
H           -4.71382147926637       -2.99562748719763        2.36089948838929
H           -2.63716100184493       -2.15144053071196        1.42412882557792
H            0.00101802244003        1.36202426595075        1.13040192346253
H            1.15087016090483        2.83124962918140       -0.55612637123983
H            2.30563812144863        4.97154842081802       -0.65890570280349
H            6.26644011667610        5.38921057526417        1.67966213139326
H            6.87366942930814        4.98353879804182        0.06321961573680
H            6.65202981152588        6.66493310855736        0.53060614105823
H            2.97078965880464        6.75686876139406        0.52087767793185
H            3.93116195504010        6.36196730521040        1.94497891963190
H            4.45335918456099        7.64775896532103        0.85263536726384
H            5.40543429881426        5.34730804329353       -1.96873475993537
H            3.84263616281627        6.14567405733751       -1.80506802556326
H            5.32381834520069        7.04335315119402       -1.48353785247488
H            5.83150722180460        3.23909127755196        1.05781627765526
H            6.57373205438673        0.82643059726876        1.91631903043654
H            7.70427786885512       -2.72548992427946        4.60204182568748
H            6.03205464776240       -3.07197956088536        4.17014140442226
H            6.46292629260531       -1.48546646625318        4.80631638663962
H            9.12071909717136       -1.28597183899210        3.23116317570269
H            8.49203544720238       -0.40579658687351        1.84283089628832
H            7.99572257089373        0.04212205944503        3.48641588343500
H            6.76814992956232       -3.73996074800860        1.82312301930894
H            7.68832057432784       -2.60659602246705        0.83715226437155
H            8.44670007893443       -3.38944499317256        2.22834594876307
H            4.70763384939002       -3.00830419330474        2.35735176189518
H            2.63291057695018       -2.15847345596665        1.42146252608004
H            1.22725030331880       -3.94969836502711       -0.19302296525253
H            2.41139339647978       -6.10723861442108       -0.11772501849573
H            4.67863269925326       -6.33487538973889       -1.02068883175499
H            5.84614535678942       -4.39231651867722       -2.00788313945594
H            6.55822884463481       -1.88293565104610       -2.92065836429330
H            6.58713897562037        0.49606644257312       -3.59229904692831
H            4.60415317321131        1.90670795759415       -3.28667993633753
H            2.56111412658271        1.01207033272178       -2.24316967347403
H           -2.56016268404788        1.01293796253441       -2.24697170884726
H           -4.60253726368866        1.90795004738326       -3.29154710031494
H           -6.58732090141656        0.49911917969354       -3.59361303413227
H           -6.56097808784658       -1.87863555825165       -2.91747557970947
H           -5.85134308436120       -4.38726892113326       -2.00048607255611
H           -4.68545760955113       -6.32940691102058       -1.01053717781180
H           -2.41742339878678       -6.10279350165865       -0.10936419618082
H           -1.23091825323718       -3.94661685673920       -0.18899654277841

          :  Hamiltonian                  GFN2-xTB          :
         :: gradient norm              0.000065182774 Eh/a0 ::
         :: HOMO-LUMO gap              0.248579410883 eV    ::
         :: SCC energy              -203.579771955596 Eh    ::
         :: -> dispersion             -0.219298676468 Eh    ::
         :: -> Gsolv                  -0.080951478967 Eh    ::
         :: repulsion energy           3.580266525584 Eh    ::

    * Orbital Energies and Occupations

         #    Occupation            Energy/Eh            Energy/eV
      -------------------------------------------------------------
         1        2.0000           -0.6855642             -18.6552
       ...           ...                  ...                  ...
       176        2.0000           -0.4050586             -11.0222
       177        2.0000           -0.4050202             -11.0212
       178        2.0000           -0.3965877             -10.7917
       179        2.0000           -0.3934314             -10.7058
       180        2.0000           -0.3859435             -10.5021
       181        2.0000           -0.3859011             -10.5009
       182        2.0000           -0.3820278             -10.3955
       183        2.0000           -0.3819363             -10.3930
       184        2.0000           -0.3730335             -10.1508
       185        2.0000           -0.3728227             -10.1450
       186        1.7620           -0.3641073              -9.9079
       187        1.2381           -0.3618968              -9.8477
       188        0.9918           -0.2638210              -7.1789 (HOMO)
       189        0.0080           -0.2546857              -6.9304 (LUMO)
       190        0.0001           -0.2508537              -6.8261
       191        0.0001           -0.2503479              -6.8123
       192        0.0001           -0.2500481              -6.8042
       193                         -0.2391400              -6.5073
       194                         -0.2314682              -6.2986
       195                         -0.2313228              -6.2946
       196                         -0.2250513              -6.1240
       197                         -0.2250413              -6.1237
       198                         -0.2063812              -5.6159
       199                         -0.2017087              -5.4888
       ...                                ...                  ...
       369                          1.1644275              31.6857
      -------------------------------------------------------------
                  HL-Gap            0.0091352 Eh            0.2486 eV

     #   Z          covCN         q      C6AA      α(0)
     1   6 C        3.761    -0.109    22.635     6.782
     2   6 C        3.903     0.027    20.072     6.368
     3   6 C        3.761    -0.106    22.569     6.772
     4   6 C        3.761    -0.107    22.582     6.774
     5   6 C        2.973     0.008    27.838     8.655
     6   6 C        2.929    -0.038    28.949     8.824
     7   6 C        2.908    -0.046    29.140     8.851
     8   6 C        3.080     0.047    26.850     8.495
     9   6 C        3.066    -0.016    28.330     8.728
    10   6 C        2.917    -0.040    29.005     8.831
    11   6 C        3.065    -0.018    28.383     8.736
    12   6 C        2.917    -0.041    29.027     8.835
    13   6 C        2.973     0.007    27.852     8.657
    14   6 C        3.903     0.026    20.077     6.369
    15   6 C        3.762    -0.106    22.563     6.771
    16   6 C        3.761    -0.106    22.577     6.774
    17   6 C        3.761    -0.110    22.640     6.783
    18   6 C        2.930    -0.038    28.948     8.824
    19   6 C        2.908    -0.046    29.145     8.852
    20   6 C        3.082     0.047    26.868     8.498
    21   7 N        2.802    -0.029    21.806     6.935
    22   6 C        2.904     0.043    27.046     8.527
    23   6 C        2.916    -0.108    30.739     9.092
    24   6 C        2.904     0.043    27.046     8.527
    25   7 N        2.802    -0.029    21.804     6.935
    26   6 C        3.080     0.047    26.850     8.495
    27   6 C        2.908    -0.046    29.140     8.851
    28   6 C        2.929    -0.038    28.949     8.824
    29   6 C        2.973     0.008    27.838     8.655
    30   6 C        3.903     0.027    20.072     6.368
    31   6 C        3.761    -0.109    22.635     6.782
    32   6 C        3.761    -0.107    22.582     6.774
    33   6 C        3.761    -0.106    22.569     6.772
    34   6 C        2.917    -0.040    29.005     8.831
    35   6 C        3.066    -0.016    28.330     8.728
    36   6 C        3.065    -0.018    28.383     8.736
    37   6 C        2.917    -0.041    29.027     8.835
    38   6 C        2.973     0.007    27.852     8.657
    39   6 C        3.903     0.026    20.077     6.369
    40   6 C        3.761    -0.106    22.577     6.774
    41   6 C        3.761    -0.110    22.640     6.783
    42   6 C        3.762    -0.106    22.563     6.771
    43   6 C        2.930    -0.038    28.948     8.824
    44   6 C        2.908    -0.046    29.145     8.852
    45   6 C        3.082     0.047    26.868     8.498
    46   6 C        2.911     0.036    27.190     8.550
    47   7 N        2.800    -0.039    21.984     6.964
    48   6 C        3.077     0.057    26.640     8.462
    49   6 C        2.910    -0.039    28.979     8.827
    50   6 C        2.923    -0.034    28.836     8.806
    51   6 C        2.920    -0.037    28.923     8.819
    52   6 C        2.912    -0.032    28.807     8.801
    53   6 C        3.068    -0.016    28.346     8.730
    54   6 C        3.066    -0.017    28.376     8.735
    55   6 C        2.912    -0.033    28.818     8.803
    56   6 C        2.920    -0.038    28.950     8.823
    57   6 C        2.923    -0.035    28.860     8.810
    58   6 C        2.910    -0.047    29.158     8.854
    59   6 C        3.079     0.052    26.746     8.479
    60   6 C        2.962    -0.061    29.506     8.910
    61   6 C        1.908     0.101    28.594     8.636
    62   7 N        0.911    -0.405    30.502     7.988
    63   6 C        2.911     0.036    27.190     8.550
    64   7 N        2.800    -0.039    21.985     6.964
    65   6 C        3.079     0.052    26.746     8.479
    66   6 C        2.910    -0.047    29.158     8.854
    67   6 C        2.923    -0.035    28.860     8.810
    68   6 C        2.920    -0.038    28.950     8.823
    69   6 C        2.912    -0.033    28.818     8.803
    70   6 C        3.066    -0.017    28.376     8.735
    71   6 C        3.068    -0.016    28.346     8.730
    72   6 C        2.912    -0.032    28.807     8.801
    73   6 C        2.920    -0.037    28.923     8.819
    74   6 C        2.923    -0.034    28.836     8.806
    75   6 C        2.910    -0.039    28.980     8.827
    76   6 C        3.077     0.057    26.640     8.462
    77   1 H        0.925     0.038     2.476     2.461
    78   1 H        0.925     0.038     2.478     2.462
    79   1 H        0.925     0.040     2.449     2.447
    80   1 H        0.925     0.042     2.428     2.436
    81   1 H        0.925     0.038     2.481     2.463
    82   1 H        0.925     0.034     2.533     2.489
    83   1 H        0.925     0.042     2.428     2.437
    84   1 H        0.925     0.038     2.472     2.459
    85   1 H        0.925     0.035     2.521     2.483
    86   1 H        0.926     0.040     2.443     2.444
    87   1 H        0.926     0.031     2.577     2.510
    88   1 H        0.926     0.050     2.323     2.384
    89   1 H        0.926     0.051     2.311     2.377
    90   1 H        0.925     0.036     2.501     2.473
    91   1 H        0.925     0.042     2.416     2.431
    92   1 H        0.925     0.034     2.532     2.488
    93   1 H        0.925     0.035     2.518     2.482
    94   1 H        0.925     0.042     2.417     2.431
    95   1 H        0.925     0.037     2.494     2.469
    96   1 H        0.925     0.038     2.470     2.458
    97   1 H        0.925     0.039     2.466     2.456
    98   1 H        0.925     0.041     2.440     2.443
    99   1 H        0.926     0.036     2.500     2.473
   100   1 H        0.926     0.023     2.690     2.565
   101   1 H        0.926     0.035     2.513     2.479
   102   1 H        0.926     0.031     2.577     2.510
   103   1 H        0.926     0.040     2.443     2.444
   104   1 H        0.925     0.038     2.476     2.461
   105   1 H        0.925     0.038     2.478     2.462
   106   1 H        0.925     0.040     2.449     2.447
   107   1 H        0.925     0.038     2.472     2.459
   108   1 H        0.925     0.035     2.522     2.483
   109   1 H        0.925     0.042     2.428     2.437
   110   1 H        0.925     0.034     2.533     2.489
   111   1 H        0.925     0.038     2.481     2.463
   112   1 H        0.925     0.042     2.427     2.436
   113   1 H        0.926     0.050     2.323     2.384
   114   1 H        0.926     0.051     2.311     2.377
   115   1 H        0.925     0.042     2.417     2.431
   116   1 H        0.925     0.037     2.494     2.469
   117   1 H        0.925     0.035     2.518     2.482
   118   1 H        0.925     0.041     2.440     2.443
   119   1 H        0.925     0.038     2.470     2.458
   120   1 H        0.925     0.039     2.466     2.456
   121   1 H        0.925     0.036     2.501     2.473
   122   1 H        0.925     0.034     2.532     2.488
   123   1 H        0.925     0.042     2.416     2.431
   124   1 H        0.926     0.036     2.500     2.473
   125   1 H        0.926     0.023     2.690     2.565
   126   1 H        0.926     0.020     2.735     2.586
   127   1 H        0.926     0.035     2.510     2.477
   128   1 H        0.926     0.039     2.467     2.456
   129   1 H        0.926     0.041     2.442     2.443
   130   1 H        0.926     0.039     2.466     2.456
   131   1 H        0.926     0.038     2.476     2.461
   132   1 H        0.926     0.036     2.498     2.471
   133   1 H        0.926     0.025     2.652     2.546
   134   1 H        0.926     0.025     2.652     2.547
   135   1 H        0.926     0.036     2.498     2.472
   136   1 H        0.926     0.038     2.476     2.461
   137   1 H        0.926     0.039     2.466     2.456
   138   1 H        0.926     0.041     2.442     2.444
   139   1 H        0.926     0.039     2.467     2.456
   140   1 H        0.926     0.035     2.510     2.477
   141   1 H        0.926     0.020     2.736     2.586

molecular dipole:
                 x           y           z       tot (Debye)
 q only:        0.004       3.063       2.489
   full:        0.004       3.116       2.638      10.378

 projected vibrational frequencies (cm⁻¹)
eigval :       -0.00    -0.00    -0.00     0.00     0.00     0.00
eigval :        7.28    12.82    16.28    16.67    20.04    21.43
eigval :       24.73    30.30    31.43    34.46    35.66    39.87
eigval :       41.71    46.29    51.37    57.61    65.14    68.05
eigval :       75.34    76.54    80.97    88.24    89.92    98.58
eigval :      111.13   112.40   113.73   119.12   122.07   130.42
eigval :      133.25   145.89   150.57   153.60   161.01   162.19
eigval :      174.34   176.31   177.99   189.31   192.98   194.60
eigval :      202.58   203.62   208.47   215.04   217.17   224.42
eigval :      224.99   228.26   232.66   235.45   236.48   251.11
eigval :      258.44   259.61   269.83   271.14   277.56   278.46
eigval :      285.65   286.90   304.96   312.95   314.34   317.66
eigval :      323.64   329.43   331.99   336.38   337.05   340.92
eigval :      345.82   352.14   356.78   357.88   370.34   375.64
eigval :      384.40   391.03   394.82   395.93   398.33   400.86
eigval :      404.56   405.31   405.65   419.53   421.11   425.74
eigval :      433.01   434.98   439.50   440.98   443.89   445.15
eigval :      450.62   460.94   464.44   464.58   467.52   468.47
eigval :      492.28   496.66   501.81   514.85   515.72   516.97
eigval :      525.49   530.58   537.32   537.58   538.36   540.20
eigval :      554.39   568.18   581.45   582.06   582.90   585.86
eigval :      588.18   590.79   593.13   605.64   617.93   636.26
eigval :      638.71   641.80   642.13   654.09   668.43   670.46
eigval :      675.11   677.77   687.48   689.79   691.58   701.07
eigval :      705.58   706.10   706.84   707.88   715.70   721.45
eigval :      731.10   753.47   754.90   761.81   764.85   769.03
eigval :      772.93   774.64   809.60   818.32   820.62   828.22
eigval :      828.81   830.72   839.55   855.93   859.59   859.65
eigval :      866.90   869.60   869.68   869.98   870.33   871.26
eigval :      871.61   887.67   891.48   896.30   898.63   899.84
eigval :      900.00   901.05   905.48   911.22   914.93   915.80
eigval :      916.02   916.91   919.36   920.64   920.98   921.77
eigval :      928.53   930.92   954.34   958.38   958.43   959.84
eigval :      960.73   961.37   961.80   962.04   962.17   962.36
eigval :      962.43   964.77   965.41   995.36  1007.56  1013.34
eigval :     1026.15  1029.64  1032.04  1032.69  1032.94  1034.16
eigval :     1034.58  1035.56  1037.38  1040.61  1043.35  1065.24
eigval :     1066.30  1067.21  1070.37  1075.29  1104.58  1115.70
eigval :     1117.98  1124.76  1126.68  1133.34  1141.93  1144.39
eigval :     1156.60  1158.04  1162.65  1169.58  1171.83  1176.26
eigval :     1176.85  1179.99  1187.02  1188.73  1215.52  1222.66
eigval :     1222.69  1224.14  1224.34  1224.72  1226.67  1227.74
eigval :     1227.77  1228.60  1228.83  1229.10  1229.68  1231.00
eigval :     1231.77  1237.35  1243.32  1249.40  1260.79  1277.39
eigval :     1277.67  1283.61  1285.46  1287.58  1289.78  1290.11
eigval :     1291.96  1292.84  1303.54  1319.74  1322.31  1337.85
eigval :     1338.53  1345.50  1348.24  1348.31  1349.35  1352.78
eigval :     1360.30  1362.36  1367.19  1378.24  1390.58  1399.45
eigval :     1399.96  1401.13  1401.20  1401.74  1401.86  1402.27
eigval :     1402.44  1408.84  1409.64  1414.87  1416.01  1417.36
eigval :     1425.42  1425.46  1425.95  1426.32  1431.03  1431.71
eigval :     1437.41  1456.95  1461.82  1462.12  1462.21  1467.03
eigval :     1474.92  1476.88  1477.42  1482.34  1483.61  1487.18
eigval :     1487.21  1487.58  1487.71  1489.75  1490.11  1491.75
eigval :     1491.91  1496.64  1497.05  1498.07  1498.92  1500.57
eigval :     1500.64  1501.03  1501.20  1509.93  1509.93  1511.61
eigval :     1511.72  1515.45  1516.03  1516.38  1518.02  1560.13
eigval :     1560.38  1564.88  1564.99  1571.87  1571.89  1573.30
eigval :     1578.13  1578.43  1579.13  1581.65  1582.02  1592.24
eigval :     1592.36  1594.45  1601.34  2226.27  3021.47  3021.51
eigval :     3022.32  3022.36  3022.72  3022.76  3022.79  3022.83
eigval :     3025.69  3025.70  3025.72  3025.76  3027.09  3027.12
eigval :     3027.65  3027.69  3029.24  3029.31  3029.84  3029.96
eigval :     3032.50  3032.55  3033.39  3033.42  3037.33  3037.39
eigval :     3038.08  3038.13  3045.07  3045.17  3046.16  3046.16
eigval :     3048.86  3048.94  3049.47  3049.49  3075.59  3076.18
eigval :     3078.84  3078.85  3080.81  3081.13  3083.21  3083.26
eigval :     3083.92  3083.95  3084.47  3085.51  3087.69  3087.80
eigval :     3089.71  3089.76  3094.90  3095.42  3096.44  3096.97
eigval :     3097.25  3097.95  3098.05  3098.71  3122.59  3122.63
eigval :     3124.21  3125.48  3125.78

   temp. (K)  partition function   enthalpy   heat capacity  entropy
                                   cal/mol     cal/K/mol   cal/K/mol   J/K/mol
 298.15  VIB  0.562E+32            41708.520    258.037    258.054
         ROT  0.235E+09              888.752      2.981     41.284
         INT  0.132E+41            42597.272    261.018    299.338
         TR   0.301E+29             1481.254      4.968     46.525
         TOT                       44078.5261   265.9865   345.8633  1447.0921

       T/K    H(0)-H(T)+PV         H(T)/Eh          T*S/Eh         G(T)/Eh
   ------------------------------------------------------------------------
    298.15    0.702436E-01    0.121247E+01    0.164331E+00    0.104814E+01
   ------------------------------------------------------------------------

         :::::::::::::::::::::::::::::::::::::::::::::::::::::
         ::                  THERMODYNAMIC                  ::
         :::::::::::::::::::::::::::::::::::::::::::::::::::::
         :: total free energy        -198.951369836765 Eh   ::
         ::.................................................::
         :: total energy             -199.999505430473 Eh   ::
         :: zero point energy           1.142222812065 Eh   ::
         :: G(RRHO) w/o ZPVE           -0.094087218357 Eh   ::
         :: G(RRHO) contrib.            1.048135593708 Eh   ::
         :::::::::::::::::::::::::::::::::::::::::::::::::::::

           -------------------------------------------------
          | TOTAL ENERGY             -199.999505430473 Eh   |
          | TOTAL ENTHALPY           -198.787039015874 Eh   |
          | TOTAL FREE ENERGY        -198.951369836765 Eh   |
          | GRADIENT NORM               0.000065901970 Eh/α |
          | HOMO-LUMO GAP               0.248582651093 eV   |
           -------------------------------------------------

 * finished run on 2025/09/07 at 20:30:58.663
