   * xtb version 6.7.1 (edcfbbe) compiled by 'albert@albert-system' on 2024-07-22

   ID    Z sym.   atoms
    1    6 C      1-20, 22-24, 26-46, 48-61, 63, 65-76
    2    7 N      21, 25, 47, 62, 64
    3    1 H      77-141

          program call               : xtb data2507/toluene/2tCz2CzBn/2tCz2CzBn_toluene_S0_finalOpt.xtbopt.xyz --gfn 2 --uhf 2 --gbsa toluene --ohess vtight --parallel 40 --molden --ceasefiles --namespace data2507/toluene/2tCz2CzBn/2tCz2CzBn_toluene_T1_preOpt
      * Solvation model:               GBSA
        Solvent                        toluene
        Solvent mass                       9.2140E+01 g/mol
          :  Hamiltonian                  GFN2-xTB          :
 * total energy  :  -199.9945022 Eh     change       -0.3378898E-07 Eh
 * total energy  :  -199.9978380 Eh     change       -0.3335725E-02 Eh
 * total energy  :  -199.9992223 Eh     change       -0.1384313E-02 Eh
 * total energy  :  -199.9993182 Eh     change       -0.9593166E-04 Eh
 * total energy  :  -199.9993797 Eh     change       -0.6146949E-04 Eh
 * total energy  :  -199.9993969 Eh     change       -0.1719562E-04 Eh
 * total energy  :  -199.9994218 Eh     change       -0.2497813E-04 Eh
 * total energy  :  -199.9994305 Eh     change       -0.8677910E-05 Eh
 * total energy  :  -199.9994385 Eh     change       -0.7939615E-05 Eh
 * total energy  :  -199.9994443 Eh     change       -0.5882030E-05 Eh
 * total energy  :  -199.9995151 Eh     change       -0.2888630E-06 Eh
 * total energy  :  -199.9995154 Eh     change       -0.3131904E-06 Eh
 * total energy  :  -199.9995157 Eh     change       -0.3205424E-06 Eh
 * total energy  :  -199.9995161 Eh     change       -0.3530643E-06 Eh
 * total energy  :  -199.9995164 Eh     change       -0.3407719E-06 Eh
 * total energy  :  -199.9995167 Eh     change       -0.2812311E-06 Eh
 * total energy  :  -199.9995170 Eh     change       -0.2511748E-06 Eh
 * total energy  :  -199.9995172 Eh     change       -0.2681867E-06 Eh
 * total energy  :  -199.9995172 Eh     change       -0.9858752E-08 Eh
   *** GEOMETRY OPTIMIZATION CONVERGED AFTER 44 ITERATIONS ***

 final structure:
================
141
 xtb: 6.7.1 (edcfbbe)
C           -6.20165870041845        5.69280191607085        0.55924564152604
C           -4.77393506392715        5.66153949377505        0.00553562570500
C           -4.82760338035835        6.05740774726837       -1.47812149212835
C           -3.93729492084738        6.68581862141464        0.78762475145480
C           -4.12783216949336        4.29013375238952        0.12942724975004
C           -2.81249774843964        4.11740380277899       -0.32277191165793
C           -2.15024482971728        2.90916304725666       -0.25077756134166
C           -2.81941490250387        1.82813728991735        0.30378496037617
C           -4.14995467960023        1.97128527152572        0.75339784939002
C           -4.79489905331581        3.19445249278899        0.66417529046487
C           -4.55918128941935        0.67453009845975        1.22857872229413
C           -5.73377410614256        0.19578299811582        1.78578433061781
C           -5.81635415118725       -1.13281210088188        2.18546888482862
C           -7.08405349286071       -1.73188799743365        2.77472810126306
C           -7.52667246133438       -2.91453410932087        1.89970074409000
C           -6.79887241993926       -2.21896291070909        4.20354303685284
C           -8.23816721941009       -0.72649103059609        2.83552066335773
C           -4.68136277205395       -1.94332719355037        2.05162849867757
C           -3.50067704048571       -1.49169810859431        1.49831101780248
C           -3.45377330007070       -0.18264634634028        1.04318820481506
N           -2.41530261853778        0.51850879948440        0.46425721113885
C           -1.21797296034953       -0.02818803633737       -0.01404835051138
C           -0.00031869640442        0.56154275510506        0.38107022482072
C            1.21697925376237       -0.02782149420398       -0.01592446297385
N            2.41485608699915        0.51755271036254        0.46229187181544
C            2.81864526227296        1.82802235459370        0.30762024750353
C            2.14864519519511        2.91202330987560       -0.24014819121684
C            2.81074114647184        4.12066358253614       -0.30676739417423
C            4.12682324861394        4.29106420923166        0.14411281993039
C            4.77248463514551        5.66327272763762        0.02701837485784
C            6.20244339174697        5.69074051154736        0.57514053152320
C            3.93881117721196        6.68189135787202        0.81960937300430
C            4.82024450498966        6.06972870124884       -1.45397239679148
C            4.79470806783027        3.19259276778673        0.67207627292015
C            4.14987555398113        1.96901592615699        0.75598972087626
C            4.55986986285365        0.67003306472889        1.22438309030291
C            5.73531188378613        0.18872215621246        1.77756287000385
C            5.81849678263981       -1.14172250410938        2.17094228151673
C            7.08729308874927       -1.74372213726370        2.75482763986089
C            6.80466963529600       -2.23934547129995        4.18120578162091
C            8.24112372800281       -0.73825931960563        2.81978402458143
C            7.52884617967654       -2.92100063741464        1.87205401070143
C            4.68317174841262       -1.95148402117132        2.03541525199657
C            3.50158122219371       -1.49718989872672        1.48622702917115
C            3.45413170400488       -0.18619168827028        1.03677875674498
C            1.23450879681856       -1.14568282425704       -0.83658482607055
N            2.44105490368297       -1.67081459592014       -1.30942492224291
C            2.87106892649342       -2.97335535974632       -1.16224237416674
C            2.22921339457319       -4.05265637986772       -0.57183236848885
C            2.90285079252994       -5.25774998462640       -0.51925296514329
C            4.19264411349635       -5.38890008842187       -1.02914544607971
C            4.84670082488260       -4.31192961341904       -1.59866426344852
C            4.18893912895380       -3.09264746479067       -1.66363172727951
C            4.55780865823879       -1.79269900787226       -2.15324188573765
C            5.69745346081411       -1.28336268342009       -2.75820001667343
C            5.70252049823554        0.04206615310009       -3.15356582895322
C            4.57873340180816        0.84654389070999       -2.98177424453425
C            3.43374836071759        0.36148905468000       -2.37811638982469
C            3.44258794252448       -0.95160925783555       -1.93120551792766
C           -0.00127130347471       -1.73916468469509       -1.28226446687213
C           -0.00258362718635       -2.70672722244686       -2.26113023844394
N           -0.00418169812363       -3.53663646288301       -3.07909551373188
C           -1.23650023727794       -1.14713570013153       -0.83302039406168
N           -2.44380563776972       -1.67556728288320       -1.30031959840980
C           -3.44916969366198       -0.96032745722301       -1.92031371329328
C           -3.44403212775937        0.35084873332370       -2.37287784069783
C           -4.59244026095520        0.83184569956814       -2.97324375592963
C           -5.71607724196454        0.02527844584115       -3.13610128746415
C           -5.70750413226591       -1.29843410058918       -2.73509584317192
C           -4.56430036042264       -1.80382920554211       -2.13356996217418
C           -4.19138179476283       -3.10122647791337       -1.64025704928282
C           -4.84719987348284       -4.32107824116936       -1.56666416809205
C           -4.18895244126998       -5.39463465931840       -0.99551712392048
C           -2.89685775302182       -5.25958915487946       -0.49251854079673
C           -2.22505924912898       -4.05386412995053       -0.55375899841532
C           -2.87130958902184       -2.97805642319765       -1.14569362341775
H           -6.21766924686889        5.43377428419690        1.61548166304252
H           -6.84939488245163        5.01103399500686        0.01289125731069
H           -6.60784137581283        6.69675883941568        0.45390339569746
H           -5.30271312240817        7.02995446540334       -1.58774956294836
H           -3.83292361753922        6.11420682860749       -1.91156721659491
H           -5.40415344667305        5.32627221320121       -2.04152093605460
H           -4.40081608265817        7.66820282085630        0.72801305657962
H           -2.92829840444320        6.76259515926358        0.39245877996394
H           -3.87276000616310        6.39736479877744        1.83502816870952
H           -2.28583597326017        4.95508376159381       -0.75286692291652
H           -1.14356043973083        2.80913655602561       -0.62602561123765
H           -5.81190117307305        3.26918815849147        1.00935822325991
H           -6.56515626428171        0.87010845079945        1.90120136137096
H           -6.77666080885354       -3.70032837119629        1.88350103662888
H           -8.45352009403575       -3.33603050137468        2.28303520074095
H           -7.69314783431612       -2.58242033683448        0.87680414320104
H           -6.45867763163991       -1.39117810257518        4.82278621259822
H           -7.70438172746378       -2.63072033492248        4.64392703449633
H           -6.03403116903336       -2.99046765170030        4.21510928260636
H           -8.48907840900594       -0.35964177083261        1.84289381155637
H           -7.99140952629860        0.11534472307237        3.47838036797587
H           -9.11997238789302       -1.21391493014824        3.24644908041439
H           -4.71558055553131       -2.96664006119428        2.39146381255325
H           -2.64074198964236       -2.14106480237142        1.43440528063817
H           -0.00000505972107        1.36673507056670        1.09489416066655
H            1.14126029174387        2.81426197570521       -0.61402531409702
H            2.28320658203214        4.96065859933516       -0.73123176772735
H            6.22267305337579        5.42552975196199        1.62976469792713
H            6.84767469582156        5.01193213442524        0.02215364533442
H            6.60859627172766        6.69515262444109        0.47406018187917
H            2.92800705583954        6.76052225120199        0.42943846158972
H            3.87907957382488        6.38656499015949        1.86537779882282
H            4.40148943627132        7.66493034640938        0.76439808027902
H            5.39326813088149        5.34185079330322       -2.02512356972351
H            3.82381169910231        6.13117349301348       -1.88269530511310
H            5.29626835722583        7.04237685721639       -1.55862537274546
H            5.81221481356780        3.26554603380015        1.01614833101153
H            6.56686572083224        0.86251406962217        1.89483384872453
H            7.71106390402990       -2.65338551380572        4.61760751156344
H            6.04012809646088       -3.01118067974270        4.18957417667030
H            6.46527243761614       -1.41531719630723        4.80586844506572
H            9.12365556808474       -1.22767089452958        3.22677819581856
H            8.49062455581184       -0.36566223925574        1.82895362727906
H            7.99481753608945        0.09976067610144        3.46777968823925
H            6.77905438614614       -3.70693610936719        1.85257092213779
H            7.69337581725189       -2.58282627327738        0.85082331947900
H            8.45652468317912       -3.34440168832688        2.25125344956998
H            4.71785997637100       -2.97634271715506        2.37051040492101
H            2.64137674485278       -2.14607947600803        1.42120021225422
H            1.23137334560959       -3.95927002003845       -0.17088794150436
H            2.41905681166229       -6.11386000959824       -0.07259082968990
H            4.68668361699030       -6.34747587988980       -0.97305644457242
H            5.85088529912606       -4.41365377964289       -1.98136043684342
H            6.55781246917738       -1.91404620422492       -2.92329637200285
H            6.58227171054583        0.45713983127886       -3.62230302556397
H            4.59749756905441        1.86822813111593       -3.33054038281021
H            2.55671222030148        0.98228701599026       -2.27546298142154
H           -2.56726103176243        0.97310909436673       -2.27698491752707
H           -4.61408387978244        1.85188655953239       -3.32659660848919
H           -6.59858075021944        0.43730284059516       -3.60235511247568
H           -6.56790029767915       -1.93083631525532       -2.89328891965641
H           -5.85310511143498       -4.42583559022545       -1.94398103353560
H           -4.68147791179142       -6.35357101542303       -0.93265356045363
H           -2.40981347493564       -6.11306352445052       -0.04434454517041
H           -1.22545394857877       -3.95720445533379       -0.15798354654988

          :  Hamiltonian                  GFN2-xTB          :
         :: gradient norm              0.000075061924 Eh/a0 ::
         :: HOMO-LUMO gap              0.249112280644 eV    ::
         :: SCC energy              -203.579897146952 Eh    ::
         :: -> dispersion             -0.219171005367 Eh    ::
         :: -> Gsolv                  -0.081025478985 Eh    ::
         :: repulsion energy           3.580379906187 Eh    ::

    * Orbital Energies and Occupations

         #    Occupation            Energy/Eh            Energy/eV
      -------------------------------------------------------------
         1        2.0000           -0.6855802             -18.6556
       ...           ...                  ...                  ...
       176        2.0000           -0.4050725             -11.0226
       177        2.0000           -0.4050320             -11.0215
       178        2.0000           -0.3965767             -10.7914
       179        2.0000           -0.3934344             -10.7059
       180        2.0000           -0.3859190             -10.5014
       181        2.0000           -0.3858770             -10.5002
       182        2.0000           -0.3820453             -10.3960
       183        2.0000           -0.3819569             -10.3936
       184        2.0000           -0.3730217             -10.1504
       185        2.0000           -0.3728286             -10.1452
       186        1.7592           -0.3640860              -9.9073
       187        1.2409           -0.3619049              -9.8479
       188        0.9918           -0.2638306              -7.1792 (HOMO)
       189        0.0079           -0.2546760              -6.9301 (LUMO)
       190        0.0001           -0.2508402              -6.8257
       191        0.0001           -0.2503488              -6.8123
       192        0.0001           -0.2500541              -6.8043
       193                         -0.2391085              -6.5065
       194                         -0.2314426              -6.2979
       195                         -0.2313010              -6.2940
       196                         -0.2250834              -6.1248
       197                         -0.2250685              -6.1244
       198                         -0.2063702              -5.6156
       199                         -0.2016689              -5.4877
       ...                                ...                  ...
       369                          1.1644322              31.6858
      -------------------------------------------------------------
                  HL-Gap            0.0091546 Eh            0.2491 eV

     #   Z          covCN         q      C6AA      α(0)
     1   6 C        3.761    -0.109    22.636     6.782
     2   6 C        3.903     0.027    20.072     6.368
     3   6 C        3.761    -0.106    22.568     6.772
     4   6 C        3.761    -0.107    22.582     6.774
     5   6 C        2.973     0.008    27.838     8.655
     6   6 C        2.929    -0.038    28.949     8.824
     7   6 C        2.908    -0.046    29.139     8.851
     8   6 C        3.081     0.047    26.850     8.495
     9   6 C        3.066    -0.016    28.331     8.728
    10   6 C        2.917    -0.040    29.004     8.831
    11   6 C        3.065    -0.018    28.382     8.736
    12   6 C        2.917    -0.041    29.027     8.835
    13   6 C        2.973     0.007    27.852     8.657
    14   6 C        3.903     0.026    20.077     6.369
    15   6 C        3.762    -0.106    22.564     6.771
    16   6 C        3.761    -0.106    22.577     6.773
    17   6 C        3.761    -0.109    22.640     6.783
    18   6 C        2.930    -0.038    28.948     8.824
    19   6 C        2.908    -0.046    29.146     8.852
    20   6 C        3.082     0.047    26.868     8.498
    21   7 N        2.802    -0.029    21.803     6.935
    22   6 C        2.904     0.043    27.046     8.527
    23   6 C        2.917    -0.108    30.737     9.091
    24   6 C        2.904     0.042    27.046     8.527
    25   7 N        2.802    -0.029    21.801     6.935
    26   6 C        3.081     0.047    26.851     8.495
    27   6 C        2.908    -0.046    29.139     8.851
    28   6 C        2.929    -0.038    28.949     8.824
    29   6 C        2.973     0.008    27.838     8.654
    30   6 C        3.903     0.027    20.072     6.368
    31   6 C        3.761    -0.109    22.636     6.782
    32   6 C        3.761    -0.107    22.582     6.774
    33   6 C        3.761    -0.106    22.568     6.772
    34   6 C        2.917    -0.040    29.004     8.831
    35   6 C        3.066    -0.016    28.331     8.728
    36   6 C        3.065    -0.018    28.382     8.736
    37   6 C        2.917    -0.041    29.027     8.835
    38   6 C        2.973     0.007    27.852     8.657
    39   6 C        3.903     0.026    20.077     6.369
    40   6 C        3.761    -0.106    22.577     6.774
    41   6 C        3.761    -0.110    22.640     6.783
    42   6 C        3.762    -0.106    22.563     6.771
    43   6 C        2.930    -0.038    28.948     8.824
    44   6 C        2.908    -0.046    29.145     8.852
    45   6 C        3.082     0.047    26.869     8.498
    46   6 C        2.911     0.036    27.191     8.551
    47   7 N        2.800    -0.039    21.984     6.964
    48   6 C        3.077     0.057    26.641     8.462
    49   6 C        2.910    -0.039    28.980     8.827
    50   6 C        2.923    -0.034    28.836     8.806
    51   6 C        2.920    -0.037    28.923     8.819
    52   6 C        2.912    -0.032    28.807     8.801
    53   6 C        3.068    -0.016    28.346     8.730
    54   6 C        3.066    -0.017    28.376     8.735
    55   6 C        2.912    -0.033    28.818     8.803
    56   6 C        2.920    -0.038    28.950     8.823
    57   6 C        2.923    -0.035    28.861     8.810
    58   6 C        2.910    -0.047    29.158     8.854
    59   6 C        3.079     0.052    26.747     8.479
    60   6 C        2.962    -0.061    29.505     8.910
    61   6 C        1.908     0.101    28.595     8.636
    62   7 N        0.911    -0.405    30.501     7.987
    63   6 C        2.911     0.036    27.191     8.551
    64   7 N        2.800    -0.039    21.985     6.964
    65   6 C        3.079     0.052    26.746     8.479
    66   6 C        2.910    -0.047    29.158     8.854
    67   6 C        2.923    -0.035    28.861     8.810
    68   6 C        2.920    -0.038    28.951     8.823
    69   6 C        2.912    -0.033    28.818     8.803
    70   6 C        3.066    -0.017    28.376     8.735
    71   6 C        3.068    -0.016    28.346     8.730
    72   6 C        2.912    -0.032    28.807     8.801
    73   6 C        2.920    -0.037    28.923     8.819
    74   6 C        2.923    -0.034    28.836     8.806
    75   6 C        2.910    -0.040    28.982     8.828
    76   6 C        3.077     0.057    26.640     8.462
    77   1 H        0.925     0.038     2.476     2.461
    78   1 H        0.925     0.038     2.477     2.461
    79   1 H        0.925     0.040     2.449     2.447
    80   1 H        0.925     0.042     2.427     2.436
    81   1 H        0.925     0.038     2.482     2.464
    82   1 H        0.925     0.034     2.533     2.489
    83   1 H        0.925     0.042     2.428     2.437
    84   1 H        0.925     0.038     2.472     2.459
    85   1 H        0.925     0.035     2.521     2.483
    86   1 H        0.926     0.040     2.443     2.444
    87   1 H        0.926     0.031     2.578     2.511
    88   1 H        0.926     0.050     2.323     2.384
    89   1 H        0.926     0.051     2.311     2.377
    90   1 H        0.925     0.036     2.501     2.473
    91   1 H        0.925     0.042     2.416     2.431
    92   1 H        0.925     0.034     2.532     2.488
    93   1 H        0.925     0.035     2.518     2.482
    94   1 H        0.925     0.042     2.417     2.431
    95   1 H        0.925     0.037     2.494     2.469
    96   1 H        0.925     0.038     2.470     2.458
    97   1 H        0.925     0.039     2.466     2.456
    98   1 H        0.925     0.041     2.440     2.443
    99   1 H        0.926     0.036     2.500     2.472
   100   1 H        0.926     0.023     2.690     2.565
   101   1 H        0.926     0.035     2.513     2.479
   102   1 H        0.926     0.031     2.576     2.510
   103   1 H        0.926     0.040     2.442     2.444
   104   1 H        0.925     0.038     2.476     2.461
   105   1 H        0.925     0.038     2.477     2.461
   106   1 H        0.925     0.040     2.449     2.447
   107   1 H        0.925     0.038     2.472     2.459
   108   1 H        0.925     0.035     2.521     2.483
   109   1 H        0.925     0.042     2.428     2.437
   110   1 H        0.925     0.034     2.533     2.489
   111   1 H        0.925     0.038     2.481     2.463
   112   1 H        0.925     0.042     2.427     2.436
   113   1 H        0.926     0.050     2.323     2.384
   114   1 H        0.926     0.051     2.311     2.377
   115   1 H        0.925     0.042     2.417     2.431
   116   1 H        0.925     0.037     2.494     2.469
   117   1 H        0.925     0.035     2.518     2.482
   118   1 H        0.925     0.041     2.440     2.443
   119   1 H        0.925     0.038     2.470     2.458
   120   1 H        0.925     0.039     2.466     2.456
   121   1 H        0.925     0.036     2.501     2.473
   122   1 H        0.925     0.034     2.532     2.488
   123   1 H        0.925     0.042     2.416     2.431
   124   1 H        0.926     0.036     2.500     2.472
   125   1 H        0.926     0.023     2.690     2.565
   126   1 H        0.926     0.020     2.735     2.586
   127   1 H        0.926     0.035     2.510     2.478
   128   1 H        0.926     0.039     2.467     2.456
   129   1 H        0.926     0.041     2.442     2.444
   130   1 H        0.926     0.039     2.466     2.456
   131   1 H        0.926     0.038     2.476     2.461
   132   1 H        0.926     0.036     2.498     2.471
   133   1 H        0.926     0.025     2.651     2.546
   134   1 H        0.926     0.025     2.652     2.546
   135   1 H        0.926     0.036     2.498     2.472
   136   1 H        0.926     0.038     2.476     2.461
   137   1 H        0.926     0.039     2.466     2.456
   138   1 H        0.926     0.041     2.442     2.444
   139   1 H        0.926     0.039     2.467     2.456
   140   1 H        0.926     0.035     2.510     2.478
   141   1 H        0.926     0.020     2.736     2.587

molecular dipole:
                 x           y           z       tot (Debye)
 q only:        0.005       3.106       2.465
   full:        0.005       3.158       2.613      10.418

 projected vibrational frequencies (cm⁻¹)
eigval :       -0.00    -0.00    -0.00     0.00     0.00     0.00
eigval :        8.12    11.90    15.85    16.56    19.78    20.61
eigval :       23.92    31.17    32.23    36.53    36.91    40.43
eigval :       42.64    46.78    52.24    58.18    65.42    68.07
eigval :       75.07    76.05    80.49    87.94    90.22    99.14
eigval :      111.36   112.19   114.61   118.41   122.09   130.71
eigval :      132.87   146.37   151.11   154.04   160.97   162.09
eigval :      174.57   174.73   178.21   189.41   193.35   194.51
eigval :      202.50   203.04   208.32   214.94   216.91   224.64
eigval :      225.56   228.55   232.88   236.23   236.84   251.61
eigval :      258.07   259.48   270.55   271.75   277.71   278.62
eigval :      285.65   287.34   304.55   313.28   314.74   317.78
eigval :      321.67   322.04   332.15   336.57   336.99   341.14
eigval :      345.81   352.22   356.72   357.82   370.49   375.52
eigval :      384.34   391.23   395.53   395.64   398.29   401.10
eigval :      404.77   405.37   406.20   419.80   421.27   425.56
eigval :      433.33   435.30   439.62   441.16   443.91   445.22
eigval :      450.75   461.13   464.62   464.71   467.61   468.92
eigval :      493.08   496.60   501.96   514.90   515.86   517.09
eigval :      525.44   530.99   537.69   538.09   538.29   540.41
eigval :      554.24   568.53   581.74   582.30   583.16   586.03
eigval :      588.08   590.85   593.75   605.80   617.96   636.42
eigval :      639.10   641.48   641.81   654.16   668.41   670.38
eigval :      674.99   678.17   688.49   689.60   700.29   701.85
eigval :      705.45   706.03   706.95   708.08   715.84   721.39
eigval :      730.69   753.47   755.07   762.78   765.94   769.38
eigval :      773.99   775.81   812.44   819.20   821.97   828.07
eigval :      828.65   830.78   839.50   857.10   860.21   861.12
eigval :      867.45   869.84   869.89   870.50   870.71   871.37
eigval :      871.55   887.67   891.75   896.45   899.52   900.70
eigval :      900.99   901.91   906.70   913.20   916.17   916.87
eigval :      917.27   917.96   919.41   920.50   920.91   921.73
eigval :      928.61   930.99   955.28   958.56   958.72   959.47
eigval :      959.52   961.15   961.39   962.25   962.35   962.57
eigval :      962.86   965.04   965.12   995.73  1007.67  1013.47
eigval :     1026.22  1029.71  1031.92  1032.50  1032.81  1034.09
eigval :     1034.17  1035.82  1037.78  1040.64  1043.39  1065.35
eigval :     1066.91  1067.38  1070.70  1075.29  1104.80  1115.94
eigval :     1118.25  1124.92  1126.85  1134.24  1142.26  1144.75
eigval :     1156.72  1157.98  1162.70  1170.36  1172.44  1176.55
eigval :     1177.36  1180.18  1187.36  1190.07  1215.70  1222.84
eigval :     1222.87  1224.01  1224.05  1224.45  1226.92  1227.85
eigval :     1227.95  1228.70  1228.90  1229.29  1230.11  1231.25
eigval :     1231.78  1237.59  1243.55  1249.80  1260.94  1277.37
eigval :     1277.69  1283.68  1285.59  1287.77  1289.90  1290.23
eigval :     1292.19  1293.01  1303.59  1319.88  1323.09  1337.93
eigval :     1338.58  1345.54  1348.24  1348.34  1349.38  1353.02
eigval :     1360.33  1362.44  1367.28  1378.32  1390.92  1399.31
eigval :     1399.61  1400.83  1400.89  1401.69  1401.90  1402.57
eigval :     1402.67  1408.93  1409.74  1414.96  1416.13  1417.65
eigval :     1425.17  1425.22  1426.13  1426.29  1431.13  1431.81
eigval :     1437.63  1457.19  1461.77  1462.22  1462.27  1467.18
eigval :     1475.05  1476.85  1477.62  1482.58  1483.80  1487.04
eigval :     1487.16  1487.96  1487.98  1489.82  1490.11  1491.62
eigval :     1491.66  1496.72  1497.04  1498.20  1498.28  1500.51
eigval :     1500.67  1501.24  1501.27  1509.96  1510.02  1511.44
eigval :     1511.57  1515.49  1515.76  1516.20  1516.49  1560.20
eigval :     1560.45  1564.95  1565.02  1571.95  1572.05  1573.29
eigval :     1578.18  1578.41  1579.15  1581.75  1582.09  1592.13
eigval :     1592.33  1594.37  1601.36  2226.24  3021.59  3021.63
eigval :     3021.91  3022.06  3022.52  3022.58  3022.62  3022.72
eigval :     3025.52  3025.57  3025.62  3025.62  3026.82  3026.89
eigval :     3027.56  3027.63  3029.18  3029.26  3029.74  3029.86
eigval :     3032.50  3032.53  3033.09  3033.13  3037.52  3037.56
eigval :     3037.77  3037.82  3044.34  3044.41  3046.20  3046.20
eigval :     3048.68  3048.78  3049.62  3049.63  3075.81  3076.45
eigval :     3079.32  3079.49  3081.18  3081.50  3083.46  3083.53
eigval :     3084.16  3084.24  3084.79  3085.84  3087.82  3088.03
eigval :     3089.96  3090.03  3095.14  3095.68  3096.69  3097.18
eigval :     3097.59  3098.19  3098.27  3098.95  3122.62  3122.83
eigval :     3124.14  3125.40  3125.72

   temp. (K)  partition function   enthalpy   heat capacity  entropy
                                   cal/mol     cal/K/mol   cal/K/mol   J/K/mol
 298.15  VIB  0.496E+32            41692.443    258.093    258.028
         ROT  0.235E+09              888.752      2.981     41.284
         INT  0.116E+41            42581.195    261.074    299.312
         TR   0.301E+29             1481.254      4.968     46.525
         TOT                       44062.4493   266.0417   345.8375  1446.9841

       T/K    H(0)-H(T)+PV         H(T)/Eh          T*S/Eh         G(T)/Eh
   ------------------------------------------------------------------------
    298.15    0.702180E-01    0.121258E+01    0.164319E+00    0.104826E+01
   ------------------------------------------------------------------------

         :::::::::::::::::::::::::::::::::::::::::::::::::::::
         ::                  THERMODYNAMIC                  ::
         :::::::::::::::::::::::::::::::::::::::::::::::::::::
         :: total free energy        -198.951252484146 Eh   ::
         ::.................................................::
         :: total energy             -199.999517242049 Eh   ::
         :: zero point energy           1.142365328846 Eh   ::
         :: G(RRHO) w/o ZPVE           -0.094100570943 Eh   ::
         :: G(RRHO) contrib.            1.048264757903 Eh   ::
         :::::::::::::::::::::::::::::::::::::::::::::::::::::

           -------------------------------------------------
          | TOTAL ENERGY             -199.999517242049 Eh   |
          | TOTAL ENTHALPY           -198.786933930738 Eh   |
          | TOTAL FREE ENERGY        -198.951252484146 Eh   |
          | GRADIENT NORM               0.000074492337 Eh/α |
          | HOMO-LUMO GAP               0.249110094562 eV   |
           -------------------------------------------------

 * finished run on 2025/09/07 at 19:59:23.385
