   * xtb version 6.7.1 (edcfbbe) compiled by 'albert@albert-system' on 2024-07-22

   ID    Z sym.   atoms
    1    6 C      1-5, 7-25, 28-49
    2    7 N      6
    3   15 P      26
    4    8 O      27
    5    1 H      50-85

          program call               : xtb data2507/gas/TAA-PPO/TAA-PPO_gas_T1_crest.xyz --gfn 2 --spinpol --tblite --uhf 2 --ohess vtight --parallel 40 --molden --ceasefiles --namespace data2507/gas/TAA-PPO/TAA-PPO_gas_T1_finalOpt
 * total energy  :  -126.3669560 Eh     change        0.3547213E-07 Eh
 * total energy  :  -126.3669809 Eh     change       -0.2490883E-04 Eh
 * total energy  :  -126.3669879 Eh     change       -0.7010162E-05 Eh
 * total energy  :  -126.3669903 Eh     change       -0.2364493E-05 Eh
 * total energy  :  -126.3669943 Eh     change       -0.4028739E-05 Eh
 * total energy  :  -126.3669974 Eh     change       -0.3091000E-05 Eh
 * total energy  :  -126.3670000 Eh     change       -0.2591357E-05 Eh
 * total energy  :  -126.3670013 Eh     change       -0.1328464E-05 Eh
 * total energy  :  -126.3670026 Eh     change       -0.1299737E-05 Eh
 * total energy  :  -126.3670039 Eh     change       -0.1327289E-05 Eh
 * total energy  :  -126.3670186 Eh     change       -0.5275205E-06 Eh
 * total energy  :  -126.3670180 Eh     change        0.6408947E-06 Eh
 * total energy  :  -126.3670188 Eh     change       -0.8547331E-06 Eh
 * total energy  :  -126.3670190 Eh     change       -0.1888681E-06 Eh
 * total energy  :  -126.3670196 Eh     change       -0.5683351E-06 Eh
 * total energy  :  -126.3670201 Eh     change       -0.5282063E-06 Eh
 * total energy  :  -126.3670209 Eh     change       -0.8387673E-06 Eh
 * total energy  :  -126.3670213 Eh     change       -0.3114042E-06 Eh
 * total energy  :  -126.3670213 Eh     change       -0.6099009E-07 Eh
   *** GEOMETRY OPTIMIZATION CONVERGED AFTER 31 ITERATIONS ***

 final structure:
================
85
 xtb: 6.7.1 (edcfbbe)
C           -7.84368795003036       -4.36351764674997        1.26388269082926
C           -6.98580164811198       -3.18328909149651        0.92750469087210
C           -7.45426486482845       -2.19399099128389        0.06739199113647
C           -6.68457066314401       -1.09400848462137       -0.24499492774435
C           -5.41079128450488       -0.94624407932742        0.31071984582810
N           -4.60282138346833        0.14779405990722        0.00873991635922
C           -5.14433511234533        1.40111187335709       -0.26862380334769
C           -6.32939380640656        1.83831874305874        0.32665992149439
C           -6.83247898911876        3.09014152448869        0.03661032586887
C           -6.17546329891168        3.94617368509106       -0.83955755600564
C           -6.71124509545386        5.31184871889642       -1.13980176153646
C           -4.98883643908433        3.50917824640789       -1.42072154743845
C           -4.47752715518125        2.25924996945560       -1.14638625035978
C           -3.21214108465717       -0.01317153158849       -0.01396064450088
C           -2.63194274340334       -0.99252289022969       -0.88270234997530
C           -3.40171080774301       -1.74447998623114       -1.77303930892341
C           -2.81714580269037       -2.63909949650251       -2.66311340142186
C           -1.44543483120509       -2.76920923705756       -2.70662968905006
C           -0.65287521450892       -2.00512646905832       -1.85813715160626
C           -1.21339144585528       -1.13213720171892       -0.92020809519353
C           -0.39560491665221       -0.31996938038472       -0.07526610642800
C            1.05780643354454       -0.46789214940317       -0.11292412630072
C            1.87651195085237        0.62587510458484       -0.41587970844466
C            3.24865376435501        0.49627455373961       -0.45466773959881
C            3.83827452674574       -0.73212546834100       -0.17637212349705
P            5.63526153745461       -1.00267768049754       -0.15455362352030
O            6.02285720217076       -2.39676265664741       -0.40023663119565
C            6.20916718932996       -0.36955914021392        1.45760368495265
C            5.54898659870896        0.61917122493419        2.17403608648420
C            6.06734640929315        1.05271729690516        3.38143297071097
C            7.24008503707162        0.50281001306872        3.87372609570860
C            7.89525570631232       -0.48977322544864        3.16283783401283
C            7.37898587629997       -0.92568441482978        1.95618643047735
C            6.31541761406836        0.16291653551207       -1.38122544646394
C            6.56241066727503        1.50173151168529       -1.10961277012197
C            7.06444677380945        2.32133227466175       -2.10480808674637
C            7.32057772752134        1.80846925983511       -3.36646076639558
C            7.08112425763869        0.47063042780536       -3.63581473517050
C            6.57900795768780       -0.35101766885091       -2.64307850228147
C            3.03652588291288       -1.82798027716316        0.12072607451251
C            1.66394298099962       -1.70159245129433        0.14730806281678
C           -0.98340394724304        0.63912563218022        0.80634944411465
C           -0.20936784693079        1.36161088941137        1.71999434128278
C           -0.78209403638772        2.26897523662491        2.60355016406516
C           -2.15016603755685        2.43757016698244        2.61918109192472
C           -2.95046611801660        1.69911307812059        1.75416882909286
C           -2.39866883784366        0.80821601133435        0.83059722215790
C           -4.93411500297249       -1.93780200666646        1.16972299088124
C           -5.71365305096646       -3.03648968009480        1.46723849518787
H           -8.64796575853837       -4.06404219282538        1.93666763090244
H           -7.26180293089862       -5.14119806525465        1.75178920476990
H           -8.29948931885681       -4.77584457578057        0.36543443055504
H           -8.43562434431358       -2.29596191647534       -0.37351654056453
H           -7.05427370284885       -0.35302369995163       -0.93883557815266
H           -6.84079041758808        1.19995356363302        1.03240531658975
H           -7.74943010989762        3.41206428478020        0.50925805726428
H           -6.65417787552495        5.52128599799288       -2.20638657424999
H           -7.74521758407021        5.40508489168006       -0.81733832043037
H           -6.12136138906807        6.06804935515098       -0.62090338481543
H           -4.46329378089149        4.15855747191191       -2.10590822985626
H           -3.56278017114670        1.92649251009814       -1.61421016661266
H           -4.47457724713246       -1.63474030780211       -1.78474209435021
H           -3.44613146928167       -3.21733878038676       -3.32344949556652
H           -0.97922783506854       -3.44857928997794       -3.40433649596378
H            0.42067127118135       -2.07430018993892       -1.94171009583231
H            1.41716204631235        1.57634084207961       -0.64835965603817
H            3.86582821714721        1.34484735640321       -0.71585470621267
H            4.62842024193084        1.03921938771809        1.79352047385108
H            5.55410744060130        1.82087612015367        3.94204813194517
H            7.64016359040621        0.84530505328334        4.81692815909238
H            8.80583773486283       -0.92249635702787        3.55075880325102
H            7.86388761318538       -1.70643453737067        1.38764940630630
H            6.37553034697983        1.89645477114309       -0.12052255061974
H            7.25965468549837        3.36338795410431       -1.89562768452195
H            7.71295522865707        2.45320467812343       -4.13935070807173
H            7.28731657928789        0.07062970869057       -4.61783860835801
H            6.39421390456756       -1.40055769292340       -2.82274494617444
H            3.51340055845192       -2.77647974959662        0.32329504656149
H            1.04426911292476       -2.55078210840247        0.39731518035337
H            0.85634858370889        1.19596680511781        1.75678414968224
H           -0.15216862906192        2.82434660440679        3.28244203485997
H           -2.61145461809547        3.13030558142229        3.30725926122209
H           -4.02036370323859        1.82193476201632        1.81262579037957
H           -3.95132053117682       -1.83024518543296        1.60427221134944
H           -5.32829490495548       -3.79126512201579        2.13733571555969

 projected vibrational frequencies (cm⁻¹)
eigval :       -0.00     0.00     0.00     0.00     0.00     0.00
eigval :      -11.39    -6.17     7.34     8.88    13.28    22.32
eigval :       24.58    28.75    34.85    38.91    41.25    45.25
eigval :       46.42    56.50    60.12    70.16    73.19    88.58
eigval :      112.29   117.63   125.73   139.63   150.17   157.34
eigval :      158.36   162.55   196.91   198.12   217.22   224.98
eigval :      227.54   234.20   257.52   262.61   282.58   286.92
eigval :      291.95   319.53   324.09   350.09   352.90   360.69
eigval :      362.35   363.73   370.39   376.91   378.65   387.94
eigval :      390.14   390.53   400.02   409.06   431.67   438.06
eigval :      443.17   445.17   473.59   477.20   486.71   493.60
eigval :      505.60   518.50   530.20   565.77   576.48   576.78
eigval :      583.41   585.90   586.64   600.61   609.09   611.66
eigval :      613.52   630.86   658.24   658.82   660.39   661.90
eigval :      666.03   675.25   682.18   691.87   706.28   714.93
eigval :      732.03   741.76   746.85   748.32   755.58   789.61
eigval :      791.93   801.71   807.28   812.20   836.36   838.31
eigval :      858.55   864.70   871.99   874.32   879.03   880.88
eigval :      883.58   887.85   891.67   902.41   903.92   905.16
eigval :      905.49   910.50   914.98   916.73   923.77   923.88
eigval :      927.16   927.57   929.49   932.76   933.61   933.66
eigval :      935.04   954.87   972.52   975.48  1006.24  1008.20
eigval :     1008.55  1011.36  1025.73  1030.70  1031.04  1078.33
eigval :     1078.76  1092.20  1108.09  1112.54  1113.39  1115.35
eigval :     1120.49  1121.91  1125.56  1127.45  1133.14  1143.64
eigval :     1146.09  1161.93  1180.70  1180.82  1184.95  1185.17
eigval :     1187.72  1191.39  1193.52  1193.77  1197.56  1201.09
eigval :     1224.81  1235.50  1242.69  1260.19  1261.42  1262.67
eigval :     1263.88  1269.82  1272.13  1274.09  1278.33  1282.92
eigval :     1303.30  1309.24  1316.52  1320.33  1321.46  1321.83
eigval :     1326.50  1332.02  1341.29  1362.79  1369.16  1381.20
eigval :     1391.56  1403.80  1403.87  1412.35  1413.91  1424.10
eigval :     1424.49  1425.54  1426.10  1454.99  1455.30  1458.22
eigval :     1472.37  1478.46  1479.30  1480.32  1482.45  1484.87
eigval :     1487.80  1499.19  1528.52  1533.39  1538.98  1554.61
eigval :     1560.57  1565.63  1569.49  1583.65  1583.83  1586.84
eigval :     1587.56  1595.32  1600.49  2996.54  2997.35  3024.73
eigval :     3026.30  3044.07  3046.09  3064.03  3066.07  3067.51
eigval :     3073.49  3073.62  3073.68  3073.78  3074.78  3075.20
eigval :     3077.01  3077.23  3077.28  3077.53  3077.86  3078.46
eigval :     3083.48  3083.64  3083.74  3085.28  3086.19  3087.27
eigval :     3088.30  3090.35  3090.70  3090.74  3091.48  3097.24
eigval :     3100.00  3107.48  3107.59

   temp. (K)  partition function   enthalpy   heat capacity  entropy
                                   cal/mol     cal/K/mol   cal/K/mol   J/K/mol
 298.15  VIB  0.977E+23            25577.954    152.114    164.392
         ROT  0.103E+09              888.752      2.981     39.638
         INT  0.100E+32            26466.707    155.095    204.030
         TR   0.160E+29             1481.254      4.968     45.276
         TOT                       27947.9606   160.0627   249.3061  1043.0967

       T/K    H(0)-H(T)+PV         H(T)/Eh          T*S/Eh         G(T)/Eh
   ------------------------------------------------------------------------
    298.15    0.445379E-01    0.706114E+00    0.118453E+00    0.587661E+00
   ------------------------------------------------------------------------

         :::::::::::::::::::::::::::::::::::::::::::::::::::::
         ::                  THERMODYNAMIC                  ::
         :::::::::::::::::::::::::::::::::::::::::::::::::::::
         :: total free energy        -125.779360718432 Eh   ::
         ::.................................................::
         :: total energy             -126.367021321855 Eh   ::
         :: zero point energy           0.661576065503 Eh   ::
         :: G(RRHO) w/o ZPVE           -0.073915462081 Eh   ::
         :: G(RRHO) contrib.            0.587660603422 Eh   ::
         :::::::::::::::::::::::::::::::::::::::::::::::::::::

           -------------------------------------------------
          | TOTAL ENERGY             -126.367021321855 Eh   |
          | TOTAL ENTHALPY           -125.660907346235 Eh   |
          | TOTAL FREE ENERGY        -125.779360718432 Eh   |
          | GRADIENT NORM               0.000135811350 Eh/α |
           -------------------------------------------------

 * finished run on 2025/09/08 at 15:42:24.839
