   * xtb version 6.7.1 (edcfbbe) compiled by 'albert@albert-system' on 2024-07-22

   ID    Z sym.   atoms
    1    6 C      1-5, 7-25, 28-49
    2    7 N      6
    3   15 P      26
    4    8 O      27
    5    1 H      50-85

          program call               : xtb data2507/gas/TAA-PPO/TAA-PPO_gas_S0_finalOpt.xtbopt.xyz --gfn 2 --spinpol --tblite --uhf 2 --ohess vtight --parallel 40 --molden --ceasefiles --namespace data2507/gas/TAA-PPO/TAA-PPO_gas_T1_preOpt
 * total energy  :  -126.3596658 Eh     change       -0.2208770E-07 Eh
 * total energy  :  -126.3647639 Eh     change       -0.5098112E-02 Eh
 * total energy  :  -126.3659675 Eh     change       -0.1203579E-02 Eh
 * total energy  :  -126.3660614 Eh     change       -0.9392147E-04 Eh
 * total energy  :  -126.3661287 Eh     change       -0.6727469E-04 Eh
 * total energy  :  -126.3661585 Eh     change       -0.2979218E-04 Eh
 * total energy  :  -126.3661972 Eh     change       -0.3868498E-04 Eh
 * total energy  :  -126.3662318 Eh     change       -0.3465518E-04 Eh
 * total energy  :  -126.3662569 Eh     change       -0.2508844E-04 Eh
 * total energy  :  -126.3662785 Eh     change       -0.2160708E-04 Eh
 * total energy  :  -126.3665463 Eh     change       -0.6902262E-06 Eh
 * total energy  :  -126.3665468 Eh     change       -0.5276627E-06 Eh
 * total energy  :  -126.3665475 Eh     change       -0.6520720E-06 Eh
 * total energy  :  -126.3665483 Eh     change       -0.7846395E-06 Eh
 * total energy  :  -126.3665493 Eh     change       -0.1032084E-05 Eh
 * total energy  :  -126.3665506 Eh     change       -0.1242736E-05 Eh
 * total energy  :  -126.3665508 Eh     change       -0.2632632E-06 Eh
 * total energy  :  -126.3665513 Eh     change       -0.4417806E-06 Eh
 * total energy  :  -126.3665513 Eh     change       -0.8244103E-07 Eh
   *** GEOMETRY OPTIMIZATION CONVERGED AFTER 96 ITERATIONS ***

 final structure:
================
85
 xtb: 6.7.1 (edcfbbe)
C           -7.27158430260467       -4.96770192836455        0.68039367199485
C           -6.56471605814682       -3.66392476068395        0.47348765194741
C           -7.07826391101239       -2.71570608703239       -0.40685625826380
C           -6.44799357338102       -1.50554521062404       -0.60272165536508
C           -5.27556573988470       -1.20221040328928        0.09445096021406
N           -4.60716704188753        0.00698394895196       -0.08795640017351
C           -5.29490474342067        1.18100662394606       -0.38819924319133
C           -6.58554197423234        1.41898164409192        0.08893479715807
C           -7.23362116237557        2.59782226542155       -0.21773021817791
C           -6.62219950527618        3.57661341720477       -0.99299304257691
C           -7.33313818870257        4.84893545790566       -1.33631970752067
C           -5.33259811270645        3.33754914538585       -1.45761373696055
C           -4.67535596165100        2.16176028208617       -1.16627261501192
C           -3.21299094060514        0.04249803651610        0.03544924554988
C           -2.41528535293069       -0.83883040999781       -0.76246806157782
C           -2.96996538636637       -1.67290291862525       -1.73525842530709
C           -2.18261869409690       -2.55258376196996       -2.47154753635925
C           -0.82451095662611       -2.61627984036066       -2.24385843071456
C           -0.23841109869591       -1.75471498554111       -1.32332152904694
C           -0.99856507148072       -0.82834041069393       -0.60234896279925
C           -0.39193698908213        0.10852755603265        0.28881133487689
C            1.06538027168262        0.14120401524785        0.42010600165076
C            1.87565074937611        0.39723857372905       -0.69060466146181
C            3.24946573867595        0.43123400297126       -0.57362872771516
C            3.84723216620196        0.19516434863697        0.65940168348018
P            5.64615473378777        0.17648178377549        0.91723496102443
O            6.04368403061867        0.45278604584933        2.30274127624402
C            6.31840355901750        1.37700763566740       -0.27952326559447
C            6.55534064403554        1.07582469437507       -1.61378363535618
C            7.05153880183039        2.05257352507932       -2.45873184183503
C            7.31177408876274        3.32508029118149       -1.97556535555842
C            7.08236199732607        3.62390828041050       -0.64222823043310
C            6.58608490112134        2.64967343994094        0.20467540654568
C            6.21768072226972       -1.44857596459772        0.31545802153556
C            7.40513860685626       -1.92058639840569        0.85742634447942
C            7.92210641576844       -3.13494601781542        0.44458213902180
C            7.24991568476658       -3.88038808089727       -0.51062529709382
C            6.06000831995367       -3.41440840619013       -1.04628122891835
C            5.54102725875954       -2.19910061691510       -0.63595246257755
C            3.05294521711829       -0.05502438384158        1.77193060548378
C            1.67902068997946       -0.07699278386765        1.65727937482034
C           -1.19016458749362        1.01290147845469        1.05358377973200
C           -0.61336517905307        1.96921128366698        1.89540602506067
C           -1.39331328186157        2.79880580245590        2.69320810416493
C           -2.76603534497707        2.67283007700083        2.67445749711347
C           -3.36854379176091        1.76176007965766        1.81254321699745
C           -2.61171054046518        0.95761722068921        0.95820827435449
C           -4.75450362814891       -2.15081686427979        0.97582728257052
C           -5.39272814765514       -3.36051611313591        1.15576541985050
H           -8.17878014421260       -4.81477055546039        1.26563430110254
H           -6.63792763591425       -5.67388801170615        1.21052002222165
H           -7.56232065001507       -5.40288650269200       -0.27400078021108
H           -7.98179396254713       -2.93725237132352       -0.95679398005260
H           -6.84613496042949       -0.79581183319968       -1.31333601594635
H           -7.06640209025674        0.68532794365984        0.71952494182729
H           -8.23033751161789        2.76635883337228        0.16434548643060
H           -6.64972243027644        5.69463508099993       -1.29746978025393
H           -7.73569344270125        4.79170071248104       -2.34841451950858
H           -8.15904253865039        5.03027758847124       -0.65293211655109
H           -4.83952968970628        4.08433152864613       -2.06299051639966
H           -3.67822351295322        1.98425087597106       -1.54109395744208
H           -4.03114375210624       -1.64704599346021       -1.92678832010061
H           -2.64818901204023       -3.19335934412966       -3.20548901758575
H           -0.20969473840124       -3.32212952603724       -2.78225207802173
H            0.82752547855721       -1.80344727673150       -1.16253729856499
H            1.40987669242234        0.59551289844749       -1.64569995155706
H            3.86113294133875        0.65628206440323       -1.43639414419741
H            6.36508899428910        0.07830049531258       -1.98509674586776
H            7.23910417728128        1.82052796180593       -3.49733113654219
H            7.70005831720616        4.08332692534832       -2.63986225783409
H            7.29200788420854        4.61431883888631       -0.26536590894114
H            6.40895439941935        2.85230724479847        1.25135848651899
H            7.90321014406978       -1.32535797957692        1.60950790039077
H            8.84645413372826       -3.50200447587258        0.86613570086027
H            7.65043540441503       -4.82980140124132       -0.83496725679922
H            5.53373312928299       -4.00175031502795       -1.78507664407045
H            4.60765963420087       -1.83868442295521       -1.04524358723545
H            3.53618758239895       -0.22455258663617        2.72364753830558
H            1.06416645629796       -0.28733222955500        2.52062698618111
H            0.46072804917078        2.06606153489711        1.92994532824863
H           -0.91668764724568        3.52799960357828        3.33097966760630
H           -3.38386144386973        3.28816365622293        3.31131936119268
H           -4.44461138309103        1.68706624655127        1.81152857888237
H           -3.85005299159641       -1.92343939545561        1.52033621193578
H           -4.97525525559322       -4.08010391073302        1.84506447043220

 projected vibrational frequencies (cm⁻¹)
eigval :       -0.00    -0.00    -0.00    -0.00     0.00     0.00
eigval :      -29.82    -7.14     6.83     8.79    14.88    20.87
eigval :       23.12    25.77    33.47    39.82    43.58    45.08
eigval :       48.56    55.10    60.81    68.36    72.70    88.92
eigval :      116.45   121.72   131.16   138.93   152.71   155.48
eigval :      157.64   161.92   190.38   198.95   216.98   222.55
eigval :      228.85   231.08   257.71   262.68   282.62   288.52
eigval :      293.05   320.09   323.35   350.33   353.06   356.43
eigval :      362.13   363.65   368.66   376.18   379.12   390.18
eigval :      393.35   397.53   400.06   406.81   424.03   436.03
eigval :      442.83   446.13   475.16   477.61   487.43   493.50
eigval :      505.04   518.90   530.39   566.06   575.75   576.62
eigval :      583.66   585.91   586.63   599.18   609.83   611.71
eigval :      613.94   630.47   658.26   658.95   660.99   664.11
eigval :      667.06   674.18   682.21   690.94   706.03   715.06
eigval :      732.20   741.86   746.95   747.40   755.67   788.39
eigval :      793.93   799.80   807.08   813.51   836.14   838.24
eigval :      858.27   864.75   871.90   875.10   879.11   880.92
eigval :      883.95   887.28   891.45   902.46   903.37   904.82
eigval :      905.36   910.64   914.87   917.05   923.67   923.82
eigval :      926.71   927.28   929.16   932.43   933.28   933.73
eigval :      934.96   955.68   972.54   975.54  1006.90  1008.16
eigval :     1008.58  1011.24  1025.59  1030.85  1031.05  1078.33
eigval :     1078.78  1092.15  1106.57  1110.56  1113.47  1115.30
eigval :     1119.12  1122.25  1125.82  1127.66  1133.06  1143.76
eigval :     1146.08  1160.33  1180.83  1180.94  1184.20  1185.29
eigval :     1187.10  1191.54  1193.73  1193.80  1197.58  1200.67
eigval :     1224.22  1235.21  1241.14  1260.11  1260.63  1262.06
eigval :     1263.66  1270.06  1271.62  1274.07  1278.45  1280.73
eigval :     1302.99  1309.75  1315.71  1319.35  1321.40  1321.92
eigval :     1326.32  1331.79  1341.58  1364.68  1370.91  1381.09
eigval :     1390.42  1404.13  1404.18  1412.49  1413.92  1423.85
eigval :     1424.79  1425.59  1426.27  1454.97  1455.34  1459.59
eigval :     1472.77  1478.54  1479.76  1480.92  1482.56  1484.82
eigval :     1487.99  1496.68  1526.82  1532.93  1541.33  1554.54
eigval :     1560.63  1565.68  1571.23  1583.97  1584.02  1587.21
eigval :     1588.01  1595.39  1600.73  2994.21  2997.98  3025.70
eigval :     3031.72  3042.44  3046.99  3064.25  3065.59  3067.86
eigval :     3073.53  3073.59  3073.76  3073.84  3074.64  3075.62
eigval :     3076.89  3077.22  3077.56  3077.61  3078.09  3078.47
eigval :     3083.47  3083.59  3083.64  3085.55  3086.15  3087.34
eigval :     3088.09  3090.69  3090.79  3090.86  3091.33  3097.55
eigval :     3100.01  3105.20  3105.67

   temp. (K)  partition function   enthalpy   heat capacity  entropy
                                   cal/mol     cal/K/mol   cal/K/mol   J/K/mol
 298.15  VIB  0.506E+22            25000.609    151.142    159.275
         ROT  0.103E+09              888.752      2.981     39.639
         INT  0.519E+30            25889.362    154.123    198.914
         TR   0.160E+29             1481.254      4.968     45.276
         TOT                       27370.6154   159.0909   244.1902  1021.6917

       T/K    H(0)-H(T)+PV         H(T)/Eh          T*S/Eh         G(T)/Eh
   ------------------------------------------------------------------------
    298.15    0.436179E-01    0.705153E+00    0.116023E+00    0.589130E+00
   ------------------------------------------------------------------------

         :::::::::::::::::::::::::::::::::::::::::::::::::::::
         ::                  THERMODYNAMIC                  ::
         :::::::::::::::::::::::::::::::::::::::::::::::::::::
         :: total free energy        -125.777421189365 Eh   ::
         ::.................................................::
         :: total energy             -126.366551256980 Eh   ::
         :: zero point energy           0.661534846799 Eh   ::
         :: G(RRHO) w/o ZPVE           -0.072404779185 Eh   ::
         :: G(RRHO) contrib.            0.589130067614 Eh   ::
         :::::::::::::::::::::::::::::::::::::::::::::::::::::

           -------------------------------------------------
          | TOTAL ENERGY             -126.366551256980 Eh   |
          | TOTAL ENTHALPY           -125.661398558099 Eh   |
          | TOTAL FREE ENERGY        -125.777421189365 Eh   |
          | GRADIENT NORM               0.000159650604 Eh/α |
           -------------------------------------------------

 * finished run on 2025/09/08 at 15:31:41.205
