   * xtb version 6.7.1 (edcfbbe) compiled by 'albert@albert-system' on 2024-07-22

   ID    Z sym.   atoms
    1    6 C      1-5, 7-25, 28-49
    2    7 N      6
    3   15 P      26
    4    8 O      27
    5    1 H      50-85

          program call               : xtb data2507/gas/TAA-PPO/TAA-PPO_gas_S0_crest.xyz --gfn 2 --ohess vtight --parallel 40 --molden --ceasefiles --namespace data2507/gas/TAA-PPO/TAA-PPO_gas_S0_finalOpt
          :  Hamiltonian                  GFN2-xTB          :
 * total energy  :  -126.4246878 Eh     change       -0.2415419E-08 Eh
 * total energy  :  -126.4246892 Eh     change       -0.1362373E-05 Eh
 * total energy  :  -126.4246912 Eh     change       -0.2036002E-05 Eh
 * total energy  :  -126.4246957 Eh     change       -0.4507395E-05 Eh
 * total energy  :  -126.4246994 Eh     change       -0.3685760E-05 Eh
 * total energy  :  -126.4247008 Eh     change       -0.1363980E-05 Eh
 * total energy  :  -126.4247019 Eh     change       -0.1084576E-05 Eh
 * total energy  :  -126.4247037 Eh     change       -0.1893052E-05 Eh
 * total energy  :  -126.4247063 Eh     change       -0.2503255E-05 Eh
 * total energy  :  -126.4247083 Eh     change       -0.2019196E-05 Eh
 * total energy  :  -126.4247192 Eh     change       -0.4293457E-06 Eh
 * total energy  :  -126.4247197 Eh     change       -0.4367642E-06 Eh
 * total energy  :  -126.4247199 Eh     change       -0.2067521E-06 Eh
 * total energy  :  -126.4247204 Eh     change       -0.5153009E-06 Eh
 * total energy  :  -126.4247205 Eh     change       -0.1350430E-06 Eh
 * total energy  :  -126.4247208 Eh     change       -0.2656628E-06 Eh
 * total energy  :  -126.4247212 Eh     change       -0.4225722E-06 Eh
 * total energy  :  -126.4247215 Eh     change       -0.2414980E-06 Eh
 * total energy  :  -126.4247215 Eh     change       -0.2467110E-07 Eh
   *** GEOMETRY OPTIMIZATION CONVERGED AFTER 28 ITERATIONS ***

 final structure:
================
85
 xtb: 6.7.1 (edcfbbe)
C           -7.38025982238283       -4.86323829561132        0.95055070819703
C           -6.64838096132352       -3.58294062425136        0.68350144250335
C           -7.13377303037120       -2.67894089973708       -0.25603663154249
C           -6.47474026335261       -1.49681904805415       -0.52004734782995
C           -5.30276840281443       -1.17501628406722        0.16703409800360
N           -4.60888914625906        0.00865740816113       -0.08902520190676
C           -5.25668961427001        1.18294884145948       -0.47523604778439
C           -6.54455303918498        1.48639890171688       -0.03276908225786
C           -7.15589750670157        2.66149976107571       -0.42033520250608
C           -6.50796085969145        3.57498725844532       -1.24297749834133
C           -7.18458740691720        4.84076898846656       -1.67409487583209
C           -5.22036258357968        3.27364981680208       -1.66962305184682
C           -4.60086029208172        2.09763228522812       -1.29902455852966
C           -3.20561498980434        0.02000907537680        0.04976993059545
C           -2.42123299412983       -0.84507016256981       -0.73417638736919
C           -2.98929535660425       -1.70351707360333       -1.70988167850984
C           -2.21576580461370       -2.55236525715420       -2.44072862232792
C           -0.82470787732550       -2.60588181283508       -2.22980175831347
C           -0.23701716506701       -1.77479396111569       -1.32672339709205
C           -1.00120112799896       -0.84619902671901       -0.57218253309000
C           -0.39701592985963        0.05250485701795        0.31859085604880
C            1.07424751149053        0.07317927834149        0.45236804908496
C            1.86818192170716        0.52440640470266       -0.59971399728694
C            3.24484062046308        0.54403820249278       -0.48515128446627
C            3.84623608882209        0.10555770577867        0.68723177853975
P            5.64933614678677        0.05020236435900        0.93519303082870
O            6.04877977590670        0.15989423451942        2.34284727733947
C            6.32405628182316        1.37909210210083       -0.11465210142212
C            6.54957797522629        1.23718397926773       -1.47717470789921
C            7.05008345580806        2.30334333004354       -2.20307433448391
C            7.32574815948717        3.50670076570677       -1.57335201182641
C            7.10817124342280        3.64606733918580       -0.21212858107278
C            6.60811459101924        2.58207091114386        0.51636483156613
C            6.19515777467200       -1.50093768089244        0.14686421724528
C            7.35468414171520       -2.07344385240374        0.65080913829691
C            7.84953325919160       -3.24005342965501        0.09691148019966
C            7.18297782382541       -3.83653422328483       -0.96128463390466
C            6.02040455856182       -3.27058375523636       -1.45968091093398
C            5.52357982210945       -2.10280026204718       -0.90848350612228
C            3.06156304052611       -0.33773085499739        1.74332680284184
C            1.68528136668069       -0.35286472282557        1.62920694387655
C           -1.17933284425930        0.93264429219776        1.07983571867073
C           -0.59334770845131        1.87442726668566        1.96593696632797
C           -1.36136295538452        2.68862200655466        2.73996869658781
C           -2.76557772793301        2.60364080255492        2.68186691177485
C           -3.36674325631017        1.74019672740277        1.81805233481111
C           -2.60388165221976        0.89835818172506        0.96899153049708
C           -4.81011630205556       -2.07897575999281        1.10660016741323
C           -5.47524308462728       -3.26410916943920        1.35308621697121
H           -8.39125875032149       -4.65823974567486        1.30157115338573
H           -6.86563672700414       -5.45530399997867        1.70302921148869
H           -7.45955927723902       -5.45386066489420        0.03829549955625
H           -8.03931380129457       -2.91255877469551       -0.79807825186166
H           -6.85673763183453       -0.82060979866570       -1.27110101123037
H           -7.05761632064477        0.80342750878545        0.62868485551907
H           -8.15338095234529        2.87876537317547       -0.06510579520950
H           -6.46216688643875        5.64596255582648       -1.78856648593836
H           -7.67843086475095        4.69369450043226       -2.63567451004528
H           -7.93884362530299        5.14326094292940       -0.95129594287237
H           -4.69490346984660        3.96925653862822       -2.30841172766612
H           -3.60117706792639        1.87833808107186       -1.64489473260751
H           -4.05463775209520       -1.67390689642731       -1.87594980151788
H           -2.66537706122178       -3.19482875655414       -3.18321043487290
H           -0.22899926003950       -3.30728158179313       -2.79546678268643
H            0.83013329515941       -1.81386236885701       -1.16565431802321
H            1.39435221367804        0.86787363750355       -1.50854707785024
H            3.85215450153539        0.91028683722037       -1.30113215992248
H            6.34667107974937        0.29322808977813       -1.96371072047605
H            7.22874497667247        2.19525562724797       -3.26325814912567
H            7.71698332424309        4.33533969596426       -2.14531900067112
H            7.33018000448285        4.58230464171218        0.27870461019016
H            6.44050078647044        2.65975550755686        1.58117424435683
H            7.84829381013057       -1.59415997560416        1.48421250906007
H            8.75215628472729       -3.68560879976388        0.48860591836726
H            7.56634219406039       -4.74809576902918       -1.39595121866572
H            5.49850046382541       -3.74260071430288       -2.27971842178758
H            4.61101485529618       -1.66525574559502       -1.28882741258610
H            3.55045892999711       -0.65871542482325        2.65208662753631
H            1.07230871259260       -0.70116580088321        2.44811463433993
H            0.48363038489398        1.93577114650623        2.01459505634858
H           -0.89977671840700        3.39924146888747        3.40957534635020
H           -3.36272854782981        3.23292248535775        3.32494357439368
H           -4.44327432196269        1.68518226363963        1.77922067079470
H           -3.90196483668685       -1.84524939097177        1.64293479302436
H           -5.07544290539683       -3.94957935112479        2.08676311188948

          :  Hamiltonian                  GFN2-xTB          :
         :: gradient norm              0.000116646913 Eh/a0 ::
         :: HOMO-LUMO gap              1.633763231491 eV    ::
         :: SCC energy              -128.769900945140 Eh    ::
         :: -> dispersion             -0.121813696761 Eh    ::
         :: repulsion energy           2.345179446178 Eh    ::

    * Orbital Energies and Occupations

         #    Occupation            Energy/Eh            Energy/eV
      -------------------------------------------------------------
         1        2.0000           -0.6890842             -18.7509
       ...           ...                  ...                  ...
       106        2.0000           -0.4141455             -11.2695
       107        2.0000           -0.4128191             -11.2334
       108        2.0000           -0.4124457             -11.2232
       109        2.0000           -0.4073454             -11.0844
       110        2.0000           -0.4055850             -11.0365
       111        2.0000           -0.4017748             -10.9328
       112        2.0000           -0.4004355             -10.8964
       113        2.0000           -0.3991432             -10.8612
       114        2.0000           -0.3976302             -10.8201
       115        2.0000           -0.3970389             -10.8040
       116        2.0000           -0.3894937             -10.5987
       117        2.0000           -0.3660661              -9.9612
       118        2.0000           -0.3418079              -9.3011 (HOMO)
       119                         -0.2817685              -7.6673 (LUMO)
       120                         -0.2494235              -6.7872
       121                         -0.2483931              -6.7591
       122                         -0.2357926              -6.4162
       123                         -0.2337869              -6.3617
       124                         -0.2331273              -6.3437
       125                         -0.2326065              -6.3295
       126                         -0.2316341              -6.3031
       127                         -0.2232002              -6.0736
       128                         -0.2208151              -6.0087
       129                         -0.2190671              -5.9611
       ...                                ...                  ...
       237                          1.1912195              32.4147
      -------------------------------------------------------------
                  HL-Gap            0.0600395 Eh            1.6338 eV

     #   Z          covCN         q      C6AA      α(0)
     1   6 C        3.757    -0.108    22.608     6.779
     2   6 C        2.965     0.008    27.841     8.655
     3   6 C        2.925    -0.041    29.006     8.832
     4   6 C        2.920    -0.052    29.289     8.875
     5   6 C        2.922     0.062    26.609     8.459
     6   7 N        2.751    -0.075    22.693     7.075
     7   6 C        2.922     0.062    26.607     8.459
     8   6 C        2.920    -0.052    29.293     8.875
     9   6 C        2.925    -0.040    28.998     8.831
    10   6 C        2.965     0.008    27.842     8.655
    11   6 C        3.757    -0.107    22.607     6.779
    12   6 C        2.925    -0.039    28.976     8.828
    13   6 C        2.922    -0.051    29.267     8.872
    14   6 C        2.925     0.049    26.897     8.505
    15   6 C        2.981    -0.002    28.081     8.692
    16   6 C        2.917    -0.033    28.822     8.804
    17   6 C        2.915    -0.030    28.759     8.794
    18   6 C        2.914    -0.029    28.734     8.790
    19   6 C        2.918    -0.035    28.864     8.810
    20   6 C        2.984     0.006    27.877     8.661
    21   6 C        2.977    -0.012    28.310     8.728
    22   6 C        2.978     0.021    27.529     8.607
    23   6 C        2.924    -0.032    28.800     8.801
    24   6 C        2.969    -0.028    28.699     8.787
    25   6 C        2.921     0.010    27.797     8.646
    26  15 P        4.080     0.062   157.515    22.545
    27   8 O        0.808    -0.355    20.825     6.117
    28   6 C        2.921     0.013    27.716     8.633
    29   6 C        2.971    -0.026    28.659     8.781
    30   6 C        2.920    -0.028    28.704     8.786
    31   6 C        2.920    -0.025    28.632     8.775
    32   6 C        2.919    -0.027    28.667     8.780
    33   6 C        3.031    -0.019    28.459     8.750
    34   6 C        2.921     0.013    27.715     8.633
    35   6 C        3.032    -0.019    28.455     8.750
    36   6 C        2.919    -0.027    28.665     8.780
    37   6 C        2.920    -0.025    28.634     8.775
    38   6 C        2.920    -0.028    28.704     8.786
    39   6 C        2.970    -0.026    28.657     8.781
    40   6 C        3.030    -0.021    28.496     8.756
    41   6 C        2.923    -0.031    28.769     8.796
    42   6 C        2.984     0.007    27.868     8.659
    43   6 C        2.918    -0.035    28.864     8.810
    44   6 C        2.914    -0.029    28.717     8.787
    45   6 C        2.915    -0.030    28.743     8.792
    46   6 C        2.917    -0.033    28.826     8.804
    47   6 C        2.981    -0.002    28.075     8.692
    48   6 C        2.922    -0.051    29.269     8.872
    49   6 C        2.924    -0.039    28.967     8.826
    50   1 H        0.925     0.044     2.400     2.423
    51   1 H        0.925     0.039     2.457     2.451
    52   1 H        0.925     0.043     2.403     2.424
    53   1 H        0.926     0.030     2.589     2.516
    54   1 H        0.926     0.031     2.578     2.511
    55   1 H        0.926     0.031     2.575     2.510
    56   1 H        0.926     0.029     2.596     2.519
    57   1 H        0.925     0.041     2.434     2.440
    58   1 H        0.924     0.045     2.389     2.417
    59   1 H        0.925     0.041     2.438     2.442
    60   1 H        0.926     0.029     2.602     2.523
    61   1 H        0.926     0.026     2.651     2.546
    62   1 H        0.926     0.035     2.511     2.478
    63   1 H        0.926     0.030     2.592     2.517
    64   1 H        0.926     0.029     2.603     2.523
    65   1 H        0.926     0.029     2.602     2.522
    66   1 H        0.926     0.035     2.517     2.481
    67   1 H        0.926     0.037     2.486     2.466
    68   1 H        0.926     0.037     2.486     2.466
    69   1 H        0.926     0.035     2.516     2.480
    70   1 H        0.926     0.037     2.489     2.467
    71   1 H        0.926     0.039     2.460     2.453
    72   1 H        0.926     0.060     2.193     2.316
    73   1 H        0.926     0.060     2.200     2.319
    74   1 H        0.926     0.039     2.461     2.453
    75   1 H        0.926     0.037     2.489     2.467
    76   1 H        0.926     0.035     2.517     2.481
    77   1 H        0.926     0.037     2.495     2.470
    78   1 H        0.926     0.060     2.197     2.318
    79   1 H        0.926     0.039     2.463     2.454
    80   1 H        0.926     0.032     2.557     2.500
    81   1 H        0.926     0.031     2.571     2.507
    82   1 H        0.926     0.030     2.580     2.512
    83   1 H        0.926     0.035     2.511     2.478
    84   1 H        0.926     0.026     2.642     2.542
    85   1 H        0.926     0.029     2.603     2.523

molecular dipole:
                 x           y           z       tot (Debye)
 q only:       -0.677      -0.067      -1.278
   full:       -0.717      -0.095      -1.579       4.415

 projected vibrational frequencies (cm⁻¹)
eigval :        0.00     0.00     0.00     0.00     0.00     0.00
eigval :      -11.74     6.03     9.49    10.23    14.49    21.67
eigval :       23.24    25.64    35.16    38.43    42.62    45.28
eigval :       48.64    50.90    58.37    62.53    74.24    85.67
eigval :      114.18   119.48   126.84   141.55   148.16   153.94
eigval :      158.38   162.35   191.06   197.90   217.01   220.34
eigval :      221.50   228.78   256.59   262.32   282.80   287.50
eigval :      292.33   321.38   324.45   348.04   353.55   362.60
eigval :      363.31   365.81   374.36   377.97   382.43   389.00
eigval :      399.24   401.20   406.89   414.15   433.28   441.48
eigval :      443.95   450.66   460.14   479.97   486.15   490.43
eigval :      506.88   518.97   532.13   577.55   580.65   585.28
eigval :      585.89   586.65   598.33   606.43   611.26   613.53
eigval :      630.15   636.10   658.17   658.74   660.31   661.59
eigval :      667.60   685.60   691.04   692.46   715.68   733.06
eigval :      734.07   742.36   747.88   770.07   773.03   792.26
eigval :      794.71   800.34   806.83   811.79   860.41   866.88
eigval :      870.12   871.88   874.41   878.53   879.17   882.06
eigval :      895.78   902.81   905.56   909.31   913.35   914.71
eigval :      916.07   918.72   919.95   923.64   925.73   926.67
eigval :      927.03   927.37   928.94   931.15   933.97   934.93
eigval :      934.98   945.80   972.49   975.51  1008.04  1008.90
eigval :     1010.11  1013.84  1028.82  1033.35  1033.54  1078.29
eigval :     1078.64  1086.25  1086.55  1099.89  1113.28  1115.28
eigval :     1122.52  1127.38  1127.68  1131.24  1135.13  1145.71
eigval :     1148.59  1174.69  1180.70  1180.81  1183.23  1187.93
eigval :     1190.32  1191.45  1194.60  1199.14  1203.69  1218.13
eigval :     1232.86  1233.41  1239.55  1259.57  1260.36  1262.93
eigval :     1265.22  1269.76  1274.13  1277.20  1277.77  1286.00
eigval :     1314.95  1321.59  1321.80  1323.82  1327.05  1331.35
eigval :     1342.02  1350.27  1367.78  1385.36  1388.40  1405.38
eigval :     1405.71  1414.27  1414.64  1424.47  1424.92  1425.37
eigval :     1428.47  1439.68  1453.94  1454.70  1465.34  1482.72
eigval :     1484.20  1486.19  1487.48  1487.73  1495.57  1495.83
eigval :     1525.40  1527.99  1539.54  1560.86  1569.50  1574.93
eigval :     1583.85  1584.03  1586.41  1587.11  1588.06  1607.56
eigval :     1609.17  1611.10  1621.18  2990.68  3001.64  3014.83
eigval :     3033.60  3037.02  3044.89  3066.62  3066.71  3066.78
eigval :     3070.11  3070.73  3072.26  3072.84  3074.43  3074.52
eigval :     3074.83  3075.08  3077.23  3077.40  3077.75  3079.74
eigval :     3083.71  3084.09  3084.17  3084.29  3084.66  3085.17
eigval :     3085.92  3086.57  3087.36  3091.61  3092.15  3092.29
eigval :     3094.70  3107.90  3108.54

   temp. (K)  partition function   enthalpy   heat capacity  entropy
                                   cal/mol     cal/K/mol   cal/K/mol   J/K/mol
 298.15  VIB  0.817E+23            25502.085    151.067    163.827
         ROT  0.102E+09              888.752      2.981     39.634
         INT  0.836E+31            26390.838    154.048    203.461
         TR   0.160E+29             1481.254      4.968     45.276
         TOT                       27872.0917   159.0165   248.7367  1040.7142

       T/K    H(0)-H(T)+PV         H(T)/Eh          T*S/Eh         G(T)/Eh
   ------------------------------------------------------------------------
    298.15    0.444170E-01    0.708344E+00    0.118183E+00    0.590161E+00
   ------------------------------------------------------------------------

         :::::::::::::::::::::::::::::::::::::::::::::::::::::
         ::                  THERMODYNAMIC                  ::
         :::::::::::::::::::::::::::::::::::::::::::::::::::::
         :: total free energy        -125.834560636133 Eh   ::
         ::.................................................::
         :: total energy             -126.424721498957 Eh   ::
         :: zero point energy           0.663926671019 Eh   ::
         :: G(RRHO) w/o ZPVE           -0.073765808196 Eh   ::
         :: G(RRHO) contrib.            0.590160862823 Eh   ::
         :::::::::::::::::::::::::::::::::::::::::::::::::::::

           -------------------------------------------------
          | TOTAL ENERGY             -126.424721498957 Eh   |
          | TOTAL ENTHALPY           -125.716377822480 Eh   |
          | TOTAL FREE ENERGY        -125.834560636133 Eh   |
          | GRADIENT NORM               0.000116709796 Eh/α |
          | HOMO-LUMO GAP               1.633757516934 eV   |
           -------------------------------------------------

 * finished run on 2025/09/08 at 15:31:26.224
