   * xtb version 6.7.1 (edcfbbe) compiled by 'albert@albert-system' on 2024-07-22

   ID    Z sym.   atoms
    1    6 C      1-5, 7-25, 28-49
    2    7 N      6
    3   15 P      26
    4    8 O      27
    5    1 H      50-85

          program call               : xtb data2507/gas/TAA-PPO/TAA-PPO.xyz --gfn 2 --ohess vtight --parallel 40 --molden --ceasefiles --namespace data2507/gas/TAA-PPO/TAA-PPO_gas_S0_preOpt
          :  Hamiltonian                  GFN2-xTB          :
 * total energy  :  -126.3941892 Eh     change       -0.3855376E-08 Eh
 * total energy  :  -126.4139460 Eh     change       -0.1975680E-01 Eh
 * total energy  :  -126.4205897 Eh     change       -0.6643624E-02 Eh
 * total energy  :  -126.4219140 Eh     change       -0.1324298E-02 Eh
 * total energy  :  -126.4226087 Eh     change       -0.6947810E-03 Eh
 * total energy  :  -126.4228253 Eh     change       -0.2165895E-03 Eh
 * total energy  :  -126.4229636 Eh     change       -0.1382335E-03 Eh
 * total energy  :  -126.4230657 Eh     change       -0.1020970E-03 Eh
 * total energy  :  -126.4231629 Eh     change       -0.9728610E-04 Eh
 * total energy  :  -126.4232597 Eh     change       -0.9671264E-04 Eh
 * total energy  :  -126.4243939 Eh     change       -0.2967677E-06 Eh
 * total energy  :  -126.4243941 Eh     change       -0.1978083E-06 Eh
 * total energy  :  -126.4243943 Eh     change       -0.2455834E-06 Eh
 * total energy  :  -126.4243946 Eh     change       -0.2678191E-06 Eh
 * total energy  :  -126.4243949 Eh     change       -0.2932503E-06 Eh
 * total energy  :  -126.4243952 Eh     change       -0.3662034E-06 Eh
 * total energy  :  -126.4243956 Eh     change       -0.3382602E-06 Eh
 * total energy  :  -126.4243959 Eh     change       -0.3211019E-06 Eh
 * total energy  :  -126.4243959 Eh     change       -0.4078615E-08 Eh
   *** GEOMETRY OPTIMIZATION CONVERGED AFTER 68 ITERATIONS ***

 final structure:
================
85
 xtb: 6.7.1 (edcfbbe)
C           -6.91577449845408       -5.00746381114010        0.25730475197515
C           -6.22234100910505       -3.68093393853576        0.18246353665038
C           -6.70926465961859       -2.65955161471781       -0.62350917108933
C           -6.06042182643016       -1.44416537495490       -0.71085053692246
C           -4.89910312988193       -1.21094715136772        0.02591521342372
N           -4.21687772809323        0.00400978124628       -0.05034992786445
C           -4.87197711409223        1.21579143869357       -0.27365590271042
C           -6.16823480903436        1.44249932027465        0.18966732825095
C           -6.78668240409243        2.65569624514773       -0.03549498555072
C           -6.13841207001845        3.68167474259505       -0.71225226989422
C           -6.80517804057318        5.00618555334377       -0.92938009894088
C           -4.84244853385623        3.45490782614203       -1.15935926919966
C           -4.21556454214476        2.24347345826635       -0.95089956787260
C           -2.81515343903477        0.00908660649271        0.10733616275669
C           -2.01116842848717       -0.72087188235858       -0.78658310107228
C           -2.55767423060711       -1.42893059711350       -1.88733579915124
C           -1.76217938878221       -2.12228219669753       -2.74730540559365
C           -0.36670491102945       -2.14801233734959       -2.56174232785549
C            0.19938640593110       -1.46084308427284       -1.53279386249934
C           -0.59229573495596       -0.72195555233205       -0.61474886591367
C           -0.01141526840594        0.02877848040095        0.41656624663324
C            1.45870111812224        0.04449540365864        0.57512774047956
C            2.19028140650544        1.17881189529369        0.23605054291621
C            3.56598446846022        1.19699120382900        0.37687431245669
C            4.22426733675486        0.07630865717554        0.85876881118507
P            6.02006866286508        0.02747446781848        1.17003004687366
O            6.35941187993789        0.03325837781972        2.59867552246160
C            6.74220870495983        1.42311576174988        0.25252975077852
C            6.61587089846218        1.55879302270515       -1.12424843518351
C            7.20037412900046        2.63713429996858       -1.76179499315788
C            7.91192077187068        3.57633827818866       -1.03042087705967
C            8.04190989012468        3.43862850498694        0.34163833527716
C            7.45759015417199        2.36054354457846        0.98283782098314
C            6.60137691735510       -1.46079639789489        0.29442435947269
C            7.70390263597966       -2.10910831377853        0.83238445063230
C            8.21991123311509       -3.23193033604328        0.21092628866845
C            7.63262807301745       -3.70640009731709       -0.95067921618615
C            6.52836312510796       -3.06254640982864       -1.48655625386746
C            6.01105246837023       -1.93914657143880       -0.86757863211102
C            3.49957839361280       -1.05438889479207        1.21424976222644
C            2.12700926120615       -1.07376444945681        1.06900358524288
C           -0.81342515953185        0.76674021409756        1.29817453562208
C           -0.25034332601833        1.51103570623236        2.36794273792563
C           -1.03719648327027        2.18701608707059        3.24863920267688
C           -2.43898709081658        2.14364198541186        3.12412259791125
C           -3.01862855428676        1.44302781812480        2.11099127215896
C           -2.23532973505792        0.74586368311452        1.15603910350200
C           -4.40332432942563       -2.23481321987444        0.83344465705552
C           -5.05651213361298       -3.44804425459116        0.90255673341290
H           -7.95162892086925       -4.92355349909271       -0.06256072537254
H           -6.89082946045431       -5.39921158183154        1.27222517473519
H           -6.41718040609211       -5.72886195975842       -0.39137207080046
H           -7.60793603864162       -2.81952517968385       -1.20244061281187
H           -6.44513134875350       -0.67230599639936       -1.36157391004623
H           -6.68336167837506        0.66742803113434        0.73836563729035
H           -7.79116811588565        2.81135705507775        0.33205142484681
H           -6.49157319861217        5.44714069669464       -1.87319212453629
H           -7.88757890116277        4.90087901522690       -0.93137033529563
H           -6.53427255388232        5.69743439332220       -0.13011170818129
H           -4.31731369857768        4.23804237497464       -1.68760308480136
H           -3.21078391124761        2.08251201278158       -1.31370879111814
H           -3.62407734621134       -1.40494981590214       -2.04732292455546
H           -2.19634231611369       -2.65142793863257       -3.58261521059297
H            0.24972632605542       -2.70646803398965       -3.25094302268594
H            1.27126295970239       -1.46287677222229       -1.40080636088784
H            1.67169145411873        2.04839869037746       -0.14216302658760
H            4.12993650320784        2.08087446132161        0.11221123031292
H            6.06212503317349        0.82317132644374       -1.68951371150482
H            7.10314037248228        2.74766881868484       -2.83217931752421
H            8.36711395770115        4.41649383676348       -1.53425442796428
H            8.59818564264942        4.17012005232094        0.90927125183710
H            7.54321829945152        2.22587966841362        2.05157672006305
H            8.13442905150890       -1.72464982535944        1.74614952701878
H            9.07675807209257       -3.73829692578700        0.63059838289512
H            8.03209150134225       -4.58372565530392       -1.43809349509565
H            6.06831509316131       -3.44023657710501       -2.38834309417451
H            5.14059048981647       -1.44357957890605       -1.27496857828369
H            4.02870776201694       -1.91348056810777        1.60587666943424
H            1.55967362375255       -1.95203769563981        1.34205522252966
H            0.82384840371908        1.52412644234318        2.47704331665419
H           -0.59315703094461        2.74858144364866        4.05723688842917
H           -3.05216523508644        2.66391988754971        3.84491694716350
H           -4.09385109145072        1.40370980487933        2.03498988230385
H           -3.50353963268118       -2.06882217025403        1.40782771607246
H           -4.65810201712736       -4.22815311656655        1.53559563133770

          :  Hamiltonian                  GFN2-xTB          :
         :: gradient norm              0.000041530386 Eh/a0 ::
         :: HOMO-LUMO gap              1.633844677631 eV    ::
         :: SCC energy              -128.769846815645 Eh    ::
         :: -> dispersion             -0.121925791962 Eh    ::
         :: repulsion energy           2.345450902555 Eh    ::

    * Orbital Energies and Occupations

         #    Occupation            Energy/Eh            Energy/eV
      -------------------------------------------------------------
         1        2.0000           -0.6895879             -18.7646
       ...           ...                  ...                  ...
       106        2.0000           -0.4137530             -11.2588
       107        2.0000           -0.4126184             -11.2279
       108        2.0000           -0.4119291             -11.2092
       109        2.0000           -0.4074350             -11.0869
       110        2.0000           -0.4041736             -10.9981
       111        2.0000           -0.4017223             -10.9314
       112        2.0000           -0.4001650             -10.8890
       113        2.0000           -0.3990832             -10.8596
       114        2.0000           -0.3988590             -10.8535
       115        2.0000           -0.3983476             -10.8396
       116        2.0000           -0.3895177             -10.5993
       117        2.0000           -0.3662667              -9.9666
       118        2.0000           -0.3413564              -9.2888 (HOMO)
       119                         -0.2813137              -7.6549 (LUMO)
       120                         -0.2543090              -6.9201
       121                         -0.2417829              -6.5792
       122                         -0.2377492              -6.4695
       123                         -0.2346065              -6.3840
       124                         -0.2333975              -6.3511
       125                         -0.2329372              -6.3385
       126                         -0.2312785              -6.2934
       127                         -0.2231158              -6.0713
       128                         -0.2205794              -6.0023
       129                         -0.2187462              -5.9524
       ...                                ...                  ...
       237                          1.2155767              33.0775
      -------------------------------------------------------------
                  HL-Gap            0.0600426 Eh            1.6338 eV

     #   Z          covCN         q      C6AA      α(0)
     1   6 C        3.757    -0.108    22.607     6.779
     2   6 C        2.965     0.008    27.843     8.655
     3   6 C        2.925    -0.040    28.998     8.831
     4   6 C        2.920    -0.052    29.300     8.877
     5   6 C        2.922     0.062    26.608     8.459
     6   7 N        2.751    -0.075    22.698     7.076
     7   6 C        2.922     0.062    26.607     8.459
     8   6 C        2.920    -0.052    29.295     8.876
     9   6 C        2.925    -0.040    28.997     8.831
    10   6 C        2.965     0.008    27.843     8.655
    11   6 C        3.757    -0.107    22.607     6.779
    12   6 C        2.925    -0.039    28.977     8.828
    13   6 C        2.922    -0.051    29.268     8.872
    14   6 C        2.925     0.049    26.895     8.505
    15   6 C        2.981    -0.002    28.078     8.692
    16   6 C        2.917    -0.033    28.821     8.803
    17   6 C        2.915    -0.030    28.760     8.794
    18   6 C        2.914    -0.029    28.733     8.790
    19   6 C        2.918    -0.035    28.867     8.811
    20   6 C        2.984     0.006    27.880     8.661
    21   6 C        2.978    -0.012    28.303     8.727
    22   6 C        2.978     0.021    27.524     8.606
    23   6 C        2.924    -0.031    28.782     8.798
    24   6 C        2.971    -0.025    28.617     8.775
    25   6 C        2.921     0.012    27.743     8.637
    26  15 P        4.079     0.062   157.485    22.543
    27   8 O        0.808    -0.353    20.776     6.110
    28   6 C        2.921     0.013    27.727     8.635
    29   6 C        2.977    -0.026    28.642     8.779
    30   6 C        2.920    -0.028    28.705     8.786
    31   6 C        2.921    -0.025    28.629     8.774
    32   6 C        2.919    -0.027    28.676     8.781
    33   6 C        3.025    -0.020    28.479     8.754
    34   6 C        2.921     0.012    27.744     8.638
    35   6 C        3.030    -0.020    28.473     8.753
    36   6 C        2.919    -0.027    28.670     8.781
    37   6 C        2.921    -0.025    28.632     8.775
    38   6 C        2.920    -0.028    28.698     8.785
    39   6 C        2.972    -0.025    28.615     8.775
    40   6 C        3.027    -0.019    28.464     8.751
    41   6 C        2.923    -0.030    28.761     8.795
    42   6 C        2.984     0.007    27.865     8.659
    43   6 C        2.918    -0.034    28.859     8.809
    44   6 C        2.914    -0.028    28.711     8.787
    45   6 C        2.915    -0.030    28.740     8.791
    46   6 C        2.917    -0.033    28.828     8.805
    47   6 C        2.981    -0.002    28.071     8.691
    48   6 C        2.922    -0.051    29.265     8.871
    49   6 C        2.925    -0.039    28.977     8.828
    50   1 H        0.925     0.040     2.445     2.445
    51   1 H        0.925     0.042     2.425     2.435
    52   1 H        0.924     0.044     2.391     2.418
    53   1 H        0.926     0.029     2.600     2.522
    54   1 H        0.926     0.031     2.578     2.511
    55   1 H        0.926     0.031     2.574     2.509
    56   1 H        0.926     0.029     2.596     2.520
    57   1 H        0.925     0.041     2.435     2.440
    58   1 H        0.925     0.041     2.440     2.443
    59   1 H        0.924     0.045     2.388     2.416
    60   1 H        0.926     0.029     2.603     2.523
    61   1 H        0.926     0.025     2.651     2.546
    62   1 H        0.926     0.036     2.507     2.476
    63   1 H        0.926     0.030     2.591     2.517
    64   1 H        0.926     0.029     2.604     2.524
    65   1 H        0.926     0.028     2.608     2.526
    66   1 H        0.926     0.036     2.500     2.472
    67   1 H        0.925     0.036     2.498     2.472
    68   1 H        0.926     0.039     2.463     2.454
    69   1 H        0.926     0.035     2.511     2.478
    70   1 H        0.926     0.037     2.488     2.467
    71   1 H        0.926     0.039     2.458     2.452
    72   1 H        0.926     0.065     2.145     2.290
    73   1 H        0.926     0.060     2.197     2.318
    74   1 H        0.926     0.039     2.461     2.453
    75   1 H        0.926     0.037     2.487     2.466
    76   1 H        0.926     0.035     2.511     2.478
    77   1 H        0.925     0.034     2.528     2.486
    78   1 H        0.925     0.044     2.392     2.418
    79   1 H        0.926     0.038     2.476     2.460
    80   1 H        0.926     0.033     2.547     2.496
    81   1 H        0.926     0.031     2.565     2.505
    82   1 H        0.926     0.030     2.580     2.512
    83   1 H        0.926     0.036     2.509     2.477
    84   1 H        0.926     0.026     2.642     2.542
    85   1 H        0.926     0.029     2.595     2.519

molecular dipole:
                 x           y           z       tot (Debye)
 q only:       -0.501       0.014      -1.339
   full:       -0.497       0.009      -1.606       4.274

 projected vibrational frequencies (cm⁻¹)
eigval :       -0.00    -0.00    -0.00    -0.00     0.00     0.00
eigval :       -8.15     3.36     4.91    10.04    13.93    19.04
eigval :       24.64    27.53    31.21    36.78    43.73    46.48
eigval :       47.39    55.41    57.38    63.39    74.34    84.94
eigval :      109.34   117.11   121.47   139.09   145.48   151.13
eigval :      155.46   162.80   195.14   206.93   210.13   215.17
eigval :      223.82   226.57   255.96   260.18   279.80   284.55
eigval :      288.91   320.69   326.19   346.39   355.13   360.69
eigval :      364.60   365.74   375.24   381.06   384.02   389.22
eigval :      394.79   400.03   408.11   415.65   419.81   436.88
eigval :      445.89   454.02   460.15   485.11   487.67   492.91
eigval :      508.43   514.49   532.82   578.77   580.41   585.50
eigval :      585.86   586.90   596.29   609.84   611.94   613.06
eigval :      628.65   636.49   656.18   658.88   660.36   661.10
eigval :      668.01   686.44   692.26   695.00   715.10   733.39
eigval :      735.58   740.37   748.75   770.01   772.89   790.72
eigval :      795.31   802.40   804.79   809.10   860.62   866.86
eigval :      870.33   872.34   874.23   876.54   878.09   880.83
eigval :      895.89   901.96   904.87   909.67   913.76   914.42
eigval :      916.01   917.45   919.77   923.39   925.30   926.01
eigval :      926.76   927.15   928.41   928.66   934.19   934.41
eigval :      934.43   945.34   973.58   975.65  1008.64  1008.90
eigval :     1009.65  1013.90  1029.04  1033.21  1033.34  1076.27
eigval :     1078.61  1086.11  1086.46  1100.07  1110.36  1116.08
eigval :     1122.29  1126.36  1129.88  1131.45  1135.29  1145.81
eigval :     1148.55  1174.59  1180.63  1180.92  1183.39  1187.43
eigval :     1188.87  1190.22  1193.88  1199.09  1203.72  1218.13
eigval :     1233.13  1233.43  1239.78  1257.93  1260.42  1260.86
eigval :     1264.81  1267.17  1273.35  1277.38  1277.91  1286.28
eigval :     1312.46  1322.45  1323.05  1323.33  1327.97  1330.72
eigval :     1342.78  1350.39  1367.89  1385.36  1388.16  1405.31
eigval :     1405.37  1414.34  1414.74  1424.63  1424.86  1426.04
eigval :     1428.72  1439.89  1453.11  1454.65  1466.08  1483.72
eigval :     1484.11  1486.21  1486.91  1488.73  1495.75  1495.91
eigval :     1525.75  1528.26  1539.87  1562.81  1569.44  1574.68
eigval :     1583.62  1584.68  1587.04  1588.40  1588.47  1607.74
eigval :     1609.09  1611.09  1621.42  2991.21  2992.54  3028.85
eigval :     3032.18  3037.83  3039.98  3055.39  3062.19  3064.98
eigval :     3069.94  3070.60  3072.18  3072.29  3072.88  3074.11
eigval :     3074.64  3076.29  3077.02  3077.45  3080.26  3080.62
eigval :     3081.11  3083.66  3083.86  3084.45  3085.23  3085.85
eigval :     3086.10  3086.55  3087.41  3091.73  3092.17  3092.37
eigval :     3095.39  3108.23  3108.89

   temp. (K)  partition function   enthalpy   heat capacity  entropy
                                   cal/mol     cal/K/mol   cal/K/mol   J/K/mol
 298.15  VIB  0.515E+24            25556.128    151.134    165.905
         ROT  0.103E+09              888.752      2.981     39.639
         INT  0.529E+32            26444.880    154.114    205.544
         TR   0.160E+29             1481.254      4.968     45.276
         TOT                       27926.1341   159.0826   250.8195  1049.4288

       T/K    H(0)-H(T)+PV         H(T)/Eh          T*S/Eh         G(T)/Eh
   ------------------------------------------------------------------------
    298.15    0.445031E-01    0.708249E+00    0.119172E+00    0.589076E+00
   ------------------------------------------------------------------------

         :::::::::::::::::::::::::::::::::::::::::::::::::::::
         ::                  THERMODYNAMIC                  ::
         :::::::::::::::::::::::::::::::::::::::::::::::::::::
         :: total free energy        -125.835319472927 Eh   ::
         ::.................................................::
         :: total energy             -126.424395913092 Eh   ::
         :: zero point energy           0.663745753280 Eh   ::
         :: G(RRHO) w/o ZPVE           -0.074669313115 Eh   ::
         :: G(RRHO) contrib.            0.589076440165 Eh   ::
         :::::::::::::::::::::::::::::::::::::::::::::::::::::

           -------------------------------------------------
          | TOTAL ENERGY             -126.424395913092 Eh   |
          | TOTAL ENTHALPY           -125.716147032374 Eh   |
          | TOTAL FREE ENERGY        -125.835319472927 Eh   |
          | GRADIENT NORM               0.000041532463 Eh/α |
          | HOMO-LUMO GAP               1.633843366975 eV   |
           -------------------------------------------------

 * finished run on 2025/09/08 at 15:20:16.434
