   * xtb version 6.7.1 (edcfbbe) compiled by 'albert@albert-system' on 2024-07-22

   ID    Z sym.   atoms
    1    6 C      1-4, 6-20, 22-45, 47-49
    2    7 N      5, 21, 46
    3    1 H      50-80

          program call               : xtb data2507/gas/NIDPA-2/NIDPA-2_gas_S0_finalOpt.xtbopt.xyz --gfn 2 --spinpol --tblite --uhf 2 --ohess vtight --parallel 40 --molden --ceasefiles --namespace data2507/gas/NIDPA-2/NIDPA-2_gas_T1_preOpt
 * total energy  :  -123.0574422 Eh     change       -0.3682518E-07 Eh
 * total energy  :  -123.0596656 Eh     change       -0.2223331E-02 Eh
 * total energy  :  -123.0603114 Eh     change       -0.6458702E-03 Eh
 * total energy  :  -123.0603657 Eh     change       -0.5426313E-04 Eh
 * total energy  :  -123.0603832 Eh     change       -0.1755429E-04 Eh
 * total energy  :  -123.0603873 Eh     change       -0.4047054E-05 Eh
 * total energy  :  -123.0603894 Eh     change       -0.2107791E-05 Eh
 * total energy  :  -123.0603916 Eh     change       -0.2245267E-05 Eh
 * total energy  :  -123.0603935 Eh     change       -0.1889769E-05 Eh
 * total energy  :  -123.0603947 Eh     change       -0.1150128E-05 Eh
 * total energy  :  -123.0603994 Eh     change       -0.5001836E-06 Eh
 * total energy  :  -123.0604000 Eh     change       -0.6674120E-06 Eh
 * total energy  :  -123.0604006 Eh     change       -0.6010229E-06 Eh
 * total energy  :  -123.0604011 Eh     change       -0.4798663E-06 Eh
 * total energy  :  -123.0604017 Eh     change       -0.5943196E-06 Eh
 * total energy  :  -123.0604017 Eh     change        0.7189527E-08 Eh
 * total energy  :  -123.0604019 Eh     change       -0.1711830E-06 Eh
 * total energy  :  -123.0604022 Eh     change       -0.3228925E-06 Eh
 * total energy  :  -123.0604023 Eh     change       -0.5494246E-07 Eh
   *** GEOMETRY OPTIMIZATION CONVERGED AFTER 25 ITERATIONS ***

 final structure:
================
80
 xtb: 6.7.1 (edcfbbe)
C            7.88340890534202       -2.25297503411958        2.05087533605824
C            6.57971896601202       -2.31394828405890        2.51667154913542
C            5.57358335272271       -1.62087140870878        1.87349992130411
C            5.86087083623899       -0.85510248825346        0.74217870229726
N            4.84349504148473       -0.15870116660262        0.08518221638593
C            5.09839032003901        1.09872272175898       -0.46630150152369
C            4.48484121023524        1.48489907142243       -1.65940228395387
C            4.73539516601100        2.73101276269554       -2.19820875874503
C            5.60161631588678        3.60882566012399       -1.56579842670947
C            6.21535637860566        3.22996009243783       -0.38264130985769
C            5.96695674421356        1.98851816786329        0.16857961397029
C            3.56733613566608       -0.72118774764066       -0.01810179167220
C            3.43648400126519       -2.10944034771666       -0.22415486563283
C            2.19422996936004       -2.69942361288613       -0.33711840344009
C            1.06628722795881       -1.90340961057092       -0.24301588616203
C            1.18196597095820       -0.47372936926919       -0.02954619205636
C            2.44075514551218        0.09261154312909        0.08026753269932
C           -0.14938253129085        0.06739923845518        0.01627648836144
C           -0.86182563975692        1.27113645284182        0.17595799322924
C           -2.26182086958015        1.20961860421859        0.12090527824546
N           -2.97521165247142        2.41217438768077        0.27262928037772
C           -2.50843435230685        3.57758758158454       -0.33269169748275
C           -2.65672419870860        4.81588173315541        0.29591920639145
C           -2.19020410105017        5.96462385846330       -0.31187225279365
C           -1.56518796987147        5.90175097494045       -1.54703558829618
C           -1.41050171267953        4.67492769306230       -2.17339231499657
C           -1.87764826294956        3.52081617074674       -1.57759541608027
C           -4.14514750563876        2.42893072317706        1.03032143183291
C           -4.26321889813973        1.61596862469882        2.16020643433081
C           -5.42757264031509        1.62111817778506        2.90164772940501
C           -6.48834628228531        2.43580173558144        2.53829840822848
C           -6.37656880461652        3.24598768607749        1.41942198509113
C           -5.21916596581126        3.24415053120938        0.66651316583351
C           -3.02182210981906        0.03451332309118       -0.07861328728004
C           -2.33978579441811       -1.18593932693496       -0.22549490120834
C           -2.52604045101793       -2.59053006569831       -0.43004307251203
C           -3.67494680485826       -3.40721425374612       -0.56164565595156
C           -4.98038718011436       -2.90092661287139       -0.50209742372806
C           -6.07539634042998       -3.73498671065189       -0.64274694274971
C           -5.89054471539443       -5.09486080115368       -0.84493053211942
C           -4.61192529749089       -5.62256073068244       -0.90340177069874
C           -3.48157531841129       -4.80714319089384       -0.76327836484702
C           -2.17259112325424       -5.35425350835442       -0.81821934213995
C           -1.04632209963036       -4.56661759508342       -0.67841556911117
C           -1.20903338949591       -3.20908961487045       -0.48625563073635
N           -0.26982603765392       -2.21303253044179       -0.31939795666992
C           -0.95581546240854       -1.04315311263543       -0.16675782535022
C            7.17490517633356       -0.80026929616506        0.27482637830125
C            8.17434345002489       -1.49266932977799        0.92927052744952
H            8.66733549665556       -2.79449447487237        2.55786630892435
H            6.34570782947084       -2.89971809116275        3.39323853775174
H            4.55974706590765       -1.65877186226130        2.24335684826207
H            3.81952376055260        0.79700539830887       -2.15971305733744
H            4.25712847935397        3.01596303006896       -3.12355273384647
H            5.79671456929511        4.58112165364846       -1.99172529112025
H            6.88656562415529        3.91027226664091        0.12039719792295
H            6.43512575349856        1.70150710990109        1.09872563861452
H            4.32841736868330       -2.71007985821532       -0.31286889433553
H            2.11029503702163       -3.76129395858694       -0.50989352205330
H            2.54959171547666        1.15286883474111        0.25454320803159
H           -0.36962395718143        2.21422875814973        0.35198510391688
H           -3.12770961636713        4.86590539601867        1.26671632544932
H           -2.30741797218741        6.91528377913600        0.18712610530497
H           -1.20044607394810        6.80209062087073       -2.01748458975505
H           -0.92905800094504        4.61786725341470       -3.13841361954990
H           -1.76720683700468        2.56657507830995       -2.07047209727153
H           -3.43296876453364        0.98919442018444        2.44923237300831
H           -5.50515772496913        0.98928502051085        3.77392528875625
H           -7.39641896361025        2.43805627076375        3.12163340813418
H           -7.20178339072104        3.87706654598757        1.12411049252792
H           -5.14237757866512        3.86170319457085       -0.21640843969950
H           -4.09476216672789        0.11673673064380       -0.13784525894986
H           -5.12580380037999       -1.84466132766598       -0.34057543969601
H           -7.07388693660781       -3.32539439156079       -0.59420081414996
H           -6.74592598167788       -5.74587307765413       -0.95558372852800
H           -4.47319223568233       -6.68317794515471       -1.05955476091928
H           -2.06868739245251       -6.41790401939825       -0.97047195181581
H           -0.06002604220927       -5.00416431894067       -0.71771134014480
H            7.40091717794222       -0.21988183276182       -0.60772461651837
H            9.18651627363972       -1.44555217995307        0.55561806553514

 projected vibrational frequencies (cm⁻¹)
eigval :       -0.00    -0.00    -0.00    -0.00     0.00     0.00
eigval :       13.25    13.62    19.07    25.35    31.66    36.76
eigval :       48.77    50.62    54.88    59.33    61.56    71.32
eigval :       83.06    84.99    94.28   109.50   113.51   128.13
eigval :      153.93   175.44   194.70   204.26   210.16   224.85
eigval :      232.89   234.41   241.36   251.06   283.64   297.91
eigval :      305.30   316.60   318.73   329.62   353.79   363.20
eigval :      368.90   376.75   377.47   382.73   384.37   391.64
eigval :      402.13   409.01   436.34   452.67   462.31   464.13
eigval :      483.30   485.20   492.17   497.82   502.99   520.74
eigval :      539.53   552.95   560.86   568.59   583.88   586.49
eigval :      587.68   588.94   589.67   607.74   615.77   618.11
eigval :      629.56   636.01   643.51   658.94   659.25   663.29
eigval :      666.96   669.05   671.59   682.05   702.19   706.42
eigval :      731.98   741.26   755.72   756.38   757.62   758.84
eigval :      761.22   778.40   779.00   798.01   800.34   804.96
eigval :      838.72   853.42   859.02   863.85   869.88   872.01
eigval :      872.64   874.33   877.52   883.49   886.57   891.52
eigval :      892.72   894.98   895.32   907.08   909.23   910.06
eigval :      925.93   926.82   926.94   927.36   927.87   928.33
eigval :      929.34   929.52   940.51   968.36   980.82   985.87
eigval :     1000.53  1002.69  1008.72  1025.18  1061.20  1080.65
eigval :     1081.94  1082.09  1082.87  1082.97  1091.95  1121.54
eigval :     1121.70  1122.97  1123.83  1136.69  1141.31  1146.57
eigval :     1170.27  1177.87  1179.82  1179.96  1180.10  1180.29
eigval :     1189.71  1192.74  1193.41  1195.57  1203.44  1208.72
eigval :     1214.24  1233.06  1238.01  1247.87  1249.20  1266.51
eigval :     1268.77  1275.29  1277.15  1279.41  1286.93  1297.07
eigval :     1309.67  1312.33  1319.27  1321.90  1322.39  1327.49
eigval :     1327.70  1333.27  1339.63  1372.47  1376.64  1394.05
eigval :     1409.29  1410.79  1420.25  1432.91  1433.93  1436.26
eigval :     1441.62  1442.93  1451.22  1461.73  1463.95  1465.26
eigval :     1466.31  1471.17  1500.29  1506.34  1524.19  1532.54
eigval :     1541.32  1558.34  1569.18  1570.78  1573.21  1574.89
eigval :     1584.41  1586.27  1591.93  1592.60  1609.92  3064.67
eigval :     3072.14  3077.64  3077.70  3078.19  3078.47  3079.00
eigval :     3080.46  3080.58  3080.73  3081.64  3082.82  3086.27
eigval :     3088.11  3088.24  3088.40  3089.46  3089.62  3090.79
eigval :     3092.67  3093.13  3093.78  3094.20  3098.50  3099.00
eigval :     3099.59  3099.71  3100.08  3101.15  3101.97  3108.88

   temp. (K)  partition function   enthalpy   heat capacity  entropy
                                   cal/mol     cal/K/mol   cal/K/mol   J/K/mol
 298.15  VIB  0.103E+18            22324.772    144.065    137.964
         ROT  0.939E+08              888.752      2.981     39.462
         INT  0.963E+25            23213.525    147.046    177.426
         TR   0.151E+29             1481.254      4.968     45.164
         TOT                       24694.7787   152.0140   222.5895   931.3144

       T/K    H(0)-H(T)+PV         H(T)/Eh          T*S/Eh         G(T)/Eh
   ------------------------------------------------------------------------
    298.15    0.393536E-01    0.653010E+00    0.105759E+00    0.547250E+00
   ------------------------------------------------------------------------

         :::::::::::::::::::::::::::::::::::::::::::::::::::::
         ::                  THERMODYNAMIC                  ::
         :::::::::::::::::::::::::::::::::::::::::::::::::::::
         :: total free energy        -122.513151843830 Eh   ::
         ::.................................................::
         :: total energy             -123.060402270394 Eh   ::
         :: zero point energy           0.613656234086 Eh   ::
         :: G(RRHO) w/o ZPVE           -0.066405807522 Eh   ::
         :: G(RRHO) contrib.            0.547250426564 Eh   ::
         :::::::::::::::::::::::::::::::::::::::::::::::::::::

           -------------------------------------------------
          | TOTAL ENERGY             -123.060402270394 Eh   |
          | TOTAL ENTHALPY           -122.407392401456 Eh   |
          | TOTAL FREE ENERGY        -122.513151843830 Eh   |
          | GRADIENT NORM               0.000064638152 Eh/α |
           -------------------------------------------------

 * finished run on 2025/09/04 at 12:03:32.067
