   * xtb version 6.7.1 (edcfbbe) compiled by 'albert@albert-system' on 2024-07-22

   ID    Z sym.   atoms
    1    6 C      1-4, 6-20, 22-45, 47-49
    2    7 N      5, 21, 46
    3    1 H      50-80

          program call               : xtb data2507/gas/NIDPA-2/NIDPA-2_gas_S0_crest.xyz --gfn 2 --ohess vtight --parallel 40 --molden --ceasefiles --namespace data2507/gas/NIDPA-2/NIDPA-2_gas_S0_finalOpt
          :  Hamiltonian                  GFN2-xTB          :
 * total energy  :  -123.1370995 Eh     change       -0.1565269E-08 Eh
 * total energy  :  -123.1371008 Eh     change       -0.1369080E-05 Eh
 * total energy  :  -123.1371031 Eh     change       -0.2256638E-05 Eh
 * total energy  :  -123.1371067 Eh     change       -0.3568788E-05 Eh
 * total energy  :  -123.1371098 Eh     change       -0.3158359E-05 Eh
 * total energy  :  -123.1371110 Eh     change       -0.1227469E-05 Eh
 * total energy  :  -123.1371121 Eh     change       -0.1046331E-05 Eh
 * total energy  :  -123.1371135 Eh     change       -0.1446195E-05 Eh
 * total energy  :  -123.1371147 Eh     change       -0.1126363E-05 Eh
 * total energy  :  -123.1371154 Eh     change       -0.6961358E-06 Eh
 * total energy  :  -123.1371157 Eh     change       -0.3457363E-06 Eh
 * total energy  :  -123.1371157 Eh     change       -0.1581138E-07 Eh
 * total energy  :  -123.1371159 Eh     change       -0.1899361E-06 Eh
 * total energy  :  -123.1371159 Eh     change       -0.5972737E-08 Eh
   *** GEOMETRY OPTIMIZATION CONVERGED AFTER 14 ITERATIONS ***

 final structure:
================
80
 xtb: 6.7.1 (edcfbbe)
C            7.88703564095970       -2.22662188219977        2.08285709248809
C            6.58199550786431       -2.28882769303093        2.54324891636504
C            5.57592463442651       -1.60328450184294        1.89117467487455
C            5.86248634524296       -0.84608201516841        0.75512504937832
N            4.84484559432835       -0.15604571540082        0.08828911854324
C            5.09598720491318        1.09940780585875       -0.47522058396113
C            4.48714303471613        1.47178764012296       -1.67387442753753
C            4.73220375980224        2.71511328829518       -2.22289504495666
C            5.59149921514545        3.60279728943695       -1.59644044418250
C            6.20206012003951        3.23683100347795       -0.40805737180983
C            5.95582887971976        1.99957622248624        0.15424094215646
C            3.56826059670220       -0.72359790119662       -0.01490542061515
C            3.43311594789418       -2.09950144920044       -0.22985326174061
C            2.19150570700836       -2.69849133213567       -0.33656680460244
C            1.06585558009584       -1.90275685007356       -0.24083704326635
C            1.18546432836407       -0.49258898965946       -0.02728755985374
C            2.43522189005850        0.08286625420891        0.09183816689400
C           -0.15881159189819        0.05992838034620        0.02462682323072
C           -0.86051288609964        1.24401512577015        0.19177949093479
C           -2.26735558007569        1.19737767636807        0.13116464758263
N           -2.97231304613062        2.40567585916688        0.28758095989278
C           -2.50394006280449        3.56753321151395       -0.33127962613344
C           -2.63809409783735        4.80842856041488        0.29250634329517
C           -2.17175600950082        5.95265268203653       -0.32431724640774
C           -1.55630964499963        5.88246470737698       -1.56343248592253
C           -1.41384363925139        4.65244823396319       -2.18449064580906
C           -1.88530348064235        3.50362418610483       -1.58042571312705
C           -4.14034045959949        2.43184024271563        1.05471161627123
C           -4.25294782288942        1.63929018814891        2.19773532953179
C           -5.41252295823007        1.65752215773904        2.94733903947566
C           -6.47438113967890        2.46776809321112        2.57966669244311
C           -6.36779804384398        3.25845355863849        1.44720501913804
C           -5.21582904410861        3.24035857142771        0.68554078654444
C           -3.01546408685950        0.02512606124701       -0.07591436135742
C           -2.34337143513744       -1.18605248362906       -0.21885747213121
C           -2.52530914903081       -2.60952938650111       -0.43588456077403
C           -3.67527335747626       -3.41655773122416       -0.58151371494897
C           -4.98686107828640       -2.90705099317441       -0.52585744620551
C           -6.06641123971763       -3.73407986946058       -0.67389295048642
C           -5.88449294142923       -5.10789302882246       -0.88421284311823
C           -4.62275026654081       -5.63257079475790       -0.94028489444921
C           -3.48725454799291       -4.81152043825854       -0.79078229921862
C           -2.18212141146155       -5.35511525560661       -0.84461964682990
C           -1.06823466500476       -4.57630610823702       -0.69800117327936
C           -1.23911176571610       -3.20427294097198       -0.49341637817134
N           -0.28274343913079       -2.22087722032643       -0.31914633342145
C           -0.96144341628655       -1.05584983714461       -0.16094327227677
C            7.17741673611788       -0.79133568401893        0.29285718203759
C            8.17788300259624       -1.47356330511349        0.95704903378998
H            8.67128252828610       -2.76081955260263        2.59733157507108
H            6.34611159059316       -2.86916532675140        3.42327559205369
H            4.56082524813686       -1.64559671819486        2.25825312188075
H            3.82465172111520        0.77841540045622       -2.17111834165136
H            4.25469689378887        2.98909206008478       -3.15224399759630
H            5.78341727303111        4.57223610076903       -2.03052503623196
H            6.86906736912721        3.92424794793851        0.09130858488946
H            6.42477538312191        1.72229855727371        1.08701916386907
H            4.32424289691694       -2.70300602192364       -0.31604738691773
H            2.11237211672331       -3.76150983467890       -0.50279820430932
H            2.53651500769036        1.14382054606268        0.26366690509897
H           -0.37034069493240        2.19044275482260        0.36144397478053
H           -3.10609379551138        4.86613989322255        1.26437761610867
H           -2.28172089090380        6.90605097047655        0.17158783024216
H           -1.19003451229512        6.77876257599539       -2.04056949491266
H           -0.93889764395840        4.58733243150453       -3.15255772095398
H           -1.78033765049741        2.54754839698120       -2.07230903620697
H           -3.42414808522362        1.01192575257665        2.49191921974998
H           -5.48396206625030        1.04009017654714        3.83086789190496
H           -7.37768373618867        2.48229857570366        3.17041724310624
H           -7.19282996956622        3.88825375503414        1.14782076677490
H           -5.14171285729123        3.84862512536679       -0.20408425560418
H           -4.09068442095292        0.10682149216069       -0.11674463026720
H           -5.12890096064060       -1.85091107309197       -0.36094005001487
H           -7.06812297154112       -3.33211648950519       -0.62825933723994
H           -6.74719872658211       -5.74745624315171       -1.00030826533085
H           -4.47694052509621       -6.69159167615575       -1.10097670071000
H           -2.07879063051012       -6.41853452687565       -1.00537935588686
H           -0.07750990975275       -5.00233515795580       -0.73834528963784
H            7.40569030601168       -0.21353794738961       -0.59083909807011
H            9.19147230201618       -1.42365247112116        0.58701046633838

          :  Hamiltonian                  GFN2-xTB          :
         :: gradient norm              0.000143521205 Eh/a0 ::
         :: HOMO-LUMO gap              1.876438810477 eV    ::
         :: SCC energy              -125.467482165090 Eh    ::
         :: -> dispersion             -0.113844452446 Eh    ::
         :: repulsion energy           2.330366250604 Eh    ::

    * Orbital Energies and Occupations

         #    Occupation            Energy/Eh            Energy/eV
      -------------------------------------------------------------
         1        2.0000           -0.6862236             -18.6731
       ...           ...                  ...                  ...
       103        2.0000           -0.4084446             -11.1143
       104        2.0000           -0.4064120             -11.0590
       105        2.0000           -0.4052974             -11.0287
       106        2.0000           -0.4047692             -11.0143
       107        2.0000           -0.4035507             -10.9812
       108        2.0000           -0.4032261             -10.9723
       109        2.0000           -0.4018750             -10.9356
       110        2.0000           -0.4005077             -10.8984
       111        2.0000           -0.3887543             -10.5785
       112        2.0000           -0.3812390             -10.3740
       113        2.0000           -0.3692523             -10.0479
       114        2.0000           -0.3480870              -9.4719
       115        2.0000           -0.3419871              -9.3059 (HOMO)
       116                         -0.2730292              -7.4295 (LUMO)
       117                         -0.2438806              -6.6363
       118                         -0.2338310              -6.3629
       119                         -0.2292071              -6.2370
       120                         -0.2285114              -6.2181
       121                         -0.2264200              -6.1612
       122                         -0.2240907              -6.0978
       123                         -0.2212363              -6.0201
       124                         -0.2203946              -5.9972
       125                         -0.2176531              -5.9226
       126                         -0.2110282              -5.7424
       ...                                ...                  ...
       227                          0.7671186              20.8744
      -------------------------------------------------------------
                  HL-Gap            0.0689579 Eh            1.8764 eV

     #   Z          covCN         q      C6AA      α(0)
     1   6 C        2.919    -0.039    28.967     8.826
     2   6 C        2.919    -0.029    28.735     8.791
     3   6 C        2.922    -0.048    29.200     8.862
     4   6 C        2.924     0.065    26.549     8.450
     5   7 N        2.753    -0.076    22.711     7.078
     6   6 C        2.924     0.065    26.548     8.450
     7   6 C        2.922    -0.048    29.197     8.861
     8   6 C        2.920    -0.029    28.729     8.790
     9   6 C        2.919    -0.039    28.964     8.825
    10   6 C        2.920    -0.029    28.733     8.790
    11   6 C        2.922    -0.048    29.195     8.861
    12   6 C        2.923     0.059    26.687     8.472
    13   6 C        2.926    -0.050    29.245     8.869
    14   6 C        2.908    -0.045    29.127     8.850
    15   6 C        3.086     0.043    26.944     8.509
    16   6 C        3.111    -0.010    28.118     8.687
    17   6 C        2.914    -0.050    29.233     8.866
    18   6 C        3.022    -0.016    28.377     8.738
    19   6 C        2.936    -0.048    29.199     8.862
    20   6 C        2.924     0.055    26.771     8.485
    21   7 N        2.755    -0.078    22.754     7.085
    22   6 C        2.923     0.065    26.542     8.449
    23   6 C        2.922    -0.049    29.214     8.864
    24   6 C        2.919    -0.030    28.741     8.791
    25   6 C        2.919    -0.040    28.986     8.829
    26   6 C        2.919    -0.030    28.738     8.791
    27   6 C        2.923    -0.049    29.214     8.864
    28   6 C        2.923     0.065    26.543     8.449
    29   6 C        2.923    -0.049    29.209     8.863
    30   6 C        2.919    -0.030    28.737     8.791
    31   6 C        2.919    -0.040    28.984     8.828
    32   6 C        2.919    -0.030    28.742     8.792
    33   6 C        2.922    -0.049    29.214     8.864
    34   6 C        2.939    -0.048    29.201     8.863
    35   6 C        3.025    -0.014    28.343     8.733
    36   6 C        3.112    -0.023    28.428     8.734
    37   6 C        2.980     0.012    27.745     8.640
    38   6 C        2.917    -0.036    28.897     8.815
    39   6 C        2.917    -0.030    28.741     8.791
    40   6 C        2.915    -0.032    28.804     8.801
    41   6 C        2.920    -0.034    28.859     8.809
    42   6 C        2.985     0.006    27.875     8.660
    43   6 C        2.924    -0.038    28.942     8.822
    44   6 C        2.905    -0.045    29.107     8.846
    45   6 C        3.099     0.047    26.822     8.487
    46   7 N        2.836    -0.028    21.786     6.932
    47   6 C        3.482     0.028    21.969     7.001
    48   6 C        2.922    -0.048    29.192     8.860
    49   6 C        2.920    -0.029    28.734     8.790
    50   1 H        0.926     0.030     2.591     2.517
    51   1 H        0.926     0.031     2.574     2.509
    52   1 H        0.926     0.030     2.580     2.512
    53   1 H        0.926     0.030     2.582     2.513
    54   1 H        0.926     0.031     2.571     2.508
    55   1 H        0.926     0.030     2.590     2.516
    56   1 H        0.926     0.031     2.572     2.508
    57   1 H        0.926     0.031     2.566     2.505
    58   1 H        0.926     0.037     2.492     2.468
    59   1 H        0.926     0.035     2.515     2.480
    60   1 H        0.926     0.039     2.460     2.453
    61   1 H        0.926     0.036     2.505     2.475
    62   1 H        0.926     0.031     2.573     2.508
    63   1 H        0.926     0.030     2.587     2.515
    64   1 H        0.926     0.028     2.609     2.526
    65   1 H        0.926     0.030     2.591     2.517
    66   1 H        0.926     0.029     2.597     2.520
    67   1 H        0.926     0.029     2.595     2.519
    68   1 H        0.926     0.030     2.586     2.515
    69   1 H        0.926     0.029     2.607     2.525
    70   1 H        0.926     0.030     2.586     2.515
    71   1 H        0.926     0.031     2.572     2.508
    72   1 H        0.926     0.034     2.531     2.488
    73   1 H        0.926     0.035     2.512     2.478
    74   1 H        0.926     0.029     2.599     2.521
    75   1 H        0.926     0.028     2.608     2.525
    76   1 H        0.926     0.029     2.595     2.519
    77   1 H        0.926     0.034     2.529     2.487
    78   1 H        0.926     0.032     2.556     2.500
    79   1 H        0.926     0.032     2.562     2.503
    80   1 H        0.926     0.031     2.571     2.507

molecular dipole:
                 x           y           z       tot (Debye)
 q only:        0.235      -0.218      -0.026
   full:        0.303      -0.297      -0.034       1.082

 projected vibrational frequencies (cm⁻¹)
eigval :       -0.00    -0.00    -0.00     0.00     0.00     0.00
eigval :       12.84    13.31    18.85    24.28    31.42    35.73
eigval :       48.02    51.78    53.52    59.33    61.54    71.72
eigval :       82.60    84.07    94.32   110.49   112.23   126.46
eigval :      156.97   177.72   192.12   202.03   210.81   224.85
eigval :      235.15   238.12   244.56   252.36   284.54   295.75
eigval :      306.01   317.04   325.15   331.63   359.51   367.24
eigval :      377.31   377.96   381.57   384.08   384.65   399.20
eigval :      402.14   410.21   437.81   455.65   467.63   482.00
eigval :      485.58   489.38   491.12   502.13   503.54   543.60
eigval :      545.47   558.55   566.63   576.13   586.57   589.02
eigval :      589.71   590.47   596.31   612.00   619.17   628.65
eigval :      638.95   646.89   654.02   660.75   661.01   663.92
eigval :      668.03   673.42   689.24   703.73   711.42   722.74
eigval :      740.32   755.87   756.49   759.39   761.34   762.68
eigval :      802.87   811.54   816.80   825.00   832.74   861.15
eigval :      866.64   872.99   873.13   873.30   875.16   875.83
eigval :      876.94   884.23   889.44   890.97   892.77   893.86
eigval :      900.94   904.84   910.38   911.13   913.86   926.27
eigval :      926.64   927.12   927.44   927.91   928.07   928.48
eigval :      930.07   930.41   951.50   971.85   985.17  1001.94
eigval :     1004.53  1006.91  1014.61  1034.50  1081.77  1083.42
eigval :     1083.70  1084.46  1084.53  1090.95  1121.97  1122.23
eigval :     1122.78  1124.64  1127.74  1148.01  1160.18  1165.92
eigval :     1179.94  1180.62  1180.80  1180.81  1181.03  1184.89
eigval :     1195.98  1196.35  1196.76  1199.60  1211.12  1217.73
eigval :     1224.79  1242.67  1248.06  1254.16  1274.48  1278.39
eigval :     1278.71  1281.01  1292.55  1306.57  1314.08  1318.39
eigval :     1322.55  1323.93  1326.63  1327.89  1328.30  1333.68
eigval :     1343.74  1352.35  1377.95  1390.31  1399.98  1418.29
eigval :     1428.83  1434.03  1435.26  1440.25  1444.31  1445.11
eigval :     1448.97  1466.40  1473.10  1473.59  1476.37  1478.07
eigval :     1487.84  1530.91  1548.60  1562.78  1575.55  1576.46
eigval :     1577.89  1580.41  1581.05  1592.54  1595.32  1595.82
eigval :     1599.68  1600.57  1607.90  1611.27  1631.65  3067.74
eigval :     3074.32  3074.69  3075.26  3075.41  3075.64  3075.92
eigval :     3075.98  3076.34  3076.85  3077.95  3085.14  3085.71
eigval :     3085.82  3086.40  3087.68  3087.81  3088.36  3088.91
eigval :     3089.10  3089.63  3093.70  3094.51  3094.72  3096.33
eigval :     3096.61  3096.85  3097.07  3097.61  3100.81  3110.72

   temp. (K)  partition function   enthalpy   heat capacity  entropy
                                   cal/mol     cal/K/mol   cal/K/mol   J/K/mol
 298.15  VIB  0.100E+18            22110.622    142.207    136.978
         ROT  0.940E+08              888.752      2.981     39.465
         INT  0.944E+25            22999.374    145.188    176.443
         TR   0.151E+29             1481.254      4.968     45.164
         TOT                       24480.6282   150.1559   221.6068   927.2026

       T/K    H(0)-H(T)+PV         H(T)/Eh          T*S/Eh         G(T)/Eh
   ------------------------------------------------------------------------
    298.15    0.390124E-01    0.657093E+00    0.105293E+00    0.551800E+00
   ------------------------------------------------------------------------

         :::::::::::::::::::::::::::::::::::::::::::::::::::::
         ::                  THERMODYNAMIC                  ::
         :::::::::::::::::::::::::::::::::::::::::::::::::::::
         :: total free energy        -122.585315617596 Eh   ::
         ::.................................................::
         :: total energy             -123.137115914485 Eh   ::
         :: zero point energy           0.618080450936 Eh   ::
         :: G(RRHO) w/o ZPVE           -0.066280154047 Eh   ::
         :: G(RRHO) contrib.            0.551800296889 Eh   ::
         :::::::::::::::::::::::::::::::::::::::::::::::::::::

           -------------------------------------------------
          | TOTAL ENERGY             -123.137115914485 Eh   |
          | TOTAL ENTHALPY           -122.480023099191 Eh   |
          | TOTAL FREE ENERGY        -122.585315617596 Eh   |
          | GRADIENT NORM               0.000143516876 Eh/α |
          | HOMO-LUMO GAP               1.876439955646 eV   |
           -------------------------------------------------

 * finished run on 2025/09/04 at 12:03:23.193
