   * xtb version 6.7.1 (edcfbbe) compiled by 'albert@albert-system' on 2024-07-22

   ID    Z sym.   atoms
    1    6 C      1-4, 6-20, 22-45, 47-49
    2    7 N      5, 21, 46
    3    1 H      50-80

          program call               : xtb data2507/gas/NIDPA-2/NIDPA-2_gas_T1_crest.xyz --gfn 2 --spinpol --tblite --uhf 2 --ohess vtight --parallel 40 --molden --ceasefiles --namespace data2507/gas/NIDPA-2/NIDPA-2_gas_T1_finalOpt
 * total energy  :  -123.0603573 Eh     change       -0.2028176E-07 Eh
 * total energy  :  -123.0603792 Eh     change       -0.2196651E-04 Eh
 * total energy  :  -123.0603931 Eh     change       -0.1382013E-04 Eh
 * total energy  :  -123.0603947 Eh     change       -0.1652438E-05 Eh
 * total energy  :  -123.0603961 Eh     change       -0.1423349E-05 Eh
 * total energy  :  -123.0603975 Eh     change       -0.1380566E-05 Eh
 * total energy  :  -123.0603993 Eh     change       -0.1747717E-05 Eh
 * total energy  :  -123.0604006 Eh     change       -0.1294292E-05 Eh
 * total energy  :  -123.0604006 Eh     change       -0.6490421E-07 Eh
 * total energy  :  -123.0604011 Eh     change       -0.5035429E-06 Eh
 * total energy  :  -123.0604015 Eh     change       -0.3866342E-06 Eh
 * total energy  :  -123.0604018 Eh     change       -0.2928621E-06 Eh
 * total energy  :  -123.0604021 Eh     change       -0.2355644E-06 Eh
 * total energy  :  -123.0604022 Eh     change       -0.1955206E-06 Eh
 * total energy  :  -123.0604024 Eh     change       -0.1888282E-06 Eh
 * total energy  :  -123.0604025 Eh     change       -0.1091745E-06 Eh
 * total energy  :  -123.0604027 Eh     change       -0.1320292E-06 Eh
 * total energy  :  -123.0604028 Eh     change       -0.8675123E-07 Eh
   *** GEOMETRY OPTIMIZATION CONVERGED AFTER 18 ITERATIONS ***

 final structure:
================
80
 xtb: 6.7.1 (edcfbbe)
C            7.88625123032875       -2.22513138515142        2.05240803617772
C            6.58103291752273       -2.29437728831597        2.51273487579358
C            5.57420259360896       -1.60322259540387        1.86861988500712
C            5.86233674555857       -0.83095092043205        0.74192770728147
N            4.84409981827309       -0.13632069414859        0.08444445217374
C            5.09382239022683        1.12518928641071       -0.45969525665085
C            4.47925152104851        1.51506165274535       -1.65110824812472
C            4.72388548712094        2.76544418982080       -2.18265853856294
C            5.58524375743474        3.64399495486988       -1.54465042680631
C            6.20014012566331        3.26143355114232       -0.36328407033386
C            5.95757833836421        2.01568593120325        0.18076791030416
C            3.57074330517605       -0.70435012138992       -0.02417513964400
C            3.44732445600326       -2.09174096540669       -0.24008238259746
C            2.20820486903263       -2.68740852277617       -0.35759532665766
C            1.07613420494972       -1.89798287546565       -0.25791537586790
C            1.18419385963480       -0.46917754818971       -0.03466297814236
C            2.43999210663915        0.10298680507868        0.07921048048977
C           -0.15004862747257        0.06452460734505        0.01490130625539
C           -0.86899763889721        1.26322100003482        0.18290516959430
C           -2.26872828824465        1.19477300823704        0.12641177268668
N           -2.98871433943027        2.39228242697079        0.28482340497226
C           -2.52552063981776        3.56540295222324       -0.30825944091898
C           -2.68331652849175        4.79718107894449        0.33073991331317
C           -2.21940396311425        5.95368433782635       -0.26418711938536
C           -1.58780834034030        5.90511676504754       -1.49664194479918
C           -1.42434321082817        4.68489875714990       -2.13359334819311
C           -1.88882831531614        3.52313988586795       -1.55073242187167
C           -4.16225830384828        2.39718701151717        1.03739841845772
C           -4.28004591024837        1.57774289263437        2.16256100065650
C           -5.44776121868672        1.57160771657086        2.89872276169345
C           -6.51220879172905        2.38109051712992        2.53448996974200
C           -6.40075862179203        3.19753465581284        1.42013969364160
C           -5.23987088241864        3.20716524342547        0.67265750797797
C           -3.02229657172172        0.01684361339148       -0.08095142787592
C           -2.33368300704125       -1.19896019902343       -0.23494530285323
C           -2.51244611270896       -2.60328455973614       -0.44772640645369
C           -3.65713752411913       -3.42544639040482       -0.58160784412052
C           -4.96516359639284       -2.92663077769314       -0.51594745682103
C           -6.05590016341491       -3.76593337414126       -0.65821805032933
C           -5.86406097113856       -5.12365734630455       -0.86839569849661
C           -4.58275664692610       -5.64397738407256       -0.93321501407156
C           -3.45651814984074       -4.82313252611097       -0.79139047357664
C           -2.14465834489117       -5.36267226702267       -0.85208027159091
C           -1.02244318783843       -4.56975978856066       -0.70926362664017
C           -1.19225623414448       -3.21430473885687       -0.50881756672948
N           -0.25830411880891       -2.21419821612053       -0.33629217436010
C           -0.95048171267555       -1.04910727017549       -0.17577187285096
C            7.17787660596683       -0.76798253761416        0.27990318033012
C            8.17797178310280       -1.45860694972053        0.93524832129398
H            8.67074360575842       -2.76509254239921        2.56018555902715
H            6.34630432990999       -2.88515166140209        3.38574429803099
H            4.55909026670104       -1.64756059717487        2.23423878509877
H            3.81775141153396        0.82666751765224       -2.15577514875883
H            4.24483618591237        3.05323040759601       -3.10671973380315
H            5.77568165004010        4.61970219418129       -1.96484226328414
H            6.86757428606843        3.94224518814778        0.14408987565529
H            6.42645505132132        1.72589166518241        1.10968889817170
H            4.34251825524559       -2.68694661764902       -0.33257676472263
H            2.12981127130168       -3.74842205442889       -0.53804684393592
H            2.54341639105244        1.16256258623718        0.26078505854505
H           -0.38187901952188        2.20758251167397        0.36609104452332
H           -3.15950994156394        4.83598922739794        1.29950836792030
H           -2.34375989616495        6.89915689513722        0.24286743341708
H           -1.22479480938611        6.81143729702029       -1.95682692399628
H           -0.93792159848998        4.63903341617663       -3.09671175597788
H           -1.77149980003015        2.57400846694012       -2.05181647335298
H           -3.44701107599724        0.95489171182118        2.45206837460195
H           -5.52514866161231        0.93503677901193        3.76756333502900
H           -7.42290579224770        2.37451094543897        3.11369098770875
H           -7.22886276766498        3.82446761455247        1.12409630095328
H           -5.16291292883272        3.82966224439978       -0.20677765173141
H           -4.09558921272757        0.09368896512343       -0.14086230463281
H           -5.11586520635684       -1.87209820280423       -0.34808717705436
H           -7.05652647030145       -3.36222861494666       -0.60460566527498
H           -6.71619267504771       -5.77871485411615       -0.98021558751919
H           -4.43860478278760       -6.70294000677678       -1.09554178899873
H           -2.03520871030058       -6.42482838157966       -1.01073852745141
H           -0.03384999221234       -5.00172103177620       -0.75239664933525
H            7.40460801994302       -0.18266981283383       -0.59920545623933
H            9.19138603974048       -1.40510890956559        0.56583770337020

 projected vibrational frequencies (cm⁻¹)
eigval :       -0.00    -0.00    -0.00     0.00     0.00     0.00
eigval :       12.70    13.50    18.99    25.24    31.58    36.79
eigval :       48.74    50.64    54.87    59.35    61.58    71.23
eigval :       83.08    84.87    94.21   109.39   113.46   128.21
eigval :      153.97   175.43   194.63   204.40   209.64   224.80
eigval :      232.22   234.50   241.12   251.22   283.55   297.98
eigval :      305.30   316.46   318.67   329.65   353.81   363.28
eigval :      369.07   376.79   377.49   382.77   384.28   391.59
eigval :      402.12   409.06   436.32   452.63   462.24   463.99
eigval :      483.24   485.11   492.34   497.86   502.99   520.74
eigval :      539.43   553.07   560.91   568.57   583.97   586.60
eigval :      587.69   589.01   589.69   607.67   615.80   618.15
eigval :      629.49   636.19   643.66   658.97   659.18   663.25
eigval :      667.00   669.10   671.81   682.01   702.17   706.63
eigval :      732.16   741.21   755.77   756.43   757.40   758.82
eigval :      761.20   778.29   779.01   798.06   800.37   804.93
eigval :      838.64   853.47   858.94   863.67   869.96   872.02
eigval :      872.24   874.26   877.47   883.40   886.52   891.52
eigval :      892.70   894.97   895.37   907.04   909.23   910.09
eigval :      925.97   926.85   926.97   927.32   927.93   928.37
eigval :      929.40   929.48   940.26   968.41   980.85   985.72
eigval :     1000.45  1002.68  1008.56  1025.88  1061.48  1079.97
eigval :     1081.76  1082.06  1082.68  1082.83  1091.36  1121.43
eigval :     1121.64  1123.00  1123.78  1136.82  1142.25  1147.47
eigval :     1171.85  1178.29  1179.84  1179.94  1180.21  1180.34
eigval :     1189.44  1192.74  1193.54  1195.48  1203.69  1208.77
eigval :     1214.46  1232.91  1238.08  1247.90  1248.93  1266.68
eigval :     1268.78  1275.24  1277.23  1279.48  1286.96  1296.84
eigval :     1309.95  1312.50  1319.40  1321.95  1322.41  1327.50
eigval :     1327.64  1332.94  1339.56  1372.49  1376.90  1394.01
eigval :     1409.48  1410.83  1420.52  1433.18  1434.21  1436.64
eigval :     1442.00  1443.08  1451.47  1462.21  1464.11  1465.59
eigval :     1466.53  1470.87  1500.27  1506.32  1524.11  1532.52
eigval :     1541.17  1558.31  1569.29  1570.95  1573.30  1575.01
eigval :     1584.51  1586.39  1591.75  1592.76  1609.84  3064.79
eigval :     3072.21  3077.74  3077.85  3078.24  3078.57  3079.06
eigval :     3080.51  3080.64  3080.77  3081.57  3082.93  3086.42
eigval :     3088.17  3088.29  3088.51  3089.47  3089.56  3090.91
eigval :     3092.70  3093.15  3093.82  3094.18  3098.54  3099.16
eigval :     3099.71  3099.73  3099.99  3101.36  3102.42  3108.90

   temp. (K)  partition function   enthalpy   heat capacity  entropy
                                   cal/mol     cal/K/mol   cal/K/mol   J/K/mol
 298.15  VIB  0.109E+18            22327.208    144.059    138.034
         ROT  0.938E+08              888.752      2.981     39.461
         INT  0.103E+26            23215.961    147.040    177.495
         TR   0.151E+29             1481.254      4.968     45.164
         TOT                       24697.2145   152.0084   222.6587   931.6039

       T/K    H(0)-H(T)+PV         H(T)/Eh          T*S/Eh         G(T)/Eh
   ------------------------------------------------------------------------
    298.15    0.393575E-01    0.653029E+00    0.105792E+00    0.547236E+00
   ------------------------------------------------------------------------

         :::::::::::::::::::::::::::::::::::::::::::::::::::::
         ::                  THERMODYNAMIC                  ::
         :::::::::::::::::::::::::::::::::::::::::::::::::::::
         :: total free energy        -122.513166461893 Eh   ::
         ::.................................................::
         :: total energy             -123.060402712927 Eh   ::
         :: zero point energy           0.613671061619 Eh   ::
         :: G(RRHO) w/o ZPVE           -0.066434810585 Eh   ::
         :: G(RRHO) contrib.            0.547236251034 Eh   ::
         :::::::::::::::::::::::::::::::::::::::::::::::::::::

           -------------------------------------------------
          | TOTAL ENERGY             -123.060402712927 Eh   |
          | TOTAL ENTHALPY           -122.407374134711 Eh   |
          | TOTAL FREE ENERGY        -122.513166461893 Eh   |
          | GRADIENT NORM               0.000048629648 Eh/α |
           -------------------------------------------------

 * finished run on 2025/09/04 at 12:12:03.143
