   * xtb version 6.7.1 (edcfbbe) compiled by 'albert@albert-system' on 2024-07-22

   ID    Z sym.   atoms
    1    6 C      1-4, 6-20, 22-45, 47-49
    2    7 N      5, 21, 46
    3    1 H      50-80

          program call               : xtb data2507/gas/NIDPA-2/NIDPA-2.xyz --gfn 2 --ohess vtight --parallel 40 --molden --ceasefiles --namespace data2507/gas/NIDPA-2/NIDPA-2_gas_S0_preOpt
          :  Hamiltonian                  GFN2-xTB          :
 * total energy  :  -123.0948615 Eh     change       -0.2469960E-08 Eh
 * total energy  :  -123.1211595 Eh     change       -0.2629800E-01 Eh
 * total energy  :  -123.1313302 Eh     change       -0.1017072E-01 Eh
 * total energy  :  -123.1342637 Eh     change       -0.2933504E-02 Eh
 * total energy  :  -123.1354180 Eh     change       -0.1154238E-02 Eh
 * total energy  :  -123.1358852 Eh     change       -0.4671786E-03 Eh
 * total energy  :  -123.1362065 Eh     change       -0.3213006E-03 Eh
 * total energy  :  -123.1364919 Eh     change       -0.2854057E-03 Eh
 * total energy  :  -123.1367114 Eh     change       -0.2195151E-03 Eh
 * total energy  :  -123.1367973 Eh     change       -0.8588230E-04 Eh
 * total energy  :  -123.1370020 Eh     change       -0.4437904E-06 Eh
 * total energy  :  -123.1370025 Eh     change       -0.5212687E-06 Eh
 * total energy  :  -123.1370031 Eh     change       -0.5987000E-06 Eh
 * total energy  :  -123.1370036 Eh     change       -0.5061939E-06 Eh
 * total energy  :  -123.1370040 Eh     change       -0.3503805E-06 Eh
 * total energy  :  -123.1370042 Eh     change       -0.1962988E-06 Eh
 * total energy  :  -123.1370044 Eh     change       -0.1850183E-06 Eh
 * total energy  :  -123.1370046 Eh     change       -0.2810588E-06 Eh
 * total energy  :  -123.1370046 Eh     change       -0.3863150E-08 Eh
   *** GEOMETRY OPTIMIZATION CONVERGED AFTER 44 ITERATIONS ***

 final structure:
================
80
 xtb: 6.7.1 (edcfbbe)
C            8.08887094331780       -1.65597030043777        1.67625937525095
C            6.82376423695927       -1.73203300146906        2.23540057569844
C            5.73541731549171       -1.18811415032199        1.58195851617856
C            5.89771032558748       -0.56219139828538        0.34583721937214
N            4.79669377143061       -0.01523681112576       -0.32094452119706
C            4.93043820428038        1.17083402291730       -1.05013352855221
C            4.21815649221423        1.35659697900265       -2.23514733996001
C            4.34948980045520        2.53095312091338       -2.95003489774572
C            5.19497736996230        3.53379322290759       -2.50469547523234
C            5.90656219277803        3.35379869324718       -1.32984833033600
C            5.77513395663326        2.18684985082457       -0.60284211139841
C            3.55310449867909       -0.65740762578657       -0.25723910914250
C            3.48787953029011       -2.05417996481660       -0.30391568421682
C            2.28119543053348       -2.72630050072094       -0.24114174085045
C            1.11894724413749       -1.98527175618403       -0.14326014774834
C            1.16664115638584       -0.55541060860915       -0.09997011674191
C            2.38375055895985        0.09530251856996       -0.15056393798860
C           -0.20107419155826       -0.07287942201104        0.00796721851256
C           -0.96105177091574        1.08404134634459        0.08827059890536
C           -2.36011150415094        0.95444460877189        0.19191476597817
N           -3.12343768494474        2.13335957596109        0.28814216228687
C           -4.32311551122108        2.24164424228218       -0.42024612307997
C           -5.41550056641910        2.91435654638768        0.12832237436614
C           -6.59862551968380        3.01396279349591       -0.57718190703566
C           -6.71964725550284        2.43933001201426       -1.83184800182609
C           -5.64081897786640        1.76389774621452       -2.37875074225267
C           -4.45056643239188        1.66679444870224       -1.68544056458852
C           -2.68207821872062        3.17960145755471        1.10234909799788
C           -2.89444471708491        4.50766990635409        0.73087777067315
C           -2.45547924308363        5.53655532220704        1.54076017787766
C           -1.79063749553200        5.26428524261661        2.72525845026871
C           -1.56993849146057        3.94780133976716        3.09549327966908
C           -2.01291769816123        2.91172355240538        2.29713718296816
C           -3.04596362854723       -0.27271954195024        0.20639836008626
C           -2.31549424343900       -1.45332605859590        0.09869512597622
C           -2.42497343597762       -2.89979065254802        0.05216155820117
C           -3.53111776142828       -3.77751864995647        0.08233645943786
C           -4.86504375248490       -3.33413436028463        0.16611615845607
C           -5.90004606534550       -4.22824725266827        0.19095061341633
C           -5.64915490489720       -5.60611683014950        0.13396448271864
C           -4.36428952313230       -6.06700139418765        0.04957330228487
C           -3.27325675381661       -5.17558436649287        0.01956189993786
C           -1.94436379841621       -5.65214500354359       -0.07355527677430
C           -0.87311427035061       -4.80364562810939       -0.11035894840532
C           -1.11271450561293       -3.42802363269243       -0.04882717893035
N           -0.20911447488895       -2.38145416855229       -0.07054285327323
C           -0.94460412423719       -1.24369719836663        0.01618869301188
C            7.17288422422053       -0.49406350683766       -0.21546870772184
C            8.25622691905208       -1.03344797487700        0.45003934283226
H            8.93771831163836       -2.07859725946668        2.19194421468649
H            6.68389351231552       -2.21110154772218        3.19342339906150
H            4.75163770994948       -1.23989227610324        2.02519556757297
H            3.56567996336375        0.57275517393328       -2.59125155909149
H            3.79345928417734        2.65984541127561       -3.86711653290305
H            5.29817261950880        4.44848085987149       -3.06843600500200
H            6.56354532180792        4.13245055695106       -0.97086984135841
H            6.32311615105050        2.05469864869408        0.31861860871934
H            4.40597844360661       -2.61535377352753       -0.39312031734991
H            2.25554563800246       -3.80415775113149       -0.27945333327528
H            2.43230399772819        1.17292843116832       -0.10785387867740
H           -0.52160783598369        2.06972357490865        0.07684186915414
H           -5.32968938372964        3.35251369392143        1.11196145685884
H           -7.43627297586908        3.53647479305408       -0.13866449068153
H           -7.64731093785059        2.51622718823721       -2.37836037738200
H           -5.72367916676140        1.31497688746670       -3.35779568820408
H           -3.60912653912022        1.14576544280668       -2.11850439352033
H           -3.40164740514196        4.72438106476997       -0.19791378127471
H           -2.62604814768294        6.55981255092118        1.23941805704404
H           -1.44658288816518        6.07140904303754        3.35403197888150
H           -1.05570952985577        3.72471112535077        4.01895331691660
H           -1.84669340910575        1.88637924351706        2.59393699834394
H           -4.12077184973174       -0.25513648621273        0.30086484007129
H           -5.06015925331352       -2.27439581917127        0.20721121703593
H           -6.91951755647971       -3.87646353310391        0.25424744557213
H           -6.47730046898984       -6.29927777847246        0.15577191720618
H           -4.16550316181975       -7.12857717863825        0.00322655568936
H           -1.78751586469866       -6.72021976327071       -0.11819017014016
H            0.13611050858709       -5.17861068413465       -0.18467987277660
H            7.30502724284978       -0.01870207768351       -1.17642287387990
H            9.23780101961889       -0.97473055112973        0.00300515533685

          :  Hamiltonian                  GFN2-xTB          :
         :: gradient norm              0.000044197081 Eh/a0 ::
         :: HOMO-LUMO gap              1.883416060351 eV    ::
         :: SCC energy              -125.467383435597 Eh    ::
         :: -> dispersion             -0.113686833645 Eh    ::
         :: repulsion energy           2.330378798095 Eh    ::

    * Orbital Energies and Occupations

         #    Occupation            Energy/Eh            Energy/eV
      -------------------------------------------------------------
         1        2.0000           -0.6863497             -18.6765
       ...           ...                  ...                  ...
       103        2.0000           -0.4085048             -11.1160
       104        2.0000           -0.4063560             -11.0575
       105        2.0000           -0.4052856             -11.0284
       106        2.0000           -0.4048549             -11.0167
       107        2.0000           -0.4034985             -10.9798
       108        2.0000           -0.4032199             -10.9722
       109        2.0000           -0.4018417             -10.9347
       110        2.0000           -0.4005045             -10.8983
       111        2.0000           -0.3888021             -10.5798
       112        2.0000           -0.3813857             -10.3780
       113        2.0000           -0.3693438             -10.0504
       114        2.0000           -0.3477353              -9.4624
       115        2.0000           -0.3423622              -9.3161 (HOMO)
       116                         -0.2731479              -7.4327 (LUMO)
       117                         -0.2439933              -6.6394
       118                         -0.2339145              -6.3651
       119                         -0.2291660              -6.2359
       120                         -0.2285793              -6.2200
       121                         -0.2263865              -6.1603
       122                         -0.2240475              -6.0966
       123                         -0.2212006              -6.0192
       124                         -0.2203549              -5.9962
       125                         -0.2176327              -5.9221
       126                         -0.2110136              -5.7420
       ...                                ...                  ...
       227                          0.7669590              20.8700
      -------------------------------------------------------------
                  HL-Gap            0.0692143 Eh            1.8834 eV

     #   Z          covCN         q      C6AA      α(0)
     1   6 C        2.919    -0.039    28.968     8.826
     2   6 C        2.919    -0.029    28.735     8.791
     3   6 C        2.923    -0.048    29.202     8.862
     4   6 C        2.924     0.065    26.549     8.450
     5   7 N        2.753    -0.076    22.713     7.078
     6   6 C        2.924     0.065    26.548     8.450
     7   6 C        2.922    -0.048    29.199     8.861
     8   6 C        2.920    -0.029    28.731     8.790
     9   6 C        2.919    -0.039    28.965     8.826
    10   6 C        2.920    -0.029    28.733     8.790
    11   6 C        2.922    -0.048    29.195     8.861
    12   6 C        2.923     0.059    26.686     8.472
    13   6 C        2.926    -0.050    29.242     8.868
    14   6 C        2.908    -0.045    29.127     8.849
    15   6 C        3.086     0.043    26.942     8.509
    16   6 C        3.111    -0.010    28.118     8.687
    17   6 C        2.914    -0.049    29.229     8.865
    18   6 C        3.022    -0.016    28.377     8.738
    19   6 C        2.936    -0.048    29.196     8.862
    20   6 C        2.925     0.055    26.771     8.485
    21   7 N        2.755    -0.078    22.755     7.085
    22   6 C        2.923     0.065    26.544     8.449
    23   6 C        2.922    -0.049    29.216     8.864
    24   6 C        2.919    -0.030    28.742     8.792
    25   6 C        2.919    -0.040    28.986     8.829
    26   6 C        2.919    -0.030    28.737     8.791
    27   6 C        2.923    -0.049    29.211     8.863
    28   6 C        2.923     0.065    26.542     8.449
    29   6 C        2.922    -0.049    29.213     8.863
    30   6 C        2.919    -0.030    28.741     8.791
    31   6 C        2.919    -0.040    28.986     8.829
    32   6 C        2.919    -0.030    28.739     8.791
    33   6 C        2.923    -0.049    29.214     8.864
    34   6 C        2.939    -0.048    29.199     8.862
    35   6 C        3.025    -0.014    28.342     8.733
    36   6 C        3.112    -0.023    28.427     8.734
    37   6 C        2.980     0.012    27.745     8.640
    38   6 C        2.917    -0.036    28.897     8.815
    39   6 C        2.917    -0.030    28.740     8.791
    40   6 C        2.915    -0.032    28.804     8.801
    41   6 C        2.920    -0.034    28.858     8.809
    42   6 C        2.985     0.006    27.874     8.660
    43   6 C        2.924    -0.038    28.942     8.822
    44   6 C        2.905    -0.045    29.107     8.846
    45   6 C        3.099     0.047    26.822     8.487
    46   7 N        2.836    -0.028    21.785     6.932
    47   6 C        3.482     0.028    21.972     7.002
    48   6 C        2.922    -0.048    29.194     8.861
    49   6 C        2.920    -0.029    28.734     8.790
    50   1 H        0.926     0.030     2.591     2.517
    51   1 H        0.926     0.031     2.575     2.509
    52   1 H        0.926     0.030     2.581     2.512
    53   1 H        0.926     0.030     2.584     2.514
    54   1 H        0.926     0.031     2.572     2.508
    55   1 H        0.926     0.030     2.591     2.517
    56   1 H        0.926     0.031     2.572     2.508
    57   1 H        0.926     0.032     2.565     2.504
    58   1 H        0.926     0.037     2.491     2.468
    59   1 H        0.926     0.035     2.514     2.479
    60   1 H        0.926     0.039     2.460     2.453
    61   1 H        0.926     0.036     2.505     2.475
    62   1 H        0.926     0.031     2.573     2.508
    63   1 H        0.926     0.030     2.587     2.515
    64   1 H        0.926     0.028     2.608     2.526
    65   1 H        0.926     0.030     2.587     2.515
    66   1 H        0.926     0.029     2.596     2.520
    67   1 H        0.926     0.031     2.571     2.508
    68   1 H        0.926     0.030     2.587     2.515
    69   1 H        0.926     0.028     2.608     2.526
    70   1 H        0.926     0.030     2.590     2.517
    71   1 H        0.926     0.029     2.598     2.520
    72   1 H        0.926     0.034     2.530     2.487
    73   1 H        0.926     0.035     2.511     2.478
    74   1 H        0.926     0.029     2.598     2.521
    75   1 H        0.926     0.029     2.608     2.525
    76   1 H        0.926     0.029     2.595     2.519
    77   1 H        0.926     0.034     2.529     2.487
    78   1 H        0.926     0.032     2.556     2.500
    79   1 H        0.926     0.032     2.563     2.503
    80   1 H        0.926     0.031     2.572     2.508

molecular dipole:
                 x           y           z       tot (Debye)
 q only:        0.241      -0.212      -0.030
   full:        0.312      -0.289      -0.036       1.085

 projected vibrational frequencies (cm⁻¹)
eigval :       -0.00    -0.00    -0.00     0.00     0.00     0.00
eigval :      -18.40    12.82    16.37    20.53    30.41    33.81
eigval :       47.47    49.85    53.51    59.52    62.66    71.68
eigval :       80.71    84.23    94.24   110.89   111.57   126.48
eigval :      157.14   177.01   190.52   203.71   209.85   224.72
eigval :      232.24   238.71   243.21   253.63   285.04   295.72
eigval :      305.65   316.18   323.21   333.13   359.55   372.01
eigval :      375.36   378.08   378.76   383.71   384.18   392.72
eigval :      406.68   411.93   438.54   454.74   467.60   482.32
eigval :      484.99   489.22   491.20   502.07   503.24   543.11
eigval :      545.24   560.76   565.12   575.98   586.59   588.85
eigval :      589.13   590.47   597.45   610.04   618.22   631.74
eigval :      639.18   645.24   654.22   660.67   660.93   663.78
eigval :      667.85   673.52   689.49   703.71   711.45   722.77
eigval :      740.26   755.84   756.40   759.42   761.32   762.70
eigval :      802.84   811.54   816.69   825.04   832.63   861.15
eigval :      866.59   872.99   873.06   873.25   875.00   875.81
eigval :      876.66   884.24   889.34   890.80   892.65   893.84
eigval :      900.92   904.78   910.40   911.11   913.88   926.29
eigval :      926.59   927.07   927.52   927.83   928.13   928.37
eigval :      930.11   930.40   951.47   971.58   984.87  1001.92
eigval :     1004.56  1006.83  1014.48  1034.42  1081.75  1083.46
eigval :     1083.67  1084.44  1084.49  1090.83  1121.83  1122.19
eigval :     1122.78  1124.68  1127.66  1147.88  1160.12  1165.92
eigval :     1179.93  1180.75  1180.79  1180.85  1180.88  1184.78
eigval :     1196.04  1196.29  1196.72  1199.48  1211.13  1217.63
eigval :     1224.76  1242.52  1248.02  1254.12  1274.43  1278.38
eigval :     1278.71  1281.03  1292.57  1306.56  1314.20  1318.42
eigval :     1322.81  1324.02  1326.78  1327.94  1328.30  1333.66
eigval :     1343.61  1352.33  1377.88  1390.24  1399.97  1418.20
eigval :     1428.76  1434.00  1435.21  1440.22  1444.30  1445.00
eigval :     1448.92  1466.44  1473.13  1473.65  1476.19  1478.39
eigval :     1487.75  1530.90  1548.60  1562.72  1575.52  1576.45
eigval :     1577.85  1580.43  1581.05  1592.45  1595.45  1595.63
eigval :     1599.73  1600.56  1607.90  1611.07  1631.56  3067.76
eigval :     3074.36  3074.74  3075.23  3075.48  3075.52  3075.98
eigval :     3076.02  3076.28  3076.85  3077.98  3085.17  3085.69
eigval :     3085.86  3086.31  3087.72  3087.88  3088.31  3089.01
eigval :     3089.06  3089.56  3093.57  3094.47  3094.68  3096.36
eigval :     3096.47  3096.90  3097.03  3097.50  3100.78  3110.74

   temp. (K)  partition function   enthalpy   heat capacity  entropy
                                   cal/mol     cal/K/mol   cal/K/mol   J/K/mol
 298.15  VIB  0.114E+18            22126.613    142.117    137.032
         ROT  0.940E+08              888.752      2.981     39.465
         INT  0.107E+26            23015.365    145.098    176.497
         TR   0.151E+29             1481.254      4.968     45.164
         TOT                       24496.6193   150.0663   221.6605   927.4275

       T/K    H(0)-H(T)+PV         H(T)/Eh          T*S/Eh         G(T)/Eh
   ------------------------------------------------------------------------
    298.15    0.390378E-01    0.657074E+00    0.105318E+00    0.551756E+00
   ------------------------------------------------------------------------

         :::::::::::::::::::::::::::::::::::::::::::::::::::::
         ::                  THERMODYNAMIC                  ::
         :::::::::::::::::::::::::::::::::::::::::::::::::::::
         :: total free energy        -122.585249040181 Eh   ::
         ::.................................................::
         :: total energy             -123.137004637502 Eh   ::
         :: zero point energy           0.618035804447 Eh   ::
         :: G(RRHO) w/o ZPVE           -0.066280207127 Eh   ::
         :: G(RRHO) contrib.            0.551755597320 Eh   ::
         :::::::::::::::::::::::::::::::::::::::::::::::::::::

           -------------------------------------------------
          | TOTAL ENERGY             -123.137004637502 Eh   |
          | TOTAL ENTHALPY           -122.479930985278 Eh   |
          | TOTAL FREE ENERGY        -122.585249040181 Eh   |
          | GRADIENT NORM               0.000044186880 Eh/α |
          | HOMO-LUMO GAP               1.883415881969 eV   |
           -------------------------------------------------

 * finished run on 2025/09/04 at 11:57:35.825
