   * xtb version 6.7.1 (edcfbbe) compiled by 'albert@albert-system' on 2024-07-22

   ID    Z sym.   atoms
    1    7 N      1, 5, 11, 30
    2    6 C      2-4, 6-10, 12-29, 31-44
    3    1 H      45-72

          program call               : xtb data2507/toluene/4-DPM/4-DPM_toluene_S0_crest.xyz --gfn 2 --gbsa toluene --ohess vtight --parallel 40 --molden --ceasefiles --namespace data2507/toluene/4-DPM/4-DPM_toluene_S0_finalOpt
      * Solvation model:               GBSA
        Solvent                        toluene
        Solvent mass                       9.2140E+01 g/mol
          :  Hamiltonian                  GFN2-xTB          :
 * total energy  :  -111.5874945 Eh     change       -0.3166619E-08 Eh
 * total energy  :  -111.5875569 Eh     change       -0.6235096E-04 Eh
 * total energy  :  -111.5875670 Eh     change       -0.1006939E-04 Eh
 * total energy  :  -111.5875829 Eh     change       -0.1594446E-04 Eh
 * total energy  :  -111.5875823 Eh     change        0.6191846E-06 Eh
 * total energy  :  -111.5875914 Eh     change       -0.9120250E-05 Eh
 * total energy  :  -111.5875956 Eh     change       -0.4206483E-05 Eh
 * total energy  :  -111.5876014 Eh     change       -0.5731378E-05 Eh
 * total energy  :  -111.5876051 Eh     change       -0.3729600E-05 Eh
 * total energy  :  -111.5876074 Eh     change       -0.2329175E-05 Eh
 * total energy  :  -111.5876133 Eh     change       -0.7062604E-07 Eh
 * total energy  :  -111.5876135 Eh     change       -0.2179533E-06 Eh
 * total energy  :  -111.5876138 Eh     change       -0.3090435E-06 Eh
 * total energy  :  -111.5876141 Eh     change       -0.3060032E-06 Eh
 * total energy  :  -111.5876141 Eh     change        0.5699729E-07 Eh
 * total energy  :  -111.5876142 Eh     change       -0.1559115E-06 Eh
 * total energy  :  -111.5876142 Eh     change        0.2550823E-07 Eh
 * total energy  :  -111.5876144 Eh     change       -0.1968949E-06 Eh
 * total energy  :  -111.5876145 Eh     change       -0.4864674E-07 Eh
   *** GEOMETRY OPTIMIZATION CONVERGED AFTER 26 ITERATIONS ***

 final structure:
================
72
 xtb: 6.7.1 (edcfbbe)
N            2.04490700299982        5.12714789488018       -0.38137509463071
C            1.14974701223640        4.43369133301875       -0.17612406960889
C            0.00084825083953        3.64719109841776        0.01924621931010
C           -1.15325958885221        4.42543738833176        0.21802755273617
N           -2.05355734117703        5.11126748243166        0.42614744606240
C            0.00283424975269        2.26698087077290        0.01642436204022
C            1.24963577648915        1.52338489531988        0.02586451528179
C            2.36856872951401        1.96448074423802        0.74272411793636
C            3.54344264022795        1.25226976305810        0.73307358475212
C            3.66148130518366        0.07077996850003       -0.01218194325843
N            4.84905489482035       -0.63321765977230       -0.03885391611277
C            4.85967080937568       -2.02570420690153       -0.24086886566744
C            3.92573317045004       -2.84139903830330        0.39554758964567
C            3.94981592988917       -4.20906344692405        0.19685217731811
C            4.90576583564304       -4.78085136598146       -0.62731885905807
C            5.84159270440376       -3.97377345598705       -1.25407692923723
C            5.82085211572738       -2.60434465773056       -1.06732640037041
C            6.08096612633841        0.02717702550774        0.12500385159545
C            7.08597579172519       -0.55358063602935        0.89602568161949
C            8.30239908720792        0.08548242729371        1.04538426522388
C            8.53060995945688        1.30859933796540        0.43556579503847
C            7.53360539372430        1.88862335254910       -0.33237720194686
C            6.31663200703760        1.25350447139325       -0.49401683053009
C            2.54029346546799       -0.37801220665174       -0.72434835223685
C            1.36162099076126        0.32654667080104       -0.69502888115869
C           -1.24563707226401        1.52483540594302        0.00171009145759
C           -2.35461330496887        1.96163279407140       -0.73253650847041
C           -3.53005357634852        1.25015236813845       -0.73287597633054
C           -3.65920979009149        0.07552077277352        0.02122246064364
N           -4.84736335986039       -0.62797019336061        0.03638494775384
C           -4.86321236484398       -2.01817914366565        0.25269480990529
C           -3.91869140725367       -2.84212371796321       -0.35689758637602
C           -3.94910962991777       -4.20756200597098       -0.14420605887660
C           -4.92195042931149       -4.76908227207197        0.66714922592903
C           -5.86839995624507       -3.95393027164813        1.26691580001148
C           -5.84135518723120       -2.58658346358879        1.06631107673110
C           -6.07568044478844        0.03056482594950       -0.15991202554877
C           -7.06256424008420       -0.55649964835071       -0.94926897030090
C           -8.27500133202630        0.08141121677117       -1.13226207184554
C           -8.51695424763232        1.30951783010240       -0.53798841057755
C           -7.53817978579353        1.89552659896208        0.24865972625045
C           -6.32537356669121        1.26176021807545        0.44367550340496
C           -2.54849773695237       -0.36726375996127        0.75320522459917
C           -1.36821944107462        0.33519042577986        0.73210534398829
H            2.29719711687417        2.85354724792901        1.35214989572023
H            4.38281926261915        1.59884817838087        1.31668235277355
H            3.18872805980416       -2.39751947181985        1.04876289214271
H            3.22241907568716       -4.83214324227434        0.69612830484674
H            4.92312407238757       -5.84972960962253       -0.77801345364988
H            6.58912498310965       -4.41151961372637       -1.89903711804566
H            6.54692024443082       -1.97464962078258       -1.56026288745497
H            6.90561704455964       -1.50402664402678        1.37662190215440
H            9.07372432383338       -0.37163199377224        1.64750815219857
H            9.48041123449041        1.80714721514998        0.55703197972251
H            7.70484690076705        2.83881786208307       -0.81649456048936
H            5.54447469273162        1.70298189405376       -1.10153681533632
H            2.61284471095389       -1.27788218527397       -1.31615741390054
H            0.51790386008191       -0.02224669966473       -1.27195178513733
H           -2.27414749854940        2.84580680185892       -1.34806182435144
H           -4.36092397736478        1.59212100912332       -1.33116090732811
H           -3.16857158859338       -2.40657623793033       -1.00070168195387
H           -3.21326533297617       -4.83706170661537       -0.62263424025614
H           -4.94423506209971       -5.83628427302096        0.82867407202431
H           -6.62920211613271       -4.38359893724542        1.90171534083275
H           -6.57575370676809       -1.95048202262208        1.53825283672861
H           -6.87141632251623       -1.51096079149920       -1.41758139342313
H           -9.03207713089235       -0.38043278847598       -1.74869522896561
H           -9.46344000460407        1.80725784901122       -0.68583808352383
H           -7.72051602249780        2.84960673637782        0.72095965484416
H           -5.56723005349011        1.71614336661838        1.06505321383405
H           -2.63005061248308       -1.26112189896157        1.35287798687718
H           -0.53201004652574       -0.00955047033330        1.32230140532376

          :  Hamiltonian                  GFN2-xTB          :
         :: gradient norm              0.000145635768 Eh/a0 ::
         :: HOMO-LUMO gap              1.520556240756 eV    ::
         :: SCC energy              -113.752767505789 Eh    ::
         :: -> dispersion             -0.098590375517 Eh    ::
         :: -> Gsolv                  -0.055716060048 Eh    ::
         :: repulsion energy           2.165153047128 Eh    ::

    * Orbital Energies and Occupations

         #    Occupation            Energy/Eh            Energy/eV
      -------------------------------------------------------------
         1        2.0000           -0.6760611             -18.3966
       ...           ...                  ...                  ...
        92        2.0000           -0.4233207             -11.5191
        93        2.0000           -0.4211871             -11.4611
        94        2.0000           -0.4192672             -11.4088
        95        2.0000           -0.4155060             -11.3065
        96        2.0000           -0.4146884             -11.2842
        97        2.0000           -0.4146034             -11.2819
        98        2.0000           -0.4120784             -11.2132
        99        2.0000           -0.4119795             -11.2105
       100        2.0000           -0.4108750             -11.1805
       101        2.0000           -0.4103757             -11.1669
       102        2.0000           -0.4022519             -10.9458
       103        2.0000           -0.3614673              -9.8360
       104        2.0000           -0.3602667              -9.8034 (HOMO)
       105                         -0.3043875              -8.2828 (LUMO)
       106                         -0.2456473              -6.6844
       107                         -0.2404059              -6.5418
       108                         -0.2372744              -6.4566
       109                         -0.2368822              -6.4459
       110                         -0.2355279              -6.4090
       111                         -0.2318349              -6.3085
       112                         -0.2303567              -6.2683
       113                         -0.2291133              -6.2345
       114                         -0.2281251              -6.2076
       115                         -0.2279960              -6.2041
       ...                                ...                  ...
       204                          1.1605178              31.5793
      -------------------------------------------------------------
                  HL-Gap            0.0558792 Eh            1.5206 eV

     #   Z          covCN         q      C6AA      α(0)
     1   7 N        0.911    -0.301    27.752     7.619
     2   6 C        1.934     0.124    28.055     8.554
     3   6 C        2.955    -0.017    28.435     8.746
     4   6 C        1.935     0.124    28.054     8.554
     5   7 N        0.911    -0.301    27.751     7.619
     6   6 C        2.974     0.034    27.227     8.559
     7   6 C        2.977    -0.002    28.067     8.690
     8   6 C        2.921    -0.026    28.641     8.776
     9   6 C        2.920    -0.047    29.178     8.858
    10   6 C        2.921     0.073    26.368     8.421
    11   7 N        2.752    -0.061    22.425     7.033
    12   6 C        2.926     0.063    26.593     8.457
    13   6 C        2.922    -0.045    29.112     8.848
    14   6 C        2.919    -0.028    28.708     8.786
    15   6 C        2.919    -0.035    28.866     8.810
    16   6 C        2.919    -0.028    28.696     8.785
    17   6 C        2.922    -0.044    29.089     8.845
    18   6 C        2.926     0.063    26.596     8.457
    19   6 C        2.922    -0.044    29.100     8.846
    20   6 C        2.919    -0.028    28.704     8.786
    21   6 C        2.919    -0.034    28.858     8.809
    22   6 C        2.919    -0.028    28.696     8.785
    23   6 C        2.921    -0.044    29.092     8.845
    24   6 C        2.919    -0.049    29.224     8.865
    25   6 C        2.923    -0.027    28.673     8.781
    26   6 C        2.977    -0.002    28.069     8.690
    27   6 C        2.921    -0.026    28.641     8.776
    28   6 C        2.920    -0.048    29.181     8.859
    29   6 C        2.921     0.073    26.370     8.421
    30   7 N        2.752    -0.062    22.431     7.034
    31   6 C        2.925     0.063    26.592     8.457
    32   6 C        2.922    -0.045    29.114     8.848
    33   6 C        2.919    -0.028    28.709     8.786
    34   6 C        2.919    -0.035    28.867     8.811
    35   6 C        2.919    -0.028    28.697     8.785
    36   6 C        2.922    -0.044    29.090     8.845
    37   6 C        2.926     0.063    26.595     8.457
    38   6 C        2.922    -0.044    29.099     8.846
    39   6 C        2.919    -0.028    28.704     8.786
    40   6 C        2.919    -0.034    28.858     8.809
    41   6 C        2.919    -0.028    28.696     8.785
    42   6 C        2.921    -0.044    29.090     8.845
    43   6 C        2.919    -0.049    29.226     8.865
    44   6 C        2.922    -0.027    28.675     8.782
    45   1 H        0.926     0.033     2.547     2.496
    46   1 H        0.926     0.042     2.422     2.434
    47   1 H        0.926     0.037     2.490     2.467
    48   1 H        0.926     0.040     2.454     2.450
    49   1 H        0.926     0.038     2.477     2.461
    50   1 H        0.926     0.039     2.464     2.455
    51   1 H        0.926     0.036     2.499     2.472
    52   1 H        0.926     0.038     2.481     2.463
    53   1 H        0.926     0.040     2.455     2.450
    54   1 H        0.926     0.038     2.478     2.462
    55   1 H        0.926     0.038     2.474     2.460
    56   1 H        0.926     0.035     2.519     2.482
    57   1 H        0.926     0.046     2.377     2.411
    58   1 H        0.926     0.044     2.396     2.421
    59   1 H        0.926     0.032     2.552     2.498
    60   1 H        0.926     0.042     2.424     2.435
    61   1 H        0.926     0.037     2.490     2.468
    62   1 H        0.926     0.040     2.455     2.450
    63   1 H        0.926     0.038     2.478     2.461
    64   1 H        0.926     0.039     2.465     2.455
    65   1 H        0.926     0.036     2.500     2.473
    66   1 H        0.926     0.038     2.481     2.463
    67   1 H        0.926     0.040     2.455     2.450
    68   1 H        0.926     0.038     2.478     2.462
    69   1 H        0.926     0.038     2.474     2.459
    70   1 H        0.926     0.035     2.518     2.481
    71   1 H        0.926     0.045     2.377     2.411
    72   1 H        0.926     0.044     2.399     2.422

molecular dipole:
                 x           y           z       tot (Debye)
 q only:        0.017      -4.313      -0.018
   full:        0.018      -4.573      -0.019      11.624

 projected vibrational frequencies (cm⁻¹)
eigval :       -0.00    -0.00    -0.00    -0.00     0.00     0.00
eigval :        8.35    10.09    12.04    21.62    32.59    34.80
eigval :       37.77    41.45    53.26    56.34    58.37    66.54
eigval :       69.18    72.52    76.01    88.16   106.26   118.08
eigval :      138.53   159.41   166.08   178.13   192.37   209.01
eigval :      212.78   233.25   235.43   241.01   268.04   284.14
eigval :      305.91   307.64   332.66   333.79   369.71   376.33
eigval :      376.95   378.40   379.02   391.01   392.44   395.94
eigval :      399.21   407.89   421.47   438.35   446.51   468.55
eigval :      489.96   491.25   499.14   501.55   514.27   552.12
eigval :      581.01   581.11   584.15   584.98   587.54   592.39
eigval :      594.38   599.36   601.46   610.76   634.29   636.32
eigval :      660.17   661.28   665.92   668.41   680.14   692.17
eigval :      705.89   727.88   757.35   757.52   759.86   760.81
eigval :      816.99   818.70   862.09   863.99   873.86   873.98
eigval :      874.17   875.17   887.10   893.90   896.67   896.98
eigval :      898.80   901.34   908.85   908.96   919.17   920.85
eigval :      925.95   926.74   927.59   927.92   928.40   929.22
eigval :      929.78   930.32   931.73   931.94   937.48   950.67
eigval :      985.34   989.20  1004.16  1004.21  1018.54  1029.18
eigval :     1080.31  1080.39  1081.42  1081.49  1119.14  1119.36
eigval :     1120.74  1120.82  1149.70  1150.38  1177.68  1177.98
eigval :     1178.03  1178.75  1182.38  1183.25  1191.58  1191.89
eigval :     1194.84  1197.54  1207.87  1211.66  1220.47  1232.34
eigval :     1269.69  1271.27  1274.67  1274.78  1278.74  1279.27
eigval :     1297.47  1299.53  1312.04  1314.13  1316.99  1321.98
eigval :     1322.08  1329.82  1332.02  1336.88  1337.66  1420.87
eigval :     1421.28  1433.86  1433.98  1438.37  1438.46  1465.34
eigval :     1465.97  1468.86  1468.98  1471.34  1487.33  1496.84
eigval :     1532.55  1535.22  1573.63  1577.12  1577.18  1580.87
eigval :     1581.52  1589.56  1589.60  1589.97  1595.52  1598.78
eigval :     2312.78  2343.47  3075.84  3075.91  3075.98  3076.33
eigval :     3076.60  3076.86  3077.70  3078.22  3078.89  3079.82
eigval :     3083.56  3084.35  3084.55  3084.73  3085.31  3085.62
eigval :     3087.81  3087.86  3088.92  3089.09  3096.21  3096.46
eigval :     3096.73  3097.11  3097.12  3097.37  3098.29  3098.87

   temp. (K)  partition function   enthalpy   heat capacity  entropy
                                   cal/mol     cal/K/mol   cal/K/mol   J/K/mol
 298.15  VIB  0.152E+19            21705.406    131.999    138.256
         ROT  0.783E+08              888.752      2.981     39.102
         INT  0.119E+27            22594.159    134.980    177.357
         TR   0.130E+29             1481.254      4.968     44.858
         TOT                       24075.4126   139.9485   222.2149   929.7472

       T/K    H(0)-H(T)+PV         H(T)/Eh          T*S/Eh         G(T)/Eh
   ------------------------------------------------------------------------
    298.15    0.383666E-01    0.587718E+00    0.105581E+00    0.482136E+00
   ------------------------------------------------------------------------

         :::::::::::::::::::::::::::::::::::::::::::::::::::::
         ::                  THERMODYNAMIC                  ::
         :::::::::::::::::::::::::::::::::::::::::::::::::::::
         :: total free energy        -111.105478294248 Eh   ::
         ::.................................................::
         :: total energy             -111.587614462410 Eh   ::
         :: zero point energy           0.549351029571 Eh   ::
         :: G(RRHO) w/o ZPVE           -0.067214861409 Eh   ::
         :: G(RRHO) contrib.            0.482136168162 Eh   ::
         :::::::::::::::::::::::::::::::::::::::::::::::::::::

           -------------------------------------------------
          | TOTAL ENERGY             -111.587614462410 Eh   |
          | TOTAL ENTHALPY           -110.999896820782 Eh   |
          | TOTAL FREE ENERGY        -111.105478294248 Eh   |
          | GRADIENT NORM               0.000145694118 Eh/α |
          | HOMO-LUMO GAP               1.520550610187 eV   |
           -------------------------------------------------

 * finished run on 2025/09/14 at 08:11:40.394
