   * xtb version 6.7.1 (edcfbbe) compiled by 'albert@albert-system' on 2024-07-22

   ID    Z sym.   atoms
    1    7 N      1, 5, 11, 30
    2    6 C      2-4, 6-10, 12-29, 31-44
    3    1 H      45-72

          program call               : xtb data2507/toluene/4-DPM/4-DPM_toluene_S0_finalOpt.xtbopt.xyz --gfn 2 --uhf 2 --gbsa toluene --ohess vtight --parallel 40 --molden --ceasefiles --namespace data2507/toluene/4-DPM/4-DPM_toluene_T1_preOpt
      * Solvation model:               GBSA
        Solvent                        toluene
        Solvent mass                       9.2140E+01 g/mol
          :  Hamiltonian                  GFN2-xTB          :
 * total energy  :  -111.5209527 Eh     change       -0.1159735E-06 Eh
 * total energy  :  -111.5237990 Eh     change       -0.2846291E-02 Eh
 * total energy  :  -111.5244731 Eh     change       -0.6740645E-03 Eh
 * total energy  :  -111.5245727 Eh     change       -0.9962100E-04 Eh
 * total energy  :  -111.5246741 Eh     change       -0.1013994E-03 Eh
 * total energy  :  -111.5247726 Eh     change       -0.9854784E-04 Eh
 * total energy  :  -111.5248393 Eh     change       -0.6666120E-04 Eh
 * total energy  :  -111.5248854 Eh     change       -0.4607536E-04 Eh
 * total energy  :  -111.5249262 Eh     change       -0.4080732E-04 Eh
 * total energy  :  -111.5249782 Eh     change       -0.5204527E-04 Eh
 * total energy  :  -111.5263220 Eh     change       -0.1675527E-05 Eh
 * total energy  :  -111.5263230 Eh     change       -0.1037264E-05 Eh
 * total energy  :  -111.5263239 Eh     change       -0.8689227E-06 Eh
 * total energy  :  -111.5263248 Eh     change       -0.8738427E-06 Eh
 * total energy  :  -111.5263256 Eh     change       -0.8237663E-06 Eh
 * total energy  :  -111.5263262 Eh     change       -0.5855608E-06 Eh
 * total energy  :  -111.5263265 Eh     change       -0.3418963E-06 Eh
 * total energy  :  -111.5263267 Eh     change       -0.1941599E-06 Eh
 * total energy  :  -111.5263267 Eh     change       -0.2200835E-09 Eh
   *** GEOMETRY OPTIMIZATION CONVERGED AFTER 94 ITERATIONS ***

 final structure:
================
72
 xtb: 6.7.1 (edcfbbe)
N            1.99536861814056        4.95943881872167       -0.74467107822365
C            1.10782692974809        4.29811905515580       -0.40387389000232
C            0.00624261219406        3.54527847416720       -0.02213496113831
C           -1.08953538908986        4.31181986992986        0.34866278781761
N           -1.97177509910608        4.98515667670667        0.67954065635572
C            0.00218342597632        2.10829740674396       -0.01218521742043
C            1.24970398960107        1.40109748900709        0.03917743158788
C            2.38799444150427        1.93293861945468        0.68012432087127
C            3.58610552461705        1.26490347323605        0.68556041308837
C            3.71670553159919        0.02354030452283        0.04848236903337
N            4.93805839199581       -0.64784407642287        0.03957557621202
C            4.96794016000769       -2.04176328721106        0.12736804395586
C            4.04783978424605       -2.71782618641777        0.93287681692320
C            4.08040422246276       -4.09570335644945        1.01682369926376
C            5.02527297467802       -4.82029629952199        0.30592813538923
C            5.93982201860915       -4.15427495926726       -0.49622759819157
C            5.91537386491807       -2.77682712245306       -0.58997382256210
C            6.13008133067585        0.07396163247757       -0.05955143024585
C            7.26844992277318       -0.34319549726055        0.63543504983681
C            8.44386823073114        0.37422485958882        0.53492676449957
C            8.50541086150636        1.51422813559318       -0.25241812387307
C            7.37762130717065        1.93429168383538       -0.94169735819497
C            6.19740275953666        1.22320764226497       -0.85165157526860
C            2.59206718825496       -0.52462109431471       -0.58548508944382
C            1.39520885279321        0.14294709163998       -0.58557998129100
C           -1.24714920207503        1.40477128479490       -0.05519145116447
C           -2.38598977530234        1.93465913168744       -0.69716445941962
C           -3.58502715023104        1.26838181633035       -0.69684779545923
C           -3.71648422379637        0.03059371545944       -0.05286326709618
N           -4.93828187914507       -0.63976637341157       -0.03998449225871
C           -4.96982646168739       -2.03410549542507       -0.11955730505475
C           -4.05008955423636       -2.71640612626445       -0.92020524646872
C           -4.08505795936134       -4.09469275223076       -0.99627235698884
C           -5.03199160808435       -4.81352662819409       -0.28228048159285
C           -5.94613727934296       -4.14130324118687        0.51515117520204
C           -5.91926758215178       -2.76340336761979        0.60106444164330
C           -6.12991945980105        0.08354093479720        0.05350190283907
C           -7.26731362851114       -0.33596940235331       -0.64165087263599
C           -8.44236656410017        0.38277295807569       -0.54650952631680
C           -8.50448532684541        1.52630647206012        0.23565540579223
C           -7.37761128929087        1.94872079570925        0.92500458566984
C           -6.19772113637350        1.23643232821175        0.84017633337570
C           -2.59190792934528       -0.51493011058773        0.58366094454972
C           -1.39419811293342        0.15092642282956        0.57833672462656
H            2.31025537477513        2.87171604248681        1.20861147952904
H            4.43368466322902        1.68740895392826        1.20505634918016
H            3.32396922327917       -2.15159048751590        1.49992934597608
H            3.36938566064560       -4.60683179230481        1.64868654866771
H            5.04869281746820       -5.89704295194696        0.37621801276423
H            6.67283911485012       -4.71245088471898       -1.05925489868044
H            6.61721026070691       -2.25983453819500       -1.22733339053855
H            7.21640767630989       -1.22050697437326        1.26301378457712
H            9.31560862628744        0.04684697508454        1.08163022887192
H            9.42555119492582        2.07333189364194       -0.32712851660237
H            7.41790867877765        2.81851925706848       -1.56021788288277
H            5.32406734750310        1.54473479457596       -1.39994253495479
H            2.68477574219024       -1.46706150573004       -1.10519242887440
H            0.55352487642826       -0.27452104553037       -1.11791020964524
H           -2.30780904194077        2.87016302880608       -1.23128453251955
H           -4.43271080612444        1.68917202445494       -1.21757151451063
H           -3.32469308884590       -2.15476951381233       -1.48987019295848
H           -3.37432866176670       -4.61071634067486       -1.62447469093685
H           -5.05728106236124       -5.89061358982500       -0.34645353681091
H           -6.68070693436646       -4.69492254854335        1.08065372316811
H           -6.62082998283420       -2.24151095691652        1.23472210510315
H           -7.21478209559856       -1.21620803576968       -1.26507763089729
H           -9.31339028811952        0.05354857131562       -1.09324752278070
H           -9.42439004046026        2.08632378824772        0.30630303586747
H           -7.41844694207635        2.83569460040037        1.53953410816539
H           -5.32500511253502        1.55975872315459        1.38838660094991
H           -2.68535504877760       -1.45397460193280        1.10937152628986
H           -0.55260454882007       -0.26436904902778        1.11249570145148

          :  Hamiltonian                  GFN2-xTB          :
         :: gradient norm              0.000071286028 Eh/a0 ::
         :: HOMO-LUMO gap              1.434890955583 eV    ::
         :: SCC energy              -113.673950232738 Eh    ::
         :: -> dispersion             -0.098594103201 Eh    ::
         :: -> Gsolv                  -0.063442079226 Eh    ::
         :: repulsion energy           2.147623507623 Eh    ::

    * Orbital Energies and Occupations

         #    Occupation            Energy/Eh            Energy/eV
      -------------------------------------------------------------
         1        2.0000           -0.6820061             -18.5583
       ...           ...                  ...                  ...
        93        2.0000           -0.4194212             -11.4130
        94        2.0000           -0.4189009             -11.3989
        95        2.0000           -0.4184256             -11.3859
        96        2.0000           -0.4160235             -11.3206
        97        2.0000           -0.4155420             -11.3075
        98        2.0000           -0.4139811             -11.2650
        99        2.0000           -0.4127329             -11.2310
       100        2.0000           -0.4099352             -11.1549
       101        2.0000           -0.4083923             -11.1129
       102        2.0000           -0.3848309             -10.4718
       103        1.8213           -0.3638779              -9.9016
       104        1.1787           -0.3609800              -9.8228
       105        1.0000           -0.2976304              -8.0989 (HOMO)
       106                         -0.2448989              -6.6640 (LUMO)
       107                         -0.2433433              -6.6217
       108                         -0.2432988              -6.6205
       109                         -0.2377984              -6.4708
       110                         -0.2373874              -6.4596
       111                         -0.2327790              -6.3342
       112                         -0.2327158              -6.3325
       113                         -0.2302290              -6.2648
       114                         -0.2270329              -6.1779
       115                         -0.2242826              -6.1030
       116                         -0.2157919              -5.8720
       ...                                ...                  ...
       204                          1.1701793              31.8422
      -------------------------------------------------------------
                  HL-Gap            0.0527315 Eh            1.4349 eV

     #   Z          covCN         q      C6AA      α(0)
     1   7 N        0.911    -0.345    28.877     7.772
     2   6 C        1.938     0.115    28.249     8.583
     3   6 C        2.952    -0.025    28.627     8.776
     4   6 C        1.938     0.115    28.250     8.583
     5   7 N        0.911    -0.345    28.878     7.772
     6   6 C        2.969    -0.022    28.546     8.764
     7   6 C        2.971     0.009    27.811     8.650
     8   6 C        2.920    -0.035    28.869     8.811
     9   6 C        2.916    -0.041    29.016     8.833
    10   6 C        2.925     0.054    26.786     8.487
    11   7 N        2.752    -0.033    21.882     6.948
    12   6 C        2.926     0.064    26.566     8.453
    13   6 C        2.921    -0.041    29.011     8.833
    14   6 C        2.918    -0.026    28.644     8.777
    15   6 C        2.919    -0.030    28.755     8.794
    16   6 C        2.918    -0.026    28.643     8.776
    17   6 C        2.921    -0.041    29.026     8.835
    18   6 C        2.926     0.064    26.565     8.452
    19   6 C        2.921    -0.042    29.041     8.837
    20   6 C        2.918    -0.026    28.651     8.778
    21   6 C        2.919    -0.030    28.746     8.792
    22   6 C        2.918    -0.025    28.631     8.775
    23   6 C        2.921    -0.040    28.987     8.829
    24   6 C        2.916    -0.043    29.079     8.843
    25   6 C        2.922    -0.038    28.948     8.823
    26   6 C        2.971     0.009    27.811     8.650
    27   6 C        2.920    -0.035    28.872     8.811
    28   6 C        2.916    -0.041    29.016     8.833
    29   6 C        2.925     0.054    26.788     8.488
    30   7 N        2.752    -0.033    21.880     6.947
    31   6 C        2.926     0.064    26.566     8.453
    32   6 C        2.921    -0.041    29.011     8.833
    33   6 C        2.918    -0.026    28.644     8.777
    34   6 C        2.919    -0.030    28.755     8.794
    35   6 C        2.918    -0.026    28.643     8.776
    36   6 C        2.921    -0.041    29.026     8.835
    37   6 C        2.926     0.064    26.566     8.453
    38   6 C        2.921    -0.042    29.041     8.837
    39   6 C        2.918    -0.026    28.651     8.778
    40   6 C        2.919    -0.030    28.746     8.792
    41   6 C        2.918    -0.025    28.631     8.775
    42   6 C        2.921    -0.040    28.986     8.829
    43   6 C        2.916    -0.043    29.079     8.843
    44   6 C        2.922    -0.038    28.950     8.823
    45   1 H        0.926     0.024     2.669     2.555
    46   1 H        0.926     0.037     2.490     2.467
    47   1 H        0.926     0.042     2.426     2.436
    48   1 H        0.926     0.045     2.386     2.416
    49   1 H        0.926     0.044     2.396     2.420
    50   1 H        0.926     0.045     2.381     2.413
    51   1 H        0.926     0.043     2.406     2.426
    52   1 H        0.926     0.045     2.387     2.416
    53   1 H        0.926     0.046     2.372     2.408
    54   1 H        0.926     0.044     2.400     2.423
    55   1 H        0.926     0.043     2.411     2.428
    56   1 H        0.926     0.040     2.455     2.450
    57   1 H        0.926     0.043     2.415     2.430
    58   1 H        0.926     0.039     2.456     2.450
    59   1 H        0.926     0.024     2.669     2.555
    60   1 H        0.926     0.037     2.490     2.468
    61   1 H        0.926     0.042     2.426     2.435
    62   1 H        0.926     0.045     2.386     2.416
    63   1 H        0.926     0.044     2.396     2.420
    64   1 H        0.926     0.045     2.381     2.413
    65   1 H        0.926     0.043     2.406     2.426
    66   1 H        0.926     0.045     2.387     2.416
    67   1 H        0.926     0.046     2.372     2.408
    68   1 H        0.926     0.044     2.400     2.423
    69   1 H        0.926     0.043     2.411     2.428
    70   1 H        0.926     0.040     2.454     2.450
    71   1 H        0.926     0.042     2.416     2.431
    72   1 H        0.926     0.039     2.456     2.451

molecular dipole:
                 x           y           z       tot (Debye)
 q only:       -0.013      -6.129       0.033
   full:       -0.014      -6.308       0.035      16.034

 projected vibrational frequencies (cm⁻¹)
eigval :       -0.00    -0.00    -0.00    -0.00     0.00     0.00
eigval :       12.32    13.60    16.79    21.31    34.58    35.58
eigval :       41.17    45.06    53.22    59.93    62.40    69.69
eigval :       74.85    77.71    83.10    92.35   107.33   116.37
eigval :      142.68   163.76   166.76   177.52   188.52   213.76
eigval :      215.38   232.87   234.50   243.65   264.77   300.80
eigval :      306.37   310.36   322.44   332.42   366.31   376.24
eigval :      376.61   378.40   382.15   388.56   390.10   393.37
eigval :      394.21   404.31   415.62   418.20   445.61   452.52
eigval :      479.39   488.13   491.66   504.32   516.49   517.00
eigval :      564.57   578.88   579.15   582.19   583.83   587.82
eigval :      590.49   593.16   597.90   608.50   612.81   635.59
eigval :      658.18   658.31   662.14   664.77   671.80   675.47
eigval :      701.58   724.40   755.50   755.54   757.89   758.88
eigval :      806.41   811.27   845.22   856.17   867.96   868.06
eigval :      868.50   870.42   884.84   892.68   894.96   895.03
eigval :      898.12   900.02   906.93   908.28   909.41   914.92
eigval :      917.55   925.69   925.71   926.52   926.79   927.19
eigval :      928.46   928.68   931.94   932.54   932.93   940.44
eigval :      981.57   983.57  1000.75  1000.82  1011.52  1016.51
eigval :     1078.80  1079.00  1080.00  1080.07  1119.98  1120.15
eigval :     1122.98  1123.10  1143.89  1146.67  1166.99  1176.95
eigval :     1177.13  1178.15  1178.18  1179.65  1188.89  1190.07
eigval :     1190.97  1193.88  1206.99  1214.45  1227.80  1253.54
eigval :     1267.98  1270.11  1272.71  1273.19  1276.23  1276.81
eigval :     1293.87  1297.86  1301.89  1312.54  1314.68  1316.43
eigval :     1323.01  1324.39  1324.55  1329.56  1330.05  1367.64
eigval :     1421.99  1426.71  1430.25  1433.70  1436.59  1437.36
eigval :     1448.34  1454.02  1454.12  1456.85  1456.92  1463.49
eigval :     1493.57  1497.18  1549.20  1563.33  1563.35  1567.24
eigval :     1567.38  1577.12  1577.17  1581.37  1583.93  1589.68
eigval :     2222.84  2299.50  3076.48  3076.87  3077.99  3078.79
eigval :     3080.44  3080.50  3080.97  3081.04  3081.24  3081.29
eigval :     3081.80  3081.86  3087.93  3088.30  3088.86  3089.12
eigval :     3089.45  3089.52  3090.40  3091.89  3092.07  3092.09
eigval :     3093.00  3093.06  3099.73  3100.18  3100.28  3100.74

   temp. (K)  partition function   enthalpy   heat capacity  entropy
                                   cal/mol     cal/K/mol   cal/K/mol   J/K/mol
 298.15  VIB  0.328E+18            21741.244    133.324    137.202
         ROT  0.393E+08              888.752      2.981     37.733
         INT  0.129E+26            22629.997    136.305    174.935
         TR   0.130E+29             1481.254      4.968     44.858
         TOT                       24111.2505   141.2732   219.7925   919.6119

       T/K    H(0)-H(T)+PV         H(T)/Eh          T*S/Eh         G(T)/Eh
   ------------------------------------------------------------------------
    298.15    0.384237E-01    0.585644E+00    0.104431E+00    0.481213E+00
   ------------------------------------------------------------------------

         :::::::::::::::::::::::::::::::::::::::::::::::::::::
         ::                  THERMODYNAMIC                  ::
         :::::::::::::::::::::::::::::::::::::::::::::::::::::
         :: total free energy        -111.045113725171 Eh   ::
         ::.................................................::
         :: total energy             -111.526326727448 Eh   ::
         :: zero point energy           0.547219801176 Eh   ::
         :: G(RRHO) w/o ZPVE           -0.066006798899 Eh   ::
         :: G(RRHO) contrib.            0.481213002277 Eh   ::
         :::::::::::::::::::::::::::::::::::::::::::::::::::::

           -------------------------------------------------
          | TOTAL ENERGY             -111.526326727448 Eh   |
          | TOTAL ENTHALPY           -110.940683202866 Eh   |
          | TOTAL FREE ENERGY        -111.045113725171 Eh   |
          | GRADIENT NORM               0.000071384132 Eh/α |
          | HOMO-LUMO GAP               1.434896386713 eV   |
           -------------------------------------------------

 * finished run on 2025/09/14 at 08:11:50.320
