   * xtb version 6.7.1 (edcfbbe) compiled by 'albert@albert-system' on 2024-07-22

   ID    Z sym.   atoms
    1    7 N      1, 5, 11, 30
    2    6 C      2-4, 6-10, 12-29, 31-44
    3    1 H      45-72

          program call               : xtb data2507/toluene/4-DPM/4-DPM.xyz --gfn 2 --gbsa toluene --ohess vtight --parallel 40 --molden --ceasefiles --namespace data2507/toluene/4-DPM/4-DPM_toluene_S0_preOpt
      * Solvation model:               GBSA
        Solvent                        toluene
        Solvent mass                       9.2140E+01 g/mol
          :  Hamiltonian                  GFN2-xTB          :
 * total energy  :  -111.5532654 Eh     change       -0.1323002E-08 Eh
 * total energy  :  -111.5663674 Eh     change       -0.1310202E-01 Eh
 * total energy  :  -111.5715140 Eh     change       -0.5146570E-02 Eh
 * total energy  :  -111.5715136 Eh     change        0.4442771E-06 Eh
 * total energy  :  -111.5735574 Eh     change       -0.2043868E-02 Eh
 * total energy  :  -111.5736638 Eh     change       -0.1063851E-03 Eh
 * total energy  :  -111.5744873 Eh     change       -0.8235073E-03 Eh
 * total energy  :  -111.5749551 Eh     change       -0.4678134E-03 Eh
 * total energy  :  -111.5754919 Eh     change       -0.5368023E-03 Eh
 * total energy  :  -111.5761823 Eh     change       -0.6903763E-03 Eh
 * total energy  :  -111.5868442 Eh     change       -0.2730705E-05 Eh
 * total energy  :  -111.5868469 Eh     change       -0.2666160E-05 Eh
 * total energy  :  -111.5868493 Eh     change       -0.2398416E-05 Eh
 * total energy  :  -111.5868513 Eh     change       -0.2065578E-05 Eh
 * total energy  :  -111.5868530 Eh     change       -0.1634544E-05 Eh
 * total energy  :  -111.5868542 Eh     change       -0.1233515E-05 Eh
 * total energy  :  -111.5868551 Eh     change       -0.9082417E-06 Eh
 * total energy  :  -111.5868559 Eh     change       -0.7299806E-06 Eh
 * total energy  :  -111.5868559 Eh     change       -0.4090509E-08 Eh
   *** GEOMETRY OPTIMIZATION CONVERGED AFTER 152 ITERATIONS ***

 final structure:
================
72
 xtb: 6.7.1 (edcfbbe)
N            1.94145319574445        4.40286074035228        3.29307603138290
C            1.04774725395456        3.76773443987543        2.94439238240390
C           -0.09723367026164        3.07142184374496        2.51689708848270
C           -1.27238905437642        3.56690055427466        3.10975884150490
N           -2.18926053103969        3.98490841057368        3.66531205453157
C           -0.06274305167695        2.02068157512469        1.62418046003861
C            1.20660783277584        1.42915842344199        1.22699736272096
C            1.41018026519066        1.02607984517537       -0.09868588928601
C            2.60655066611162        0.47993579681714       -0.49829623418959
C            3.64587595171180        0.28540680762370        0.42107104077073
N            4.84549682470545       -0.28051508700409        0.02650328068421
C            5.34303442377065       -0.08002278153349       -1.27295837355938
C            5.24212260871660        1.16824139841739       -1.88524533436661
C            5.74620477328425        1.35909654412468       -3.15795417516538
C            6.36334778057306        0.31709919402792       -3.83145200603678
C            6.47085679740388       -0.92331167233613       -3.22333363364277
C            5.96292559431879       -1.12617677236011       -1.95399403508893
C            5.59970261511052       -1.05691852884576        0.92475166550778
C            4.96954200030081       -1.97348974111888        1.76488469796688
C            5.71591803526358       -2.74240796676078        2.63753532364255
C            7.09521377279107       -2.61601791429216        2.67843705459127
C            7.72564562810030       -1.71157446990489        1.83916516949458
C            6.98672805176930       -0.93235723763310        0.96869559225430
C            3.43695740771495        0.66813232622071        1.75207295428908
C            2.24763013529864        1.23806052475961        2.14154339612918
C           -1.28436657374034        1.47093297936945        1.06688725520970
C           -2.39115133052509        2.27529075594115        0.76780162714638
C           -3.54755338395550        1.73174638693431        0.26341900983718
C           -3.65805458396658        0.35104464675250        0.04686169331265
N           -4.82969998733126       -0.19805304328170       -0.43498193577055
C           -6.07185423360865        0.40147539377193       -0.15698895205386
C           -6.34073062474781        0.92024215390888        1.10854751384239
C           -7.56633608972189        1.50195104642954        1.37289420028188
C           -8.53945715077641        1.56481854749097        0.38838810363206
C           -8.27887499545882        1.04118254011684       -0.86771745770061
C           -7.05334737139572        0.46490237921842       -1.14416710079140
C           -4.81037901656025       -1.37302327240600       -1.20897215047424
C           -5.77163938344100       -2.36095221097528       -1.00546670580784
C           -5.76401210610612       -3.50567061005602       -1.78032444933891
C           -4.79915751038851       -3.68342915003591       -2.75885166183851
C           -3.84157895029526       -2.70306799589354       -2.96362424590899
C           -3.84554253496548       -1.55183153190625       -2.19874615175820
C           -2.54622420193285       -0.45510221873474        0.32941783902461
C           -1.38664443013632        0.09487823810350        0.81826276488474
H            0.61971134165764        1.16739186794150       -0.82100790522047
H            2.74598007168078        0.18496621797237       -1.52740935972492
H            4.77462160463815        1.98542667695405       -1.35511844597728
H            5.66549942269619        2.33144012335286       -3.62149452038003
H            6.75994576260762        0.47191120658353       -4.82350175151609
H            6.94863297298469       -1.74101172922765       -3.74262640653410
H            6.04346997052804       -2.09426340539274       -1.48155763418568
H            3.89525535516825       -2.08036156783893        1.72492457298863
H            5.21737858898385       -3.45041682050924        3.28330984564258
H            7.67540757696450       -3.22051598170513        3.35915532415220
H            8.80010642130931       -1.60535304664663        1.86744396062853
H            7.47797594293237       -0.22228029235934        0.31967766806282
H            4.22332790731639        0.52516725992720        2.47759285123105
H            2.11041186446400        1.51405176697164        3.17695979790554
H           -2.32366182607257        3.34623254838650        0.89132947088223
H           -4.37809979454776        2.37608446015149        0.01798963740329
H           -5.58735923544897        0.86345069035290        1.88097736479377
H           -7.76314806306158        1.90149338345332        2.35684721307278
H           -9.49622845851473        2.01782692630964        0.59999755945727
H           -9.03163988344031        1.08810988305253       -1.64075332121423
H           -6.84817671013680        0.06267926278109       -2.12543505862154
H           -6.52011160097336       -2.22472321990739       -0.23871436941091
H           -6.51231471018314       -4.26632758907276       -1.61340041405220
H           -4.79525568364158       -4.57973831919288       -3.36058476983260
H           -3.09114185938420       -2.83040693542403       -3.72996678339438
H           -3.10734334543673       -0.78148646194975       -2.36757496467660
H           -2.61244976066808       -1.52206578320935        0.17923724722575
H           -0.55230672070973       -0.54754040924847        1.05771028054815

          :  Hamiltonian                  GFN2-xTB          :
         :: gradient norm              0.000068494420 Eh/a0 ::
         :: HOMO-LUMO gap              1.481792227402 eV    ::
         :: SCC energy              -113.751981372979 Eh    ::
         :: -> dispersion             -0.098341741234 Eh    ::
         :: -> Gsolv                  -0.055518405930 Eh    ::
         :: repulsion energy           2.165125514681 Eh    ::

    * Orbital Energies and Occupations

         #    Occupation            Energy/Eh            Energy/eV
      -------------------------------------------------------------
         1        2.0000           -0.6765383             -18.4095
       ...           ...                  ...                  ...
        92        2.0000           -0.4240568             -11.5392
        93        2.0000           -0.4215675             -11.4714
        94        2.0000           -0.4198529             -11.4248
        95        2.0000           -0.4161685             -11.3245
        96        2.0000           -0.4148269             -11.2880
        97        2.0000           -0.4140553             -11.2670
        98        2.0000           -0.4122696             -11.2184
        99        2.0000           -0.4114445             -11.1960
       100        2.0000           -0.4108492             -11.1798
       101        2.0000           -0.4101328             -11.1603
       102        2.0000           -0.4022285             -10.9452
       103        2.0000           -0.3616442              -9.8408
       104        2.0000           -0.3597847              -9.7902 (HOMO)
       105                         -0.3053299              -8.3084 (LUMO)
       106                         -0.2460813              -6.6962
       107                         -0.2408513              -6.5539
       108                         -0.2373082              -6.4575
       109                         -0.2366682              -6.4401
       110                         -0.2358157              -6.4169
       111                         -0.2322137              -6.3189
       112                         -0.2304341              -6.2704
       113                         -0.2294940              -6.2448
       114                         -0.2282153              -6.2101
       115                         -0.2276163              -6.1938
       ...                                ...                  ...
       204                          1.1598277              31.5605
      -------------------------------------------------------------
                  HL-Gap            0.0544548 Eh            1.4818 eV

     #   Z          covCN         q      C6AA      α(0)
     1   7 N        0.911    -0.298    27.680     7.609
     2   6 C        1.936     0.124    28.046     8.552
     3   6 C        2.955    -0.016    28.406     8.742
     4   6 C        1.935     0.124    28.048     8.553
     5   7 N        0.911    -0.299    27.695     7.611
     6   6 C        2.974     0.035    27.204     8.556
     7   6 C        2.978    -0.001    28.055     8.688
     8   6 C        2.923    -0.027    28.678     8.782
     9   6 C        2.919    -0.048    29.204     8.862
    10   6 C        2.922     0.073    26.371     8.421
    11   7 N        2.752    -0.064    22.483     7.042
    12   6 C        2.925     0.063    26.584     8.455
    13   6 C        2.921    -0.045    29.121     8.849
    14   6 C        2.919    -0.028    28.708     8.786
    15   6 C        2.919    -0.035    28.881     8.813
    16   6 C        2.919    -0.028    28.706     8.786
    17   6 C        2.922    -0.045    29.110     8.848
    18   6 C        2.925     0.063    26.587     8.456
    19   6 C        2.922    -0.045    29.123     8.850
    20   6 C        2.919    -0.029    28.714     8.787
    21   6 C        2.919    -0.035    28.877     8.812
    22   6 C        2.919    -0.028    28.702     8.785
    23   6 C        2.922    -0.044    29.100     8.846
    24   6 C        2.920    -0.047    29.167     8.856
    25   6 C        2.921    -0.026    28.644     8.777
    26   6 C        2.977    -0.002    28.061     8.689
    27   6 C        2.921    -0.025    28.640     8.776
    28   6 C        2.920    -0.047    29.168     8.857
    29   6 C        2.922     0.073    26.363     8.420
    30   7 N        2.752    -0.060    22.410     7.031
    31   6 C        2.926     0.063    26.598     8.458
    32   6 C        2.921    -0.044    29.094     8.845
    33   6 C        2.919    -0.028    28.695     8.784
    34   6 C        2.919    -0.034    28.858     8.809
    35   6 C        2.919    -0.028    28.703     8.786
    36   6 C        2.922    -0.044    29.101     8.846
    37   6 C        2.926     0.063    26.595     8.457
    38   6 C        2.922    -0.044    29.085     8.844
    39   6 C        2.919    -0.028    28.694     8.784
    40   6 C        2.919    -0.035    28.862     8.810
    41   6 C        2.919    -0.028    28.705     8.786
    42   6 C        2.922    -0.045    29.109     8.848
    43   6 C        2.919    -0.049    29.215     8.864
    44   6 C        2.923    -0.027    28.668     8.780
    45   1 H        0.926     0.044     2.397     2.421
    46   1 H        0.926     0.045     2.381     2.413
    47   1 H        0.926     0.034     2.530     2.488
    48   1 H        0.926     0.037     2.483     2.464
    49   1 H        0.926     0.037     2.489     2.467
    50   1 H        0.926     0.039     2.466     2.456
    51   1 H        0.926     0.037     2.493     2.469
    52   1 H        0.926     0.035     2.514     2.480
    53   1 H        0.926     0.038     2.475     2.460
    54   1 H        0.926     0.037     2.488     2.467
    55   1 H        0.926     0.038     2.469     2.457
    56   1 H        0.926     0.036     2.501     2.473
    57   1 H        0.926     0.042     2.427     2.436
    58   1 H        0.926     0.032     2.552     2.498
    59   1 H        0.926     0.034     2.534     2.489
    60   1 H        0.926     0.043     2.413     2.429
    61   1 H        0.926     0.035     2.519     2.482
    62   1 H        0.926     0.038     2.473     2.459
    63   1 H        0.926     0.038     2.478     2.462
    64   1 H        0.926     0.040     2.454     2.450
    65   1 H        0.926     0.038     2.480     2.462
    66   1 H        0.926     0.037     2.493     2.469
    67   1 H        0.926     0.039     2.461     2.453
    68   1 H        0.926     0.038     2.475     2.460
    69   1 H        0.926     0.040     2.455     2.450
    70   1 H        0.926     0.037     2.491     2.468
    71   1 H        0.926     0.046     2.374     2.409
    72   1 H        0.926     0.045     2.389     2.417

molecular dipole:
                 x           y           z       tot (Debye)
 q only:       -0.112      -3.232      -2.708
   full:       -0.101      -3.445      -2.884      11.422

 projected vibrational frequencies (cm⁻¹)
eigval :       -0.00     0.00     0.00     0.00     0.00     0.00
eigval :        8.74    11.98    13.30    23.83    34.05    35.23
eigval :       42.99    45.72    55.02    56.99    61.50    63.02
eigval :       69.96    73.46    78.37    91.14   107.25   118.88
eigval :      136.99   160.66   164.35   178.33   193.72   205.34
eigval :      217.45   234.24   235.43   237.27   269.94   279.05
eigval :      307.73   308.34   331.63   340.46   359.93   375.95
eigval :      376.95   378.28   379.57   383.71   387.78   392.86
eigval :      403.54   410.98   428.00   437.30   445.10   470.92
eigval :      489.33   492.72   498.24   501.54   515.39   553.93
eigval :      580.68   581.75   584.23   584.91   587.25   592.43
eigval :      593.03   598.79   605.63   610.99   634.41   635.89
eigval :      660.77   661.25   666.09   668.36   681.08   693.32
eigval :      706.03   727.95   758.35   758.58   760.82   762.06
eigval :      818.40   820.53   863.21   867.17   873.94   875.27
eigval :      875.58   875.64   888.01   894.10   897.20   897.36
eigval :      899.17   901.28   909.04   909.19   918.76   920.70
eigval :      925.86   926.54   927.54   928.11   928.49   929.02
eigval :      929.85   930.81   932.05   933.34   937.46   950.59
eigval :      985.42   989.28  1004.22  1004.44  1018.49  1028.95
eigval :     1080.15  1080.84  1081.51  1082.41  1118.28  1119.40
eigval :     1121.02  1121.41  1148.06  1148.77  1176.84  1177.99
eigval :     1178.30  1178.75  1182.07  1183.18  1190.88  1192.20
eigval :     1193.83  1196.49  1207.31  1211.05  1219.01  1231.15
eigval :     1269.71  1271.24  1274.75  1275.76  1278.93  1280.15
eigval :     1297.93  1300.59  1311.96  1314.53  1316.44  1322.08
eigval :     1322.36  1329.27  1332.04  1335.58  1337.37  1418.29
eigval :     1421.62  1433.90  1433.97  1438.31  1438.93  1465.45
eigval :     1466.71  1468.80  1469.68  1472.52  1486.65  1498.29
eigval :     1532.76  1537.87  1574.73  1577.12  1577.16  1580.86
eigval :     1581.70  1589.45  1590.04  1590.23  1595.77  1598.75
eigval :     2313.78  2344.84  3074.46  3074.84  3075.56  3075.97
eigval :     3076.43  3076.54  3077.16  3077.25  3080.32  3081.88
eigval :     3082.64  3083.98  3084.19  3084.46  3084.69  3085.26
eigval :     3086.92  3087.65  3088.13  3088.68  3095.59  3096.24
eigval :     3096.39  3096.56  3096.75  3096.81  3097.95  3098.53

   temp. (K)  partition function   enthalpy   heat capacity  entropy
                                   cal/mol     cal/K/mol   cal/K/mol   J/K/mol
 298.15  VIB  0.708E+18            21669.836    132.298    137.724
         ROT  0.801E+08              888.752      2.981     39.146
         INT  0.567E+26            22558.589    135.279    176.870
         TR   0.130E+29             1481.254      4.968     44.858
         TOT                       24039.8427   140.2468   221.7273   927.7072

       T/K    H(0)-H(T)+PV         H(T)/Eh          T*S/Eh         G(T)/Eh
   ------------------------------------------------------------------------
    298.15    0.383099E-01    0.587748E+00    0.105350E+00    0.482399E+00
   ------------------------------------------------------------------------

         :::::::::::::::::::::::::::::::::::::::::::::::::::::
         ::                  THERMODYNAMIC                  ::
         :::::::::::::::::::::::::::::::::::::::::::::::::::::
         :: total free energy        -111.104457192911 Eh   ::
         ::.................................................::
         :: total energy             -111.586855860925 Eh   ::
         :: zero point energy           0.549438552517 Eh   ::
         :: G(RRHO) w/o ZPVE           -0.067039884502 Eh   ::
         :: G(RRHO) contrib.            0.482398668015 Eh   ::
         :::::::::::::::::::::::::::::::::::::::::::::::::::::

           -------------------------------------------------
          | TOTAL ENERGY             -111.586855860925 Eh   |
          | TOTAL ENTHALPY           -110.999107380562 Eh   |
          | TOTAL FREE ENERGY        -111.104457192911 Eh   |
          | GRADIENT NORM               0.000068439231 Eh/α |
          | HOMO-LUMO GAP               1.481791008581 eV   |
           -------------------------------------------------

 * finished run on 2025/09/14 at 08:05:09.229
