   * xtb version 6.7.1 (edcfbbe) compiled by 'albert@albert-system' on 2024-07-22

   ID    Z sym.   atoms
    1    7 N      1, 5, 11, 30
    2    6 C      2-4, 6-10, 12-29, 31-44
    3    1 H      45-72

          program call               : xtb data2507/toluene/4-DPM/4-DPM_toluene_T1_crest.xyz --gfn 2 --uhf 2 --gbsa toluene --ohess vtight --parallel 40 --molden --ceasefiles --namespace data2507/toluene/4-DPM/4-DPM_toluene_T1_finalOpt
      * Solvation model:               GBSA
        Solvent                        toluene
        Solvent mass                       9.2140E+01 g/mol
          :  Hamiltonian                  GFN2-xTB          :
 * total energy  :  -111.5261776 Eh     change       -0.5108035E-08 Eh
 * total energy  :  -111.5262552 Eh     change       -0.7763721E-04 Eh
 * total energy  :  -111.5262858 Eh     change       -0.3058971E-04 Eh
 * total energy  :  -111.5262956 Eh     change       -0.9861097E-05 Eh
 * total energy  :  -111.5262980 Eh     change       -0.2385808E-05 Eh
 * total energy  :  -111.5263048 Eh     change       -0.6727555E-05 Eh
 * total energy  :  -111.5263076 Eh     change       -0.2830690E-05 Eh
 * total energy  :  -111.5263085 Eh     change       -0.8776561E-06 Eh
 * total energy  :  -111.5263113 Eh     change       -0.2876154E-05 Eh
 * total energy  :  -111.5263125 Eh     change       -0.1190267E-05 Eh
 * total energy  :  -111.5263146 Eh     change       -0.3587850E-06 Eh
 * total energy  :  -111.5263151 Eh     change       -0.5260815E-06 Eh
 * total energy  :  -111.5263159 Eh     change       -0.7308898E-06 Eh
 * total energy  :  -111.5263165 Eh     change       -0.6300941E-06 Eh
 * total energy  :  -111.5263169 Eh     change       -0.3951014E-06 Eh
 * total energy  :  -111.5263172 Eh     change       -0.2675346E-06 Eh
 * total energy  :  -111.5263174 Eh     change       -0.2506693E-06 Eh
 * total energy  :  -111.5263177 Eh     change       -0.3198857E-06 Eh
 * total energy  :  -111.5263177 Eh     change       -0.2351854E-08 Eh
   *** GEOMETRY OPTIMIZATION CONVERGED AFTER 22 ITERATIONS ***

 final structure:
================
72
 xtb: 6.7.1 (edcfbbe)
N            1.97537810346410        4.99016274510485       -0.66194414027121
C            1.09361551870396        4.31578118689035       -0.33182284012408
C           -0.00226108071774        3.54860427854001        0.03705652777022
C           -1.10659823895248        4.29996870353865        0.41397975803070
N           -1.99734854679292        4.95883356038026        0.75094066886711
C            0.00119316698475        2.11148561550677        0.02955972054643
C            1.24844692833694        1.40613479436524        0.07918146575220
C            2.38920702281317        1.94043243706960        0.71472045028866
C            3.58929321870468        1.27635652944992        0.71214657162616
C            3.71998565177821        0.03545087163303        0.07393187565067
N            4.94496953159110       -0.62892087614545        0.05257415143094
C            4.98492131631484       -2.02250976691124        0.13947090971334
C            4.07852062599668       -2.70494166504576        0.95510351171604
C            4.12179184555833       -4.08255573707129        1.03868239601095
C            5.06342157798881       -4.80058376674526        0.31689437980268
C            5.96402007943255       -4.12826024697314       -0.49574458607376
C            5.92900968736978       -2.75103780757650       -0.58896049884213
C            6.13095807012475        0.10052329648524       -0.06208288108401
C            7.28028221418174       -0.30778415314278        0.61998198630517
C            8.44965676060484        0.41714603329687        0.50397304567898
C            8.49422135153985        1.55583349290084       -0.28643065430416
C            7.35550780761425        1.96712490089843       -0.96292222390474
C            6.18113426576332        1.24859524618497       -0.85718196700411
C            2.59225506142180       -0.51753376149269       -0.55054047535656
C            1.39373101155283        0.14667413075128       -0.54413857005799
C           -1.24846005936121        1.40755314884539       -0.02996594186899
C           -2.37628641210211        1.93851809741858       -0.68933534607927
C           -3.57630756094759        1.27410702456960       -0.70598131093976
C           -3.71957863023328        0.03836594619088       -0.06073186469114
N           -4.94345997959745       -0.62831255613319       -0.06353543426029
C           -4.97867922816050       -2.02298505617147       -0.13565445674578
C           -4.04898557119509       -2.71305692038574       -0.91789249713490
C           -4.08700676710336       -4.09169480884856       -0.98587815059530
C           -5.04717821464610       -4.80318299774866       -0.28230579258984
C           -5.97168637397460       -4.12318607268352        0.49633792848974
C           -5.94172357485729       -2.74487069981245        0.57427495229888
C           -6.13393953155066        0.09957462403676        0.00888146104816
C           -7.26219940463771       -0.31911799576565       -0.70141592076828
C           -8.43595753367545        0.40425365349662       -0.62740227159772
C           -8.50576954309482        1.55170885083702        0.14831473622592
C           -7.38788514309045        1.97335424159520        0.85258186494808
C           -6.20953680355309        1.25629266198829        0.78917429707393
C           -2.60548584576994       -0.50814138943781        0.59283609831987
C           -1.40612619970960        0.15525173047721        0.60282260884850
H            2.31207501848508        2.87868664781612        1.24409526209365
H            4.43904308810674        1.70180363433155        1.22570124875246
H            3.35727027431535       -2.14367860030043        1.53038699549640
H            3.42170443915462       -4.59869119610707        1.67863719851985
H            5.09517105483088       -5.87714105099894        0.38688320713978
H            6.69419221897665       -4.68136422326548       -1.06741405061220
H            6.61986707664582       -2.22915785944620       -1.23429095233639
H            7.24143122765757       -1.18414528445449        1.24983965152774
H            9.33008402732322        0.09662149179610        1.04072598852110
H            9.40969212489945        2.12077273857535       -0.37343882871383
H            7.38265211544091        2.85024054358781       -1.58375103203050
H            5.29909201510807        1.56320898881342       -1.39545233944386
H            2.68429351828962       -1.46052381180130       -1.06939082358934
H            0.55023082641477       -0.27385944598759       -1.07108184859012
H           -2.28835889752115        2.87313523454198       -1.22364744777711
H           -4.41529793209111        1.69515117261097       -1.24036737180571
H           -3.31299385115797       -2.15726458570380       -1.47964052590365
H           -3.36818426213930       -4.61378588104922       -1.59968675094911
H           -5.07468961173351       -5.88057997465680       -0.34002314821320
H           -6.71688254355853       -4.67098639854571        1.05355172502992
H           -6.65149200292432       -2.21698320695155        1.19366671947069
H           -7.20350997881791       -1.20246461736432       -1.31987624418188
H           -9.29975260562111        0.07563804588196       -1.18587967508878
H           -9.42447370287299        2.11558057961723        0.20206570017605
H           -7.43459081362182        2.86347173098553        1.46211374664613
H           -5.34417262716292        1.57928856643072        1.34913212588075
H           -2.70817528514397       -1.44577113271742        1.11932563412345
H           -0.57265174470044       -0.26078997179971        1.14905865770850

          :  Hamiltonian                  GFN2-xTB          :
         :: gradient norm              0.000067386220 Eh/a0 ::
         :: HOMO-LUMO gap              1.436576606111 eV    ::
         :: SCC energy              -113.673966569807 Eh    ::
         :: -> dispersion             -0.098596075121 Eh    ::
         :: -> Gsolv                  -0.063413827381 Eh    ::
         :: repulsion energy           2.147648828648 Eh    ::

    * Orbital Energies and Occupations

         #    Occupation            Energy/Eh            Energy/eV
      -------------------------------------------------------------
         1        2.0000           -0.6819946             -18.5580
       ...           ...                  ...                  ...
        93        2.0000           -0.4194141             -11.4128
        94        2.0000           -0.4188817             -11.3984
        95        2.0000           -0.4184140             -11.3856
        96        2.0000           -0.4160160             -11.3204
        97        2.0000           -0.4155295             -11.3071
        98        2.0000           -0.4139645             -11.2645
        99        2.0000           -0.4127375             -11.2312
       100        2.0000           -0.4099432             -11.1551
       101        2.0000           -0.4084198             -11.1137
       102        2.0000           -0.3847928             -10.4707
       103        1.8207           -0.3638624              -9.9012
       104        1.1793           -0.3609725              -9.8226
       105        1.0000           -0.2976720              -8.1001 (HOMO)
       106                         -0.2448788              -6.6635 (LUMO)
       107                         -0.2433370              -6.6215
       108                         -0.2432800              -6.6200
       109                         -0.2377806              -6.4703
       110                         -0.2373754              -6.4593
       111                         -0.2327760              -6.3342
       112                         -0.2327051              -6.3322
       113                         -0.2302034              -6.2642
       114                         -0.2270518              -6.1784
       115                         -0.2242760              -6.1029
       116                         -0.2157642              -5.8712
       ...                                ...                  ...
       204                          1.1701741              31.8421
      -------------------------------------------------------------
                  HL-Gap            0.0527932 Eh            1.4366 eV

     #   Z          covCN         q      C6AA      α(0)
     1   7 N        0.911    -0.345    28.879     7.772
     2   6 C        1.938     0.115    28.250     8.583
     3   6 C        2.952    -0.025    28.627     8.776
     4   6 C        1.938     0.115    28.249     8.583
     5   7 N        0.911    -0.345    28.874     7.772
     6   6 C        2.969    -0.022    28.546     8.764
     7   6 C        2.971     0.009    27.812     8.650
     8   6 C        2.920    -0.035    28.876     8.812
     9   6 C        2.916    -0.041    29.014     8.833
    10   6 C        2.925     0.054    26.792     8.488
    11   7 N        2.752    -0.033    21.879     6.947
    12   6 C        2.926     0.064    26.566     8.453
    13   6 C        2.921    -0.041    29.011     8.833
    14   6 C        2.918    -0.026    28.644     8.777
    15   6 C        2.919    -0.030    28.755     8.793
    16   6 C        2.918    -0.026    28.642     8.776
    17   6 C        2.921    -0.041    29.026     8.835
    18   6 C        2.926     0.064    26.566     8.453
    19   6 C        2.921    -0.042    29.040     8.837
    20   6 C        2.918    -0.026    28.651     8.778
    21   6 C        2.919    -0.030    28.746     8.792
    22   6 C        2.918    -0.025    28.631     8.774
    23   6 C        2.921    -0.040    28.986     8.829
    24   6 C        2.916    -0.043    29.078     8.843
    25   6 C        2.922    -0.038    28.954     8.824
    26   6 C        2.972     0.009    27.810     8.650
    27   6 C        2.920    -0.035    28.864     8.810
    28   6 C        2.916    -0.041    29.018     8.833
    29   6 C        2.925     0.054    26.781     8.487
    30   7 N        2.752    -0.033    21.885     6.948
    31   6 C        2.926     0.064    26.566     8.453
    32   6 C        2.921    -0.041    29.012     8.833
    33   6 C        2.918    -0.026    28.645     8.777
    34   6 C        2.919    -0.030    28.756     8.794
    35   6 C        2.918    -0.026    28.643     8.776
    36   6 C        2.921    -0.041    29.027     8.835
    37   6 C        2.926     0.064    26.566     8.453
    38   6 C        2.921    -0.042    29.041     8.837
    39   6 C        2.918    -0.026    28.651     8.778
    40   6 C        2.919    -0.030    28.746     8.792
    41   6 C        2.918    -0.025    28.631     8.775
    42   6 C        2.921    -0.040    28.986     8.829
    43   6 C        2.916    -0.044    29.081     8.843
    44   6 C        2.922    -0.038    28.945     8.823
    45   1 H        0.926     0.024     2.669     2.555
    46   1 H        0.926     0.037     2.492     2.469
    47   1 H        0.926     0.042     2.425     2.435
    48   1 H        0.926     0.045     2.386     2.416
    49   1 H        0.926     0.044     2.396     2.420
    50   1 H        0.926     0.045     2.381     2.413
    51   1 H        0.926     0.043     2.406     2.426
    52   1 H        0.926     0.045     2.387     2.416
    53   1 H        0.926     0.046     2.371     2.408
    54   1 H        0.926     0.044     2.400     2.422
    55   1 H        0.926     0.043     2.411     2.428
    56   1 H        0.926     0.040     2.455     2.450
    57   1 H        0.926     0.042     2.417     2.431
    58   1 H        0.926     0.039     2.456     2.451
    59   1 H        0.926     0.024     2.670     2.555
    60   1 H        0.926     0.037     2.488     2.467
    61   1 H        0.926     0.042     2.425     2.435
    62   1 H        0.926     0.045     2.386     2.416
    63   1 H        0.926     0.044     2.396     2.421
    64   1 H        0.926     0.045     2.381     2.413
    65   1 H        0.926     0.043     2.407     2.426
    66   1 H        0.926     0.045     2.387     2.416
    67   1 H        0.926     0.046     2.372     2.408
    68   1 H        0.926     0.044     2.400     2.423
    69   1 H        0.926     0.043     2.411     2.428
    70   1 H        0.926     0.040     2.454     2.450
    71   1 H        0.926     0.043     2.414     2.430
    72   1 H        0.926     0.040     2.454     2.450

molecular dipole:
                 x           y           z       tot (Debye)
 q only:        0.012      -6.110      -0.057
   full:        0.015      -6.289      -0.059      15.985

 projected vibrational frequencies (cm⁻¹)
eigval :       -0.00    -0.00    -0.00     0.00     0.00     0.00
eigval :       10.87    13.29    15.71    21.03    32.69    34.45
eigval :       37.85    44.02    52.93    58.45    61.53    68.73
eigval :       74.54    76.67    81.95    91.33   107.06   116.26
eigval :      142.18   163.76   166.25   177.31   188.50   213.81
eigval :      215.24   232.37   233.86   243.43   264.50   300.58
eigval :      306.37   310.59   322.33   332.34   366.32   375.75
eigval :      376.04   377.83   381.30   387.96   389.75   393.24
eigval :      394.03   404.27   415.27   418.00   445.54   452.32
eigval :      478.86   487.70   491.11   504.42   516.86   517.27
eigval :      564.58   578.78   579.15   582.14   583.81   587.73
eigval :      590.46   593.14   597.63   608.43   612.76   635.33
eigval :      657.29   657.81   661.64   664.34   671.59   675.35
eigval :      701.40   724.38   755.08   755.28   757.50   758.57
eigval :      806.22   811.14   844.78   855.93   867.72   868.00
eigval :      868.18   870.21   884.76   892.53   894.64   895.00
eigval :      897.95   899.92   906.63   908.17   909.15   914.90
eigval :      917.37   924.83   925.73   925.92   926.42   927.35
eigval :      927.57   927.86   931.94   932.26   932.85   940.48
eigval :      981.61   983.60  1000.71  1000.81  1011.50  1016.50
eigval :     1078.67  1078.93  1079.66  1079.91  1119.83  1120.08
eigval :     1122.57  1122.93  1143.80  1146.58  1167.56  1176.92
eigval :     1177.26  1177.29  1177.59  1179.64  1188.82  1189.76
eigval :     1190.60  1193.60  1206.52  1213.86  1227.55  1253.66
eigval :     1267.92  1270.01  1272.40  1273.12  1276.11  1276.62
eigval :     1293.72  1297.82  1302.13  1312.60  1314.61  1316.36
eigval :     1322.94  1324.35  1324.49  1329.45  1330.25  1367.24
eigval :     1421.99  1426.62  1430.13  1433.63  1436.46  1437.24
eigval :     1448.32  1453.81  1454.05  1456.70  1456.76  1463.47
eigval :     1493.44  1497.35  1549.23  1563.20  1563.38  1567.16
eigval :     1567.40  1576.98  1577.06  1581.40  1583.63  1589.63
eigval :     2222.96  2299.61  3076.35  3076.95  3077.93  3078.76
eigval :     3080.30  3080.48  3080.80  3081.02  3081.10  3081.24
eigval :     3081.59  3081.87  3087.80  3088.37  3088.82  3089.22
eigval :     3089.37  3089.56  3090.33  3091.82  3091.93  3092.11
eigval :     3092.91  3093.05  3099.69  3100.06  3100.23  3100.53

   temp. (K)  partition function   enthalpy   heat capacity  entropy
                                   cal/mol     cal/K/mol   cal/K/mol   J/K/mol
 298.15  VIB  0.542E+18            21773.879    133.156    137.614
         ROT  0.787E+08              888.752      2.981     39.113
         INT  0.427E+26            22662.632    136.137    176.727
         TR   0.130E+29             1481.254      4.968     44.858
         TOT                       24143.8857   141.1054   221.5846   927.1098

       T/K    H(0)-H(T)+PV         H(T)/Eh          T*S/Eh         G(T)/Eh
   ------------------------------------------------------------------------
    298.15    0.384757E-01    0.585586E+00    0.105282E+00    0.480304E+00
   ------------------------------------------------------------------------

         :::::::::::::::::::::::::::::::::::::::::::::::::::::
         ::                  THERMODYNAMIC                  ::
         :::::::::::::::::::::::::::::::::::::::::::::::::::::
         :: total free energy        -111.046014185974 Eh   ::
         ::.................................................::
         :: total energy             -111.526317742375 Eh   ::
         :: zero point energy           0.547109802351 Eh   ::
         :: G(RRHO) w/o ZPVE           -0.066806245951 Eh   ::
         :: G(RRHO) contrib.            0.480303556401 Eh   ::
         :::::::::::::::::::::::::::::::::::::::::::::::::::::

           -------------------------------------------------
          | TOTAL ENERGY             -111.526317742375 Eh   |
          | TOTAL ENTHALPY           -110.940732209004 Eh   |
          | TOTAL FREE ENERGY        -111.046014185974 Eh   |
          | GRADIENT NORM               0.000067138678 Eh/α |
          | HOMO-LUMO GAP               1.436577404554 eV   |
           -------------------------------------------------

 * finished run on 2025/09/14 at 08:19:26.078
