   * xtb version 6.7.1 (edcfbbe) compiled by 'albert@albert-system' on 2024-07-22

   ID    Z sym.   atoms
    1    6 C      1-28, 30-43, 45-61
    2    7 N      29, 44
    3    1 H      62-99

          program call               : xtb data2507/toluene/PIAnTPh/PIAnTPh_toluene_S0_crest.xyz --gfn 2 --gbsa toluene --ohess vtight --parallel 40 --molden --ceasefiles --namespace data2507/toluene/PIAnTPh/PIAnTPh_toluene_S0_finalOpt
      * Solvation model:               GBSA
        Solvent                        toluene
        Solvent mass                       9.2140E+01 g/mol
          :  Hamiltonian                  GFN2-xTB          :
 * total energy  :  -151.6745201 Eh     change       -0.1918409E-08 Eh
 * total energy  :  -151.6745706 Eh     change       -0.5051581E-04 Eh
 * total energy  :  -151.6746038 Eh     change       -0.3318642E-04 Eh
 * total energy  :  -151.6746209 Eh     change       -0.1711950E-04 Eh
 * total energy  :  -151.6746362 Eh     change       -0.1528337E-04 Eh
 * total energy  :  -151.6746454 Eh     change       -0.9218207E-05 Eh
 * total energy  :  -151.6746514 Eh     change       -0.5983750E-05 Eh
 * total energy  :  -151.6746563 Eh     change       -0.4896469E-05 Eh
 * total energy  :  -151.6746599 Eh     change       -0.3583880E-05 Eh
 * total energy  :  -151.6746617 Eh     change       -0.1805678E-05 Eh
 * total energy  :  -151.6746665 Eh     change       -0.1086875E-05 Eh
 * total energy  :  -151.6746674 Eh     change       -0.9105682E-06 Eh
 * total energy  :  -151.6746681 Eh     change       -0.7050102E-06 Eh
 * total energy  :  -151.6746687 Eh     change       -0.5778494E-06 Eh
 * total energy  :  -151.6746692 Eh     change       -0.4956168E-06 Eh
 * total energy  :  -151.6746696 Eh     change       -0.4076141E-06 Eh
 * total energy  :  -151.6746700 Eh     change       -0.4112729E-06 Eh
 * total energy  :  -151.6746704 Eh     change       -0.4551267E-06 Eh
 * total energy  :  -151.6746704 Eh     change       -0.9560551E-08 Eh
   *** GEOMETRY OPTIMIZATION CONVERGED AFTER 22 ITERATIONS ***

 final structure:
================
99
 xtb: 6.7.1 (edcfbbe)
C           -9.49138678795440       -1.73615530733219        4.55919057298383
C           -8.39685822340205       -2.46023661140174        4.11596370051820
C           -7.70223405762474       -2.05361417468629        2.99149084077101
C           -8.09447203760853       -0.91712058953501        2.28740737771892
C           -7.36060639939512       -0.48922065098596        1.08511786187957
C           -8.04622864829059       -0.03589116827034       -0.03750913446512
C           -7.36515710719541        0.35927301109413       -1.18447940697921
C           -8.10299888846018        0.83362160937785       -2.36683952212720
C           -9.19772855286894        1.68391800741880       -2.22696499802395
C           -9.88925617581778        2.13137575301483       -3.33775622431541
C           -9.50096001588890        1.73431546972245       -4.60673752482065
C           -8.41465118792091        0.88814627406215       -4.75754581703465
C           -7.71933116674797        0.44335811636888       -3.64801444704935
C           -5.97470597341524        0.29937574968965       -1.19791751753967
C           -5.27280047562587       -0.14698079724693       -0.08502150836875
C           -3.79471362783441       -0.20636252019705       -0.10530692102580
C           -3.14943385925752       -1.45146411166497       -0.11299768091946
C           -3.87786450922773       -2.67032572402497       -0.14830987130559
C           -3.24357587764023       -3.87411487168725       -0.12182793977440
C           -1.83702482897186       -3.93422208387887       -0.05091354699560
C           -1.10054282799282       -2.78970369788229       -0.04252752940269
C           -1.72079177386746       -1.51311671223828       -0.09830725654512
C           -0.97200991269968       -0.32725331724592       -0.11879263953543
C            0.50449638749592       -0.38646787484682       -0.11781484457744
C            1.19894129484246       -0.88944338369046       -1.21591587793997
C            2.57842596813940       -0.92095940305866       -1.22008499758790
C            3.30129655801038       -0.44320953684029       -0.12692369147586
C            4.75520744976737       -0.47870049525901       -0.18148545915557
N            5.43723534961718       -1.46987744726249       -0.69992471219643
C            6.74820769805380       -1.13506602053387       -0.55564380599734
C            7.88921280960274       -1.90122911108082       -0.92464257101333
C            7.75765694593596       -3.16912635165115       -1.50240799362356
C            8.87092646008271       -3.90535224574224       -1.82311035562281
C           10.13591530661485       -3.38054978348130       -1.56383946138337
C           10.27741942156267       -2.13322517449352       -1.00157750223422
C            9.16410405893341       -1.34579593613575       -0.66789093391103
C            9.28155314693848       -0.01175412541176       -0.10362632289537
C           10.53010947128475        0.59716870083202        0.09103020968060
C           10.65090157938936        1.87445316958034        0.58566959956671
C            9.51329641752680        2.61315314672515        0.89635426661317
C            8.27175595589555        2.05121974067951        0.72751263176773
C            8.12704915626008        0.74048875340731        0.24970921378876
C            6.86432217626698        0.11159733593039        0.05654538889395
N            5.57146062227401        0.51811934414620        0.30370341939092
C            5.10853589737426        1.70661674181753        0.90941603671928
C            5.38512156639109        1.96394674231074        2.24896718851809
C            4.89360542966391        3.11353981883344        2.84049825254385
C            4.12223949839108        4.00064103618021        2.10628094269570
C            3.84471553217541        3.74008931133944        0.77460218392656
C            4.33540456197192        2.59517168463889        0.17175639519583
C            2.60792891669396        0.02874199247378        0.98612326903045
C            1.22752231931066        0.05903132526924        0.98559369798933
C           -1.61756420151844        0.91825396332342       -0.13698215511221
C           -0.89150798959298        2.13755042704065       -0.19832851432293
C           -1.52771088653999        3.34064119470925       -0.18670305059833
C           -2.93379885347469        3.40092537273863       -0.10893559036120
C           -3.66803948494072        2.25561623519241       -0.07513291022265
C           -3.04610145099744        0.97919944477642       -0.11025345063966
C           -5.97025697081647       -0.54034449202695        1.05073391620850
C           -9.19703842673960       -0.19697863663072        2.74200408102909
C           -9.88758190959259       -0.60212867605762        3.86946081185053
H          -10.03308924599388       -2.05388755869029        5.43827463161186
H           -8.08427662223398       -3.34749796154198        4.64803665823390
H           -6.85836735471776       -2.63225543713732        2.64412175243236
H           -9.12636407326059       -0.02823883248521       -0.03269630018529
H           -9.49657069255366        2.01094768173185       -1.24130245593785
H          -10.73362296489539        2.79448743297243       -3.21370297200539
H          -10.04281190976812        2.08227675885420       -5.47419219886980
H           -8.10867665269478        0.57207847845215       -5.74475669909938
H           -6.88246662216118       -0.22894389217084       -3.77224633511274
H           -5.42935823594205        0.61507984638181       -2.07572172702633
H           -4.95561853266231       -2.62427693718305       -0.20049593434266
H           -3.81227656987149       -4.79243331334662       -0.15008859703497
H           -1.34899146809002       -4.89727672410379       -0.00840389938648
H           -0.02293458846184       -2.83780775462032        0.00871872166286
H            0.64729032750208       -1.24658630029128       -2.07364978314089
H            3.11895346379157       -1.30768533753345       -2.07073321375824
H            6.76013742865341       -3.54289216018348       -1.67750353560435
H            8.77212978255427       -4.88484375455746       -2.26774289592372
H           11.01554417128158       -3.95909055577589       -1.80738338631556
H           11.27588164993052       -1.77003617022386       -0.81683874276763
H           11.43175292803398        0.06193352668624       -0.15910364891248
H           11.63055194765534        2.30892395417131        0.72132554763025
H            9.60426334942297        3.62439941602175        1.26466702410375
H            7.39196794723846        2.63207897470949        0.95347191485323
H            5.98345223569280        1.26293100153687        2.81325330379144
H            5.11029223648505        3.31229175750665        3.87934045040539
H            3.73711791663466        4.89438656656335        2.57314426833436
H            3.24497456227813        4.42963432601446        0.19998292491864
H            4.12350078082029        2.38108906285485       -0.86568106984726
H            3.14526999040899        0.35802403198884        1.86260323120754
H            0.69805582599400        0.42568354439142        1.85324285891016
H            0.18579728608128        2.09309001855565       -0.25699821608691
H           -0.96030860791562        4.25893768117097       -0.23342372801694
H           -3.42268743404141        4.36409808309922       -0.08224433231723
H           -4.74555547446486        2.30155652700400       -0.02089721706347
H           -5.42029510353948       -0.86732006819802        1.92150280779746
H           -9.50244412644598        0.69749364965961        2.21831862027971
H          -10.73780138759112       -0.03017297700492        4.21299315720106

          :  Hamiltonian                  GFN2-xTB          :
         :: gradient norm              0.000067052140 Eh/a0 ::
         :: HOMO-LUMO gap              2.103046798169 eV    ::
         :: SCC energy              -154.602263553633 Eh    ::
         :: -> dispersion             -0.144413118815 Eh    ::
         :: -> Gsolv                  -0.063808810120 Eh    ::
         :: repulsion energy           2.927593117835 Eh    ::

    * Orbital Energies and Occupations

         #    Occupation            Energy/Eh            Energy/eV
      -------------------------------------------------------------
         1        2.0000           -0.6888442             -18.7444
       ...           ...                  ...                  ...
       130        2.0000           -0.4055119             -11.0345
       131        2.0000           -0.4036735             -10.9845
       132        2.0000           -0.4035718             -10.9817
       133        2.0000           -0.4021477             -10.9430
       134        2.0000           -0.3995876             -10.8733
       135        2.0000           -0.3986831             -10.8487
       136        2.0000           -0.3981087             -10.8331
       137        2.0000           -0.3881606             -10.5624
       138        2.0000           -0.3832742             -10.4294
       139        2.0000           -0.3825639             -10.4101
       140        2.0000           -0.3803249             -10.3492
       141        2.0000           -0.3660375              -9.9604
       142        2.0000           -0.3576107              -9.7311 (HOMO)
       143                         -0.2803252              -7.6280 (LUMO)
       144                         -0.2602076              -7.0806
       145                         -0.2514280              -6.8417
       146                         -0.2480056              -6.7486
       147                         -0.2422992              -6.5933
       148                         -0.2403520              -6.5403
       149                         -0.2395823              -6.5194
       150                         -0.2394079              -6.5146
       151                         -0.2310611              -6.2875
       152                         -0.2284302              -6.2159
       153                         -0.2218729              -6.0375
       ...                                ...                  ...
       282                          0.7247041              19.7202
      -------------------------------------------------------------
                  HL-Gap            0.0772855 Eh            2.1030 eV

     #   Z          covCN         q      C6AA      α(0)
     1   6 C        2.920    -0.032    28.803     8.801
     2   6 C        2.918    -0.031    28.765     8.795
     3   6 C        2.925    -0.034    28.852     8.809
     4   6 C        2.977     0.009    27.803     8.649
     5   6 C        2.973     0.008    27.833     8.654
     6   6 C        2.930    -0.042    29.046     8.839
     7   6 C        2.973     0.008    27.834     8.654
     8   6 C        2.977     0.009    27.801     8.649
     9   6 C        2.925    -0.034    28.855     8.809
    10   6 C        2.918    -0.031    28.769     8.796
    11   6 C        2.920    -0.032    28.801     8.801
    12   6 C        2.918    -0.031    28.763     8.795
    13   6 C        2.925    -0.034    28.852     8.809
    14   6 C        2.929    -0.040    28.986     8.829
    15   6 C        2.974     0.014    27.693     8.632
    16   6 C        2.977    -0.005    28.149     8.703
    17   6 C        2.983     0.006    27.884     8.662
    18   6 C        2.917    -0.035    28.863     8.810
    19   6 C        2.914    -0.031    28.771     8.796
    20   6 C        2.914    -0.031    28.764     8.795
    21   6 C        2.917    -0.035    28.881     8.813
    22   6 C        2.983     0.006    27.880     8.661
    23   6 C        2.976    -0.007    28.191     8.709
    24   6 C        2.976     0.018    27.592     8.616
    25   6 C        2.922    -0.031    28.767     8.796
    26   6 C        2.925    -0.029    28.734     8.791
    27   6 C        2.974    -0.004    28.111     8.697
    28   6 C        3.194     0.137    24.544     8.078
    29   7 N        1.893    -0.319    29.133     8.002
    30   6 C        3.207     0.060    26.073     8.315
    31   6 C        2.985    -0.003    28.097     8.695
    32   6 C        2.921    -0.034    28.835     8.806
    33   6 C        2.917    -0.032    28.795     8.799
    34   6 C        2.917    -0.034    28.856     8.809
    35   6 C        2.921    -0.037    28.909     8.817
    36   6 C        2.979    -0.005    28.142     8.702
    37   6 C        2.979    -0.002    28.064     8.690
    38   6 C        2.922    -0.035    28.875     8.812
    39   6 C        2.916    -0.034    28.851     8.808
    40   6 C        2.917    -0.033    28.812     8.802
    41   6 C        2.919    -0.041    29.030     8.835
    42   6 C        2.978    -0.005    28.147     8.703
    43   6 C        3.074     0.022    27.445     8.589
    44   7 N        2.840    -0.055    22.300     7.014
    45   6 C        2.913     0.067    26.510     8.443
    46   6 C        2.921    -0.037    28.918     8.818
    47   6 C        2.920    -0.026    28.654     8.778
    48   6 C        2.919    -0.028    28.709     8.787
    49   6 C        2.920    -0.025    28.623     8.773
    50   6 C        2.921    -0.038    28.947     8.823
    51   6 C        2.921    -0.036    28.885     8.814
    52   6 C        2.923    -0.032    28.796     8.800
    53   6 C        2.983     0.006    27.886     8.662
    54   6 C        2.917    -0.036    28.887     8.814
    55   6 C        2.914    -0.031    28.769     8.795
    56   6 C        2.914    -0.031    28.778     8.797
    57   6 C        2.917    -0.034    28.859     8.809
    58   6 C        2.983     0.006    27.884     8.662
    59   6 C        2.930    -0.040    28.984     8.829
    60   6 C        2.925    -0.034    28.855     8.809
    61   6 C        2.918    -0.031    28.770     8.796
    62   1 H        0.926     0.030     2.586     2.515
    63   1 H        0.926     0.030     2.581     2.512
    64   1 H        0.926     0.032     2.557     2.501
    65   1 H        0.926     0.034     2.529     2.487
    66   1 H        0.926     0.032     2.562     2.503
    67   1 H        0.926     0.031     2.578     2.511
    68   1 H        0.926     0.030     2.585     2.514
    69   1 H        0.926     0.030     2.582     2.513
    70   1 H        0.926     0.032     2.559     2.501
    71   1 H        0.926     0.032     2.557     2.501
    72   1 H        0.926     0.032     2.553     2.499
    73   1 H        0.926     0.030     2.581     2.512
    74   1 H        0.926     0.030     2.582     2.513
    75   1 H        0.926     0.032     2.563     2.504
    76   1 H        0.926     0.040     2.446     2.446
    77   1 H        0.926     0.043     2.405     2.425
    78   1 H        0.926     0.043     2.409     2.427
    79   1 H        0.926     0.032     2.554     2.499
    80   1 H        0.926     0.032     2.560     2.502
    81   1 H        0.926     0.035     2.523     2.484
    82   1 H        0.926     0.037     2.492     2.468
    83   1 H        0.926     0.033     2.550     2.497
    84   1 H        0.926     0.032     2.561     2.503
    85   1 H        0.926     0.029     2.594     2.519
    86   1 H        0.926     0.041     2.430     2.438
    87   1 H        0.926     0.047     2.351     2.398
    88   1 H        0.926     0.048     2.345     2.395
    89   1 H        0.926     0.047     2.356     2.400
    90   1 H        0.926     0.037     2.487     2.466
    91   1 H        0.926     0.029     2.598     2.521
    92   1 H        0.926     0.038     2.477     2.461
    93   1 H        0.926     0.031     2.577     2.511
    94   1 H        0.926     0.031     2.578     2.511
    95   1 H        0.926     0.030     2.581     2.512
    96   1 H        0.926     0.033     2.550     2.497
    97   1 H        0.926     0.032     2.562     2.503
    98   1 H        0.926     0.032     2.562     2.503
    99   1 H        0.926     0.031     2.579     2.511

molecular dipole:
                 x           y           z       tot (Debye)
 q only:       -0.820       1.174       0.567
   full:       -0.655       1.455       0.714       4.445

 projected vibrational frequencies (cm⁻¹)
eigval :       -0.00    -0.00     0.00     0.00     0.00     0.00
eigval :        5.75     7.52    11.52    18.29    21.34    28.55
eigval :       30.37    42.82    45.48    47.98    49.20    50.89
eigval :       52.93    63.95    67.95    74.00    86.30    90.02
eigval :       93.49    99.76   101.21   113.73   121.68   126.08
eigval :      162.88   168.46   171.00   177.65   206.28   213.87
eigval :      221.57   224.27   228.19   246.03   249.61   261.37
eigval :      263.02   269.61   275.10   293.52   305.45   322.01
eigval :      349.67   353.52   363.69   371.00   373.25   375.21
eigval :      376.73   387.87   389.60   396.23   400.62   402.41
eigval :      411.54   418.41   435.00   440.61   445.80   449.49
eigval :      459.35   473.57   476.72   486.41   507.83   520.21
eigval :      521.16   524.00   534.97   545.63   580.95   581.65
eigval :      583.83   584.27   586.40   587.62   589.55   598.20
eigval :      602.23   609.19   628.19   629.18   630.04   638.82
eigval :      643.07   652.85   654.65   667.33   670.17   673.99
eigval :      677.51   681.95   684.15   689.65   692.94   706.19
eigval :      707.22   733.63   735.24   739.27   751.65   762.55
eigval :      762.99   766.05   774.19   775.57   777.57   782.81
eigval :      796.07   816.68   829.07   838.82   865.77   872.46
eigval :      874.87   875.00   875.38   876.05   876.64   879.00
eigval :      894.49   896.34   900.20   903.15   905.32   905.68
eigval :      908.44   913.52   913.88   916.34   919.91   921.46
eigval :      921.79   926.64   927.74   927.98   929.02   929.53
eigval :      929.99   930.85   932.28   932.73   932.78   935.51
eigval :      936.68   938.81   956.21   985.13   989.42   992.85
eigval :     1005.76  1016.95  1031.40  1067.83  1077.83  1079.89
eigval :     1080.75  1083.53  1084.38  1084.84  1101.41  1107.54
eigval :     1113.60  1119.52  1120.79  1122.53  1132.80  1133.69
eigval :     1134.94  1148.40  1152.24  1173.35  1177.40  1178.70
eigval :     1181.73  1181.81  1182.05  1182.44  1185.58  1187.39
eigval :     1193.30  1196.72  1201.28  1202.33  1207.70  1217.75
eigval :     1226.64  1242.11  1247.64  1251.96  1256.07  1256.81
eigval :     1261.83  1268.73  1273.50  1280.63  1281.61  1282.99
eigval :     1299.22  1302.74  1309.83  1310.87  1311.62  1316.93
eigval :     1318.94  1327.88  1337.07  1340.73  1347.41  1348.75
eigval :     1371.43  1378.02  1382.63  1397.04  1406.60  1412.02
eigval :     1416.98  1419.04  1419.72  1427.35  1429.32  1430.86
eigval :     1435.35  1435.85  1438.59  1450.19  1469.15  1478.12
eigval :     1482.73  1483.65  1487.07  1513.03  1514.65  1525.38
eigval :     1528.18  1540.54  1543.24  1556.12  1562.76  1568.37
eigval :     1573.42  1573.88  1581.32  1582.02  1583.37  1591.25
eigval :     1593.14  1595.42  1598.95  1599.02  1603.42  1607.11
eigval :     1621.24  3066.52  3066.84  3068.02  3068.18  3068.28
eigval :     3068.39  3069.30  3073.40  3075.21  3075.87  3076.04
eigval :     3076.49  3076.63  3078.23  3078.39  3078.80  3079.19
eigval :     3079.78  3080.19  3080.86  3081.11  3083.26  3083.48
eigval :     3086.74  3087.74  3088.32  3088.85  3089.03  3091.48
eigval :     3091.70  3093.18  3093.72  3095.65  3095.85  3097.89
eigval :     3101.69  3109.22  3115.40

   temp. (K)  partition function   enthalpy   heat capacity  entropy
                                   cal/mol     cal/K/mol   cal/K/mol   J/K/mol
 298.15  VIB  0.932E+23            28203.180    177.701    177.723
         ROT  0.213E+09              888.752      2.981     41.090
         INT  0.199E+32            29091.933    180.682    218.814
         TR   0.209E+29             1481.254      4.968     45.801
         TOT                       30573.1866   185.6504   264.6145  1107.1471

       T/K    H(0)-H(T)+PV         H(T)/Eh          T*S/Eh         G(T)/Eh
   ------------------------------------------------------------------------
    298.15    0.487215E-01    0.812464E+00    0.125727E+00    0.686737E+00
   ------------------------------------------------------------------------

         :::::::::::::::::::::::::::::::::::::::::::::::::::::
         ::                  THERMODYNAMIC                  ::
         :::::::::::::::::::::::::::::::::::::::::::::::::::::
         :: total free energy        -150.987933537483 Eh   ::
         ::.................................................::
         :: total energy             -151.674670433413 Eh   ::
         :: zero point energy           0.763742314177 Eh   ::
         :: G(RRHO) w/o ZPVE           -0.077005418247 Eh   ::
         :: G(RRHO) contrib.            0.686736895930 Eh   ::
         :::::::::::::::::::::::::::::::::::::::::::::::::::::

           -------------------------------------------------
          | TOTAL ENERGY             -151.674670433413 Eh   |
          | TOTAL ENTHALPY           -150.862206645126 Eh   |
          | TOTAL FREE ENERGY        -150.987933537483 Eh   |
          | GRADIENT NORM               0.000067082507 Eh/α |
          | HOMO-LUMO GAP               2.103046765155 eV   |
           -------------------------------------------------

 * finished run on 2025/07/19 at 16:01:23.456
