   * xtb version 6.7.1 (edcfbbe) compiled by 'albert@albert-system' on 2024-07-22

   ID    Z sym.   atoms
    1    6 C      1-28, 30-43, 45-61
    2    7 N      29, 44
    3    1 H      62-99

          program call               : xtb data2507/toluene/PIAnTPh/PIAnTPh_toluene_S0_finalOpt.xtbopt.xyz --gfn 2 --uhf 2 --gbsa toluene --ohess vtight --parallel 40 --molden --ceasefiles --namespace data2507/toluene/PIAnTPh/PIAnTPh_toluene_T1_preOpt
      * Solvation model:               GBSA
        Solvent                        toluene
        Solvent mass                       9.2140E+01 g/mol
          :  Hamiltonian                  GFN2-xTB          :
 * total energy  :  -151.5972153 Eh     change       -0.2246310E-08 Eh
 * total energy  :  -151.6030652 Eh     change       -0.5849898E-02 Eh
 * total energy  :  -151.6045081 Eh     change       -0.1442976E-02 Eh
 * total energy  :  -151.6046810 Eh     change       -0.1728393E-03 Eh
 * total energy  :  -151.6049143 Eh     change       -0.2333450E-03 Eh
 * total energy  :  -151.6050562 Eh     change       -0.1419102E-03 Eh
 * total energy  :  -151.6052108 Eh     change       -0.1545584E-03 Eh
 * total energy  :  -151.6053709 Eh     change       -0.1601446E-03 Eh
 * total energy  :  -151.6054799 Eh     change       -0.1089429E-03 Eh
 * total energy  :  -151.6055634 Eh     change       -0.8358264E-04 Eh
 * total energy  :  -151.6064240 Eh     change       -0.9784371E-06 Eh
 * total energy  :  -151.6064251 Eh     change       -0.1035541E-05 Eh
 * total energy  :  -151.6064260 Eh     change       -0.9371434E-06 Eh
 * total energy  :  -151.6064268 Eh     change       -0.7623919E-06 Eh
 * total energy  :  -151.6064275 Eh     change       -0.6931486E-06 Eh
 * total energy  :  -151.6064281 Eh     change       -0.6666963E-06 Eh
 * total energy  :  -151.6064289 Eh     change       -0.7954260E-06 Eh
 * total energy  :  -151.6064299 Eh     change       -0.1010108E-05 Eh
 * total energy  :  -151.6064299 Eh     change       -0.3690445E-08 Eh
   *** GEOMETRY OPTIMIZATION CONVERGED AFTER 68 ITERATIONS ***

 final structure:
================
99
 xtb: 6.7.1 (edcfbbe)
C           -9.57423743669685       -2.25714268291389        4.30120998677435
C           -8.46849596247717       -2.93052241623549        3.80866218483557
C           -7.76375064797990       -2.41930031111705        2.73428445729826
C           -8.15679551839625       -1.22699274749570        2.13025301952170
C           -7.40735194184223       -0.67993831207084        0.98726634955487
C           -8.07853940555639       -0.11680978321071       -0.09482774530284
C           -7.37742274536608        0.40706432336948       -1.17708402565992
C           -8.09936698089667        0.97709581656691       -2.32706193114226
C           -9.20074446432995        1.80756940737150       -2.13373824767808
C           -9.88011035903655        2.33921663280451       -3.21460904951070
C           -9.47410001894267        2.04445375676061       -4.50575997335662
C           -8.38101020222489        1.21821201048212       -4.70922319733126
C           -7.69644721221519        0.69112649648595       -3.62941428088937
C           -5.98792335487270        0.37819346551257       -1.16240321329081
C           -5.29403355268142       -0.18222674428314       -0.09066935575814
C           -3.82888697443946       -0.21369502042172       -0.08049789488266
C           -3.15292405435013       -1.46614525299042       -0.01341881901250
C           -3.85338876505500       -2.67824718739274       -0.03480631652439
C           -3.20213240887798       -3.89667250260237        0.12775209134881
C           -1.83768505851297       -3.92140703892055        0.33000948982199
C           -1.11047278071332       -2.73336423668126        0.30414835557515
C           -1.72862325150822       -1.50166526341461        0.07151655938753
C           -0.98010725177057       -0.28397929045308       -0.02296804375446
C            0.46822635615192       -0.31708391417051        0.00366361416952
C            1.19852701572056       -1.15890183517695       -0.85330811573788
C            2.57093049597823       -1.15856112374750       -0.84713856752998
C            3.29276440819835       -0.33177914352202        0.02747915441199
C            4.73418803065993       -0.38946234479465       -0.03069912239850
N            5.37801742103378       -1.45107965699594       -0.46999509938565
C            6.69672603756033       -1.15441546966278       -0.38624157793387
C            7.79998849873314       -1.98792488150642       -0.72415641968705
C            7.60643739603154       -3.29131361308646       -1.19515620119698
C            8.68287920305600       -4.08652736679801       -1.50157398710204
C            9.97221829380468       -3.58405476045303       -1.33647673081677
C           10.17421376176096       -2.30289535475110       -0.87724206779297
C            9.09999851458589       -1.45722993098905       -0.55897999478676
C            9.27995019169327       -0.09055210721503       -0.09800528852768
C           10.55499215042452        0.48013592261902        0.02424340268425
C           10.73792923531901        1.78322494925275        0.42420395074952
C            9.63769213447043        2.58575540036770        0.71019490087240
C            8.37168768362457        2.06346869621008        0.61086980165725
C            8.16266837567712        0.73026169806307        0.22575984921112
C            6.87310013805974        0.14055212713547        0.10741884723741
N            5.60329579914449        0.61702108634515        0.34196791556658
C            5.22676640163115        1.89382428846091        0.81606437072120
C            5.45772412916432        2.24077621107072        2.14437991789582
C            5.06541942418766        3.48494767097662        2.60416639541758
C            4.44113508584267        4.37917777528761        1.74848174041607
C            4.21063686706587        4.03049455644069        0.42780127647864
C            4.60216080040994        2.78970927469907       -0.04376549838781
C            2.57152547486422        0.47197621881739        0.91849472861423
C            1.19702216980102        0.48965107826523        0.89227384329207
C           -1.66404827785878        0.96910748411989       -0.14888538947297
C           -0.97638275692926        2.16886973681178       -0.35147249128595
C           -1.64232167485329        3.39091765573277       -0.41293516938062
C           -3.01456393981423        3.43339736855930       -0.27850957816910
C           -3.73167608531473        2.24907583482425       -0.14388863865219
C           -3.09106390018821        1.00413667235343       -0.12711569950062
C           -6.01793386309826       -0.71588010676756        0.97528694830202
C           -9.27172991372377       -0.55943870146310        2.63268705071991
C           -9.97237043893587       -1.06929741128083        3.71026493234952
H          -10.12311908891057       -2.65598001975372        5.14190685357949
H           -8.15445696446664       -3.85931091845487        4.26340852169202
H           -6.91025590168766       -2.95746404700890        2.34788077792849
H           -9.15836914955329       -0.12283869834065       -0.11399373574199
H           -9.51413451618891        2.05161789273838       -1.12874678451390
H          -10.72954295312406        2.98674942225522       -3.04964751377582
H          -10.00749510873134        2.45688039324950       -5.34986734492360
H           -8.06186522100874        0.98197636598229       -5.71439168447118
H           -6.85361814029096        0.03511095191236       -3.79412514721313
H           -5.43277797998841        0.78697941503731       -1.99439099723406
H           -4.92264369789484       -2.66686043151645       -0.18203875810311
H           -3.77186298262651       -4.81423435093156        0.11079573245436
H           -1.32375835107379       -4.85622530092725        0.49875297781026
H           -0.04595826944424       -2.77059595602089        0.47701914518761
H            0.66524450416716       -1.77364547511352       -1.56378392427423
H            3.12593962059445       -1.78594998302358       -1.52756538595119
H            6.59174304384479       -3.64344517084610       -1.30273723252089
H            8.53627986109558       -5.09315921460065       -1.86483161302862
H           10.82347833871163       -4.20664050210148       -1.57199041885087
H           11.19005558030269       -1.95902788366193       -0.76476342663758
H           11.42889056284114       -0.10781416279572       -0.20493763758705
H           11.73667137070241        2.18630741222781        0.50647169335034
H            9.77666952367672        3.61488793730248        1.00696232428359
H            7.52221506914765        2.69252864842824        0.82156627930083
H            5.94326312173529        1.53375768719578        2.80180555643124
H            5.24514600862919        3.75362680118633        3.63425680031554
H            4.13431544622162        5.34790383977044        2.11252320417528
H            3.72586870659338        4.72595862273963       -0.24055367148061
H            4.42600234451357        2.50531368088562       -1.07087617031527
H            3.08682172328226        1.06611890902632        1.65650718897733
H            0.66027999151547        1.09759825372510        1.60622945866624
H            0.09600814455873        2.15383194189232       -0.47121202649071
H           -1.07607939298385        4.29914447948647       -0.55760692339705
H           -3.53981450115330        4.37709919178939       -0.29328428098599
H           -4.80612813059944        2.29182396509282       -0.05185230521256
H           -5.48296031820037       -1.12243938589561        1.82139206789549
H           -9.57839717648713        0.37631501869252        2.18781047578606
H          -10.83174290001502       -0.53695201449896        4.09252544652460

          :  Hamiltonian                  GFN2-xTB          :
         :: gradient norm              0.000060066851 Eh/a0 ::
         :: HOMO-LUMO gap              0.741189457620 eV    ::
         :: SCC energy              -154.514995112185 Eh    ::
         :: -> dispersion             -0.144258273732 Eh    ::
         :: -> Gsolv                  -0.063437246880 Eh    ::
         :: repulsion energy           2.908565174195 Eh    ::

    * Orbital Energies and Occupations

         #    Occupation            Energy/Eh            Energy/eV
      -------------------------------------------------------------
         1        2.0000           -0.6882522             -18.7283
       ...           ...                  ...                  ...
       131        2.0000           -0.4036726             -10.9845
       132        2.0000           -0.4035389             -10.9809
       133        2.0000           -0.4024377             -10.9509
       134        2.0000           -0.4004123             -10.8958
       135        2.0000           -0.3978783             -10.8268
       136        2.0000           -0.3965201             -10.7899
       137        2.0000           -0.3883287             -10.5670
       138        2.0000           -0.3838204             -10.4443
       139        2.0000           -0.3824576             -10.4072
       140        2.0000           -0.3795730             -10.3287
       141        1.9999           -0.3659594              -9.9583
       142        1.0001           -0.3488525              -9.4928
       143        1.0000           -0.2889209              -7.8619 (HOMO)
       144        0.0000           -0.2616826              -7.1207 (LUMO)
       145                         -0.2517114              -6.8494
       146                         -0.2475365              -6.7358
       147                         -0.2433432              -6.6217
       148                         -0.2410650              -6.5597
       149                         -0.2408540              -6.5540
       150                         -0.2394840              -6.5167
       151                         -0.2271200              -6.1802
       152                         -0.2247837              -6.1167
       153                         -0.2219442              -6.0394
       154                         -0.2217921              -6.0353
       ...                                ...                  ...
       282                          0.7241653              19.7055
      -------------------------------------------------------------
                  HL-Gap            0.0272383 Eh            0.7412 eV

     #   Z          covCN         q      C6AA      α(0)
     1   6 C        2.920    -0.032    28.802     8.801
     2   6 C        2.918    -0.031    28.764     8.795
     3   6 C        2.925    -0.034    28.852     8.809
     4   6 C        2.977     0.009    27.802     8.649
     5   6 C        2.972     0.008    27.830     8.653
     6   6 C        2.930    -0.042    29.042     8.838
     7   6 C        2.973     0.008    27.830     8.653
     8   6 C        2.977     0.010    27.800     8.649
     9   6 C        2.925    -0.034    28.854     8.809
    10   6 C        2.918    -0.031    28.768     8.795
    11   6 C        2.920    -0.032    28.803     8.801
    12   6 C        2.918    -0.030    28.761     8.794
    13   6 C        2.925    -0.034    28.852     8.809
    14   6 C        2.929    -0.039    28.978     8.828
    15   6 C        2.971     0.014    27.685     8.631
    16   6 C        2.974    -0.010    28.270     8.722
    17   6 C        2.978     0.008    27.825     8.653
    18   6 C        2.921    -0.038    28.942     8.822
    19   6 C        2.913    -0.032    28.786     8.798
    20   6 C        2.914    -0.032    28.799     8.800
    21   6 C        2.921    -0.038    28.950     8.823
    22   6 C        2.976     0.008    27.837     8.654
    23   6 C        2.971    -0.010    28.264     8.720
    24   6 C        2.972     0.016    27.656     8.626
    25   6 C        2.920    -0.032    28.806     8.801
    26   6 C        2.925    -0.031    28.772     8.796
    27   6 C        2.972    -0.007    28.194     8.710
    28   6 C        3.180     0.135    24.659     8.106
    29   7 N        1.895    -0.320    29.142     8.003
    30   6 C        3.198     0.063    26.069     8.322
    31   6 C        2.985    -0.004    28.109     8.697
    32   6 C        2.921    -0.033    28.814     8.803
    33   6 C        2.917    -0.032    28.791     8.799
    34   6 C        2.917    -0.034    28.839     8.806
    35   6 C        2.921    -0.036    28.901     8.816
    36   6 C        2.978    -0.004    28.130     8.700
    37   6 C        2.979    -0.001    28.055     8.688
    38   6 C        2.922    -0.035    28.868     8.811
    39   6 C        2.916    -0.034    28.839     8.806
    40   6 C        2.916    -0.032    28.808     8.801
    41   6 C        2.919    -0.041    29.022     8.834
    42   6 C        2.977    -0.006    28.161     8.705
    43   6 C        3.069     0.024    27.390     8.581
    44   7 N        2.837    -0.057    22.333     7.019
    45   6 C        2.912     0.068    26.486     8.439
    46   6 C        2.920    -0.037    28.919     8.819
    47   6 C        2.920    -0.026    28.652     8.778
    48   6 C        2.919    -0.028    28.706     8.786
    49   6 C        2.920    -0.025    28.617     8.772
    50   6 C        2.921    -0.037    28.925     8.820
    51   6 C        2.917    -0.039    28.970     8.826
    52   6 C        2.922    -0.033    28.830     8.805
    53   6 C        2.976     0.008    27.842     8.655
    54   6 C        2.921    -0.039    28.963     8.825
    55   6 C        2.914    -0.033    28.813     8.802
    56   6 C        2.913    -0.032    28.788     8.798
    57   6 C        2.921    -0.038    28.949     8.823
    58   6 C        2.977     0.009    27.823     8.652
    59   6 C        2.930    -0.039    28.981     8.829
    60   6 C        2.925    -0.034    28.854     8.809
    61   6 C        2.918    -0.031    28.769     8.796
    62   1 H        0.926     0.030     2.584     2.514
    63   1 H        0.926     0.031     2.579     2.511
    64   1 H        0.926     0.032     2.555     2.500
    65   1 H        0.926     0.034     2.527     2.486
    66   1 H        0.926     0.032     2.562     2.503
    67   1 H        0.926     0.031     2.576     2.510
    68   1 H        0.926     0.030     2.583     2.513
    69   1 H        0.926     0.030     2.580     2.512
    70   1 H        0.926     0.032     2.562     2.503
    71   1 H        0.926     0.034     2.536     2.490
    72   1 H        0.926     0.033     2.546     2.495
    73   1 H        0.926     0.030     2.584     2.514
    74   1 H        0.926     0.030     2.580     2.512
    75   1 H        0.926     0.035     2.519     2.482
    76   1 H        0.926     0.041     2.441     2.443
    77   1 H        0.926     0.047     2.360     2.402
    78   1 H        0.926     0.044     2.400     2.422
    79   1 H        0.926     0.033     2.543     2.494
    80   1 H        0.926     0.033     2.548     2.496
    81   1 H        0.926     0.035     2.513     2.479
    82   1 H        0.926     0.037     2.482     2.464
    83   1 H        0.926     0.033     2.541     2.493
    84   1 H        0.926     0.032     2.555     2.499
    85   1 H        0.926     0.030     2.589     2.516
    86   1 H        0.926     0.041     2.432     2.439
    87   1 H        0.926     0.048     2.351     2.398
    88   1 H        0.926     0.048     2.345     2.395
    89   1 H        0.926     0.048     2.350     2.397
    90   1 H        0.926     0.038     2.472     2.459
    91   1 H        0.926     0.029     2.599     2.521
    92   1 H        0.926     0.038     2.475     2.460
    93   1 H        0.926     0.034     2.536     2.490
    94   1 H        0.926     0.030     2.581     2.513
    95   1 H        0.926     0.030     2.585     2.514
    96   1 H        0.926     0.033     2.541     2.493
    97   1 H        0.926     0.033     2.542     2.493
    98   1 H        0.926     0.032     2.560     2.502
    99   1 H        0.926     0.031     2.578     2.511

molecular dipole:
                 x           y           z       tot (Debye)
 q only:       -0.559       1.205       0.430
   full:       -0.381       1.508       0.553       4.196

 projected vibrational frequencies (cm⁻¹)
eigval :       -0.00    -0.00     0.00     0.00     0.00     0.00
eigval :        1.91     6.30     9.62    16.26    21.25    25.07
eigval :       31.19    36.84    37.90    45.80    46.14    49.58
eigval :       52.62    63.66    70.22    76.95    81.48    88.92
eigval :       92.37    98.28   100.61   114.30   124.93   136.71
eigval :      162.52   168.94   170.89   183.17   202.86   215.15
eigval :      223.83   227.15   230.57   247.74   250.36   263.34
eigval :      264.58   269.45   277.64   295.06   302.84   319.10
eigval :      347.59   352.21   359.77   368.93   371.57   373.40
eigval :      375.02   381.70   387.01   393.79   396.71   401.08
eigval :      409.05   411.81   416.13   425.17   435.01   447.48
eigval :      467.92   471.04   475.64   485.91   503.56   514.86
eigval :      521.42   523.59   533.99   539.00   571.04   580.37
eigval :      581.60   583.31   584.79   587.02   589.19   594.15
eigval :      594.34   605.52   614.41   624.12   626.99   634.16
eigval :      642.06   650.71   654.07   666.31   669.64   672.17
eigval :      672.68   674.72   680.72   682.14   688.82   698.17
eigval :      704.30   720.47   730.62   734.51   746.19   749.38
eigval :      758.55   761.39   762.96   765.57   771.87   781.09
eigval :      794.99   820.10   827.60   836.62   844.19   849.25
eigval :      860.94   866.35   872.10   872.96   873.81   874.00
eigval :      888.67   890.50   892.01   896.68   898.65   901.46
eigval :      902.65   903.04   905.40   907.07   908.06   911.17
eigval :      913.23   921.80   926.27   927.20   928.20   928.23
eigval :      929.38   929.97   930.61   933.78   936.47   937.81
eigval :      938.24   944.98   951.85   985.04   988.43   989.13
eigval :     1004.05  1012.89  1025.11  1067.80  1076.97  1082.43
eigval :     1083.43  1084.61  1099.98  1101.39  1104.33  1106.69
eigval :     1112.84  1114.75  1118.68  1120.74  1121.85  1128.96
eigval :     1134.34  1139.98  1150.01  1170.82  1178.22  1179.20
eigval :     1179.78  1179.97  1180.18  1181.36  1181.59  1183.74
eigval :     1185.78  1190.81  1198.97  1200.97  1204.23  1208.64
eigval :     1231.06  1241.43  1247.35  1250.98  1253.99  1255.55
eigval :     1267.34  1272.60  1274.32  1279.37  1280.99  1281.99
eigval :     1283.11  1297.90  1304.71  1308.35  1309.32  1309.97
eigval :     1316.33  1316.84  1319.07  1326.04  1336.42  1342.94
eigval :     1358.67  1359.42  1363.34  1371.23  1375.92  1401.73
eigval :     1408.84  1412.67  1413.82  1414.23  1414.52  1419.50
eigval :     1428.36  1429.52  1433.13  1434.32  1440.93  1445.63
eigval :     1474.53  1476.38  1480.11  1482.75  1488.45  1491.00
eigval :     1506.89  1512.47  1523.43  1526.54  1536.27  1547.53
eigval :     1557.35  1559.87  1561.38  1562.10  1568.87  1580.19
eigval :     1580.63  1581.92  1589.88  1590.02  1598.43  1598.63
eigval :     1600.49  3066.01  3066.37  3067.53  3067.78  3069.32
eigval :     3072.10  3072.41  3073.74  3075.39  3076.19  3077.10
eigval :     3078.53  3078.63  3079.06  3079.66  3079.86  3080.22
eigval :     3081.05  3081.22  3081.52  3082.07  3084.26  3084.65
eigval :     3087.34  3087.93  3088.63  3091.25  3093.02  3093.62
eigval :     3096.16  3096.35  3097.12  3098.49  3099.88  3101.30
eigval :     3106.09  3109.37  3120.88

   temp. (K)  partition function   enthalpy   heat capacity  entropy
                                   cal/mol     cal/K/mol   cal/K/mol   J/K/mol
 298.15  VIB  0.771E+24            28366.240    178.346    179.851
         ROT  0.216E+09              888.752      2.981     41.120
         INT  0.167E+33            29254.993    181.327    220.971
         TR   0.209E+29             1481.254      4.968     45.801
         TOT                       30736.2465   186.2953   266.7719  1116.1734

       T/K    H(0)-H(T)+PV         H(T)/Eh          T*S/Eh         G(T)/Eh
   ------------------------------------------------------------------------
    298.15    0.489813E-01    0.809824E+00    0.126752E+00    0.683072E+00
   ------------------------------------------------------------------------

         :::::::::::::::::::::::::::::::::::::::::::::::::::::
         ::                  THERMODYNAMIC                  ::
         :::::::::::::::::::::::::::::::::::::::::::::::::::::
         :: total free energy        -150.923357542928 Eh   ::
         ::.................................................::
         :: total energy             -151.606429939677 Eh   ::
         :: zero point energy           0.760842987424 Eh   ::
         :: G(RRHO) w/o ZPVE           -0.077770590675 Eh   ::
         :: G(RRHO) contrib.            0.683072396749 Eh   ::
         :::::::::::::::::::::::::::::::::::::::::::::::::::::

           -------------------------------------------------
          | TOTAL ENERGY             -151.606429939677 Eh   |
          | TOTAL ENTHALPY           -150.796605625593 Eh   |
          | TOTAL FREE ENERGY        -150.923357542928 Eh   |
          | GRADIENT NORM               0.000060066566 Eh/α |
          | HOMO-LUMO GAP               0.741191347643 eV   |
           -------------------------------------------------

 * finished run on 2025/07/19 at 16:01:36.581
