   * xtb version 6.7.1 (edcfbbe) compiled by 'albert@albert-system' on 2024-07-22

   ID    Z sym.   atoms
    1    6 C      1-28, 30-43, 45-61
    2    7 N      29, 44
    3    1 H      62-99

          program call               : xtb data2507/toluene/PIAnTPh/PIAnTPh_toluene_T1_crest.xyz --gfn 2 --uhf 2 --gbsa toluene --ohess vtight --parallel 40 --molden --ceasefiles --namespace data2507/toluene/PIAnTPh/PIAnTPh_toluene_T1_finalOpt
      * Solvation model:               GBSA
        Solvent                        toluene
        Solvent mass                       9.2140E+01 g/mol
          :  Hamiltonian                  GFN2-xTB          :
 * total energy  :  -151.6064611 Eh     change       -0.2827250E-08 Eh
 * total energy  :  -151.6065125 Eh     change       -0.5136052E-04 Eh
 * total energy  :  -151.6065391 Eh     change       -0.2658596E-04 Eh
 * total energy  :  -151.6065522 Eh     change       -0.1308948E-04 Eh
 * total energy  :  -151.6065657 Eh     change       -0.1351763E-04 Eh
 * total energy  :  -151.6065794 Eh     change       -0.1368407E-04 Eh
 * total energy  :  -151.6065927 Eh     change       -0.1332379E-04 Eh
 * total energy  :  -151.6066052 Eh     change       -0.1248951E-04 Eh
 * total energy  :  -151.6066130 Eh     change       -0.7870376E-05 Eh
 * total energy  :  -151.6066176 Eh     change       -0.4598471E-05 Eh
 * total energy  :  -151.6067028 Eh     change       -0.3641031E-06 Eh
 * total energy  :  -151.6067031 Eh     change       -0.3193574E-06 Eh
 * total energy  :  -151.6067034 Eh     change       -0.2801507E-06 Eh
 * total energy  :  -151.6067036 Eh     change       -0.2566270E-06 Eh
 * total energy  :  -151.6067039 Eh     change       -0.2694054E-06 Eh
 * total energy  :  -151.6067042 Eh     change       -0.3183614E-06 Eh
 * total energy  :  -151.6067046 Eh     change       -0.3810233E-06 Eh
 * total energy  :  -151.6067051 Eh     change       -0.4525887E-06 Eh
 * total energy  :  -151.6067051 Eh     change       -0.5840093E-08 Eh
   *** GEOMETRY OPTIMIZATION CONVERGED AFTER 68 ITERATIONS ***

 final structure:
================
99
 xtb: 6.7.1 (edcfbbe)
C           -9.29352446235243        3.92060723434361        3.15895303605238
C           -9.78013339890209        2.62374899535577        3.14477749509421
C           -9.14117695070372        1.64887357874510        2.40062435905202
C           -8.00065934992984        1.95445498617085        1.66134830045149
C           -7.32220029509106        0.92153142222739        0.86103204881648
C           -8.06145645295012        0.00549688614415        0.11741141122081
C           -7.42924049649624       -0.97387246048384       -0.64404801401110
C           -8.22024697042614       -1.93881336742266       -1.42564522180460
C           -9.35284466794104       -1.53086817593831       -2.12692836822668
C          -10.09751668572934       -2.44208451547942       -2.85324695437275
C           -9.72613958253709       -3.77613976551636       -2.88780317654209
C           -8.60149585101338       -4.19282956270885       -2.19471210650337
C           -7.85326908434255       -3.28221585108141       -1.47144725003821
C           -6.04081279966808       -1.03159931027349       -0.65279210215091
C           -5.27712703633423       -0.12337493790242        0.08214837081694
C           -3.81660075249929       -0.19073603504253        0.06598163054727
C           -3.15693180413196       -1.40079944140648        0.43229839393725
C           -3.86770466867076       -2.52009990751665        0.88117143721287
C           -3.23377515679543       -3.73398076641460        1.12641175185233
C           -1.87605117202915       -3.85219625583369        0.91237839760504
C           -1.13540662930662       -2.73615718752658        0.52982788861712
C           -1.73441144551454       -1.48593327871458        0.35209960686960
C           -0.96650380753190       -0.31479603927160        0.05073176751582
C            0.48124367497841       -0.37275824928468        0.06052372412592
C            1.23644627194856        0.11581010407988       -1.01817939111840
C            2.61076381334044        0.08500394798609       -1.00507284942288
C            3.30213608058942       -0.41857152434655        0.10229682723586
C            4.74504917921486       -0.45430136242859        0.18804177301419
N            5.40449908590569       -1.41633562147360        0.79459595573927
C            6.71977608654589       -1.11463211734945        0.65460446029316
C            7.84047324442222       -1.87717535910894        1.08895115174474
C            7.67514577418780       -3.10462329736557        1.74034912779017
C            8.76872627334043       -3.84709782422723        2.11160097047142
C           10.04709310812070       -3.37053768262178        1.82707208678038
C           10.22189959010170       -2.16128132053064        1.19448973217911
C            9.12988557327868       -1.36669932884122        0.81209851940274
C            9.28227389979519       -0.06806870316966        0.17757349130642
C           10.54454724532111        0.51025428287833       -0.01854752971010
C           10.69810244221244        1.75684963103192       -0.57895130326055
C            9.58039034149259        2.49477278127324       -0.95687803396323
C            8.32603216388790        1.96249146227229       -0.78742529620627
C            8.14801560635204        0.68172538102939       -0.24274925117417
C            6.87129394095414        0.08645978728053       -0.04147914256625
N            5.59283037740722        0.49401114418602       -0.34754690001988
C            5.17498876376561        1.64919034567074       -1.04292335829851
C            4.41096410525643        2.60712846672637       -0.38651652400146
C            3.96829847002925        3.72108733354273       -1.07786306654154
C            4.28596931577858        3.88299919383802       -2.41639104431396
C            5.04927469463098        2.92762659660773       -3.06895296553954
C            5.49271291238210        1.80787609136160       -2.38886500835885
C            2.55748597998996       -0.94165632597162        1.16765872244076
C            1.18442640726577       -0.92185818809318        1.14693037165149
C           -1.63221557244411        0.91671070048803       -0.25488070056129
C           -0.93064162746109        2.10933327869984       -0.45342250968551
C           -1.57738492466163        3.28225901778266       -0.83547967768426
C           -2.94343191046865        3.28153150094582       -1.02763724437186
C           -3.67587800474033        2.12885102839747       -0.76302847862753
C           -3.05784107617146        0.95489836743642       -0.31639383306623
C           -5.93480839224814        0.85131081927268        0.83447828284517
C           -7.51693170018662        3.26084569610398        1.68699379699624
C           -8.16003721830299        4.23555132267841        2.42762262628285
H           -9.79504794708622        4.68231444665703        3.73815260820147
H          -10.66109189122046        2.37076875652122        3.71750007772902
H           -9.51733726177706        0.63582306335958        2.40658669862689
H           -9.14002294992124        0.05558024193746        0.13163107090224
H           -9.63955848345318       -0.48896673157511       -2.11764723897469
H          -10.97118897735962       -2.11026597091215       -3.39611054962733
H          -10.31025421005245       -4.48769530526238       -3.45317025337305
H           -8.30760663237501       -5.23269864169004       -2.21622852306170
H           -6.98562316699279       -3.61747127626439       -0.92164190977824
H           -5.53817107916666       -1.75923841551049       -1.27330032715342
H           -4.93154299978455       -2.43937628105181        1.04443503971971
H           -3.81277139102275       -4.58049702876495        1.46545808792047
H           -1.37720633199128       -4.79976649736921        1.05269145586726
H           -0.07567591972154       -2.84730792971973        0.35949958669631
H            0.72180423321408        0.47628450493712       -1.89702894852136
H            3.15251934660652        0.42568205343046       -1.87416234962054
H            6.66797096736158       -3.44431675804154        1.92887825802400
H            8.64379409157151       -4.79574021791272        2.61279029081677
H           10.91105432952749       -3.95648638203750        2.10623095423132
H           11.22960070885331       -1.83582569125814        0.99065397856043
H           11.43077592818325       -0.02259830805321        0.28587218101510
H           11.68764556045795        2.16870304090224       -0.71299065373795
H            9.69670789442197        3.48316952601067       -1.37644491879279
H            7.46162002561585        2.54454403229113       -1.06374685462742
H            4.16742223493880        2.46942991125085        0.65684355145683
H            3.37460543028404        4.46391223138691       -0.56682794095756
H            3.93877490415945        4.75317385687525       -2.95245862210124
H            5.29739129798254        3.05005815116427       -4.11254252295780
H            6.08483097186869        1.05416861571647       -2.88795938599039
H            3.09016415049556       -1.34391400461569        2.01595341043353
H            0.63059331111625       -1.28501697733306        2.00035326519114
H            0.13741469602497        2.12994712342432       -0.30121276389216
H           -1.00050892392680        4.18166599482887       -0.99247098967394
H           -3.45197626900961        4.17302077377923       -1.36446533066587
H           -4.74523672248043        2.13925495701624       -0.90882080262068
H           -5.35183448863340        1.52951803386569        1.44064041838684
H           -6.64133948992141        3.51703890356708        1.10794692897831
H           -7.77683076289037        5.24608904649255        2.43303948113473

          :  Hamiltonian                  GFN2-xTB          :
         :: gradient norm              0.000054373984 Eh/a0 ::
         :: HOMO-LUMO gap              0.771363724801 eV    ::
         :: SCC energy              -154.515353771960 Eh    ::
         :: -> dispersion             -0.145127418672 Eh    ::
         :: -> Gsolv                  -0.063158451623 Eh    ::
         :: repulsion energy           2.908648703836 Eh    ::

    * Orbital Energies and Occupations

         #    Occupation            Energy/Eh            Energy/eV
      -------------------------------------------------------------
         1        2.0000           -0.6886685             -18.7396
       ...           ...                  ...                  ...
       131        2.0000           -0.4036343             -10.9834
       132        2.0000           -0.4035279             -10.9806
       133        2.0000           -0.4016421             -10.9292
       134        2.0000           -0.4004820             -10.8977
       135        2.0000           -0.3977747             -10.8240
       136        2.0000           -0.3973343             -10.8120
       137        2.0000           -0.3881526             -10.5622
       138        2.0000           -0.3838137             -10.4441
       139        2.0000           -0.3820717             -10.3967
       140        2.0000           -0.3800595             -10.3419
       141        1.9999           -0.3662876              -9.9672
       142        1.0001           -0.3488573              -9.4929
       143        1.0000           -0.2894952              -7.8776 (HOMO)
       144        0.0000           -0.2611482              -7.1062 (LUMO)
       145                         -0.2519489              -6.8559
       146                         -0.2482920              -6.7564
       147                         -0.2430010              -6.6124
       148                         -0.2404841              -6.5439
       149                         -0.2395854              -6.5195
       150                         -0.2392041              -6.5091
       151                         -0.2276784              -6.1954
       152                         -0.2253809              -6.1329
       153                         -0.2218807              -6.0377
       154                         -0.2217813              -6.0350
       ...                                ...                  ...
       282                          0.7240508              19.7024
      -------------------------------------------------------------
                  HL-Gap            0.0283470 Eh            0.7714 eV

     #   Z          covCN         q      C6AA      α(0)
     1   6 C        2.920    -0.032    28.802     8.801
     2   6 C        2.918    -0.031    28.766     8.795
     3   6 C        2.925    -0.034    28.857     8.809
     4   6 C        2.977     0.009    27.803     8.649
     5   6 C        2.972     0.008    27.833     8.654
     6   6 C        2.930    -0.042    29.038     8.837
     7   6 C        2.972     0.008    27.833     8.654
     8   6 C        2.977     0.009    27.804     8.649
     9   6 C        2.925    -0.034    28.858     8.810
    10   6 C        2.918    -0.031    28.767     8.795
    11   6 C        2.920    -0.032    28.801     8.801
    12   6 C        2.918    -0.031    28.765     8.795
    13   6 C        2.925    -0.034    28.854     8.809
    14   6 C        2.929    -0.040    28.982     8.829
    15   6 C        2.971     0.014    27.692     8.632
    16   6 C        2.974    -0.011    28.275     8.722
    17   6 C        2.977     0.009    27.823     8.652
    18   6 C        2.921    -0.038    28.943     8.822
    19   6 C        2.913    -0.031    28.784     8.798
    20   6 C        2.914    -0.032    28.799     8.800
    21   6 C        2.921    -0.038    28.943     8.822
    22   6 C        2.977     0.008    27.837     8.654
    23   6 C        2.971    -0.010    28.267     8.721
    24   6 C        2.972     0.016    27.656     8.626
    25   6 C        2.922    -0.033    28.831     8.805
    26   6 C        2.918    -0.037    28.930     8.820
    27   6 C        2.973    -0.007    28.185     8.708
    28   6 C        3.187     0.137    24.600     8.093
    29   7 N        1.893    -0.320    29.147     8.004
    30   6 C        3.202     0.062    26.055     8.316
    31   6 C        2.985    -0.004    28.106     8.696
    32   6 C        2.921    -0.033    28.818     8.803
    33   6 C        2.917    -0.032    28.791     8.799
    34   6 C        2.917    -0.034    28.841     8.807
    35   6 C        2.921    -0.036    28.902     8.816
    36   6 C        2.979    -0.005    28.131     8.700
    37   6 C        2.979    -0.001    28.057     8.689
    38   6 C        2.922    -0.035    28.868     8.811
    39   6 C        2.916    -0.034    28.841     8.806
    40   6 C        2.916    -0.032    28.807     8.801
    41   6 C        2.919    -0.041    29.017     8.833
    42   6 C        2.977    -0.006    28.156     8.704
    43   6 C        3.071     0.024    27.403     8.583
    44   7 N        2.838    -0.056    22.314     7.016
    45   6 C        2.912     0.067    26.498     8.441
    46   6 C        2.921    -0.038    28.938     8.822
    47   6 C        2.920    -0.025    28.623     8.773
    48   6 C        2.919    -0.029    28.713     8.787
    49   6 C        2.920    -0.026    28.655     8.778
    50   6 C        2.921    -0.037    28.923     8.819
    51   6 C        2.924    -0.030    28.761     8.795
    52   6 C        2.921    -0.032    28.805     8.801
    53   6 C        2.976     0.008    27.840     8.655
    54   6 C        2.921    -0.039    28.966     8.826
    55   6 C        2.914    -0.033    28.816     8.802
    56   6 C        2.913    -0.032    28.794     8.799
    57   6 C        2.921    -0.038    28.949     8.823
    58   6 C        2.978     0.008    27.824     8.653
    59   6 C        2.929    -0.039    28.980     8.828
    60   6 C        2.925    -0.034    28.855     8.809
    61   6 C        2.918    -0.031    28.766     8.795
    62   1 H        0.926     0.030     2.585     2.514
    63   1 H        0.926     0.030     2.580     2.512
    64   1 H        0.926     0.032     2.556     2.500
    65   1 H        0.926     0.035     2.522     2.483
    66   1 H        0.926     0.032     2.555     2.499
    67   1 H        0.926     0.030     2.580     2.512
    68   1 H        0.926     0.030     2.585     2.514
    69   1 H        0.926     0.031     2.579     2.511
    70   1 H        0.926     0.032     2.553     2.499
    71   1 H        0.926     0.034     2.527     2.486
    72   1 H        0.926     0.034     2.530     2.487
    73   1 H        0.926     0.030     2.581     2.513
    74   1 H        0.926     0.031     2.578     2.511
    75   1 H        0.926     0.035     2.516     2.480
    76   1 H        0.926     0.039     2.463     2.454
    77   1 H        0.926     0.028     2.615     2.529
    78   1 H        0.926     0.044     2.401     2.423
    79   1 H        0.926     0.033     2.544     2.494
    80   1 H        0.926     0.033     2.549     2.497
    81   1 H        0.926     0.035     2.513     2.479
    82   1 H        0.926     0.037     2.483     2.464
    83   1 H        0.926     0.033     2.541     2.493
    84   1 H        0.926     0.032     2.554     2.499
    85   1 H        0.926     0.030     2.589     2.516
    86   1 H        0.926     0.037     2.483     2.464
    87   1 H        0.926     0.047     2.356     2.401
    88   1 H        0.926     0.048     2.348     2.396
    89   1 H        0.926     0.047     2.354     2.399
    90   1 H        0.926     0.041     2.434     2.440
    91   1 H        0.926     0.044     2.399     2.422
    92   1 H        0.926     0.041     2.434     2.440
    93   1 H        0.926     0.034     2.532     2.488
    94   1 H        0.926     0.030     2.580     2.512
    95   1 H        0.926     0.030     2.586     2.515
    96   1 H        0.926     0.033     2.538     2.491
    97   1 H        0.926     0.034     2.528     2.486
    98   1 H        0.926     0.032     2.554     2.499
    99   1 H        0.926     0.031     2.578     2.511

molecular dipole:
                 x           y           z       tot (Debye)
 q only:       -0.671       1.095      -0.636
   full:       -0.496       1.366      -0.801       4.218

 projected vibrational frequencies (cm⁻¹)
eigval :       -0.00    -0.00    -0.00     0.00     0.00     0.00
eigval :        3.30     6.43     9.42    17.06    18.59    26.33
eigval :       33.21    39.91    42.86    44.85    47.21    48.09
eigval :       52.05    64.43    72.21    72.74    87.71    91.79
eigval :       92.77    99.56   107.44   109.81   122.60   142.38
eigval :      164.46   168.94   171.76   180.09   204.66   216.72
eigval :      225.60   227.69   229.54   247.69   252.22   263.40
eigval :      266.90   275.22   278.85   295.77   302.75   322.51
eigval :      333.93   348.02   364.89   369.88   371.91   376.78
eigval :      377.45   380.60   385.95   392.10   396.15   400.13
eigval :      410.47   415.12   422.86   426.73   436.74   446.45
eigval :      468.84   470.58   474.28   483.30   505.50   517.62
eigval :      522.00   523.72   533.56   536.71   572.00   580.62
eigval :      581.69   582.65   584.89   587.78   588.64   592.84
eigval :      595.13   604.09   611.34   624.47   628.10   634.32
eigval :      642.55   652.20   654.78   667.22   669.36   672.11
eigval :      672.43   675.68   679.77   681.02   689.13   698.05
eigval :      704.42   718.71   731.64   734.87   743.58   756.02
eigval :      756.82   757.14   762.33   767.04   772.82   784.08
eigval :      794.24   818.89   826.27   836.01   845.30   852.63
eigval :      866.21   866.34   874.39   874.57   875.32   876.31
eigval :      886.94   888.03   892.08   897.85   899.18   901.07
eigval :      901.75   902.10   902.40   909.07   909.12   911.00
eigval :      915.65   924.47   927.82   928.21   928.60   928.70
eigval :      929.19   931.01   931.26   931.77   936.37   936.50
eigval :      937.95   945.58   952.49   985.02   987.87   989.02
eigval :     1003.84  1013.25  1025.73  1067.80  1078.24  1082.64
eigval :     1084.10  1084.89  1100.45  1101.86  1104.90  1107.29
eigval :     1114.68  1114.85  1118.68  1120.71  1122.42  1131.42
eigval :     1134.33  1139.02  1151.41  1172.07  1177.25  1179.08
eigval :     1179.92  1180.32  1180.99  1181.76  1181.91  1185.83
eigval :     1188.81  1191.75  1198.99  1199.79  1204.05  1208.27
eigval :     1231.44  1242.14  1248.92  1251.52  1253.82  1255.89
eigval :     1266.63  1273.28  1274.46  1281.12  1281.44  1282.18
eigval :     1282.99  1297.69  1303.58  1310.34  1311.22  1312.23
eigval :     1315.26  1316.96  1319.86  1324.02  1336.38  1343.12
eigval :     1357.96  1358.70  1362.82  1370.88  1376.62  1402.67
eigval :     1408.65  1411.12  1413.28  1413.93  1414.99  1419.37
eigval :     1428.67  1429.72  1434.02  1434.17  1440.95  1446.82
eigval :     1475.45  1476.40  1480.08  1482.62  1490.17  1495.73
eigval :     1508.44  1512.82  1523.39  1526.76  1538.54  1547.98
eigval :     1557.61  1557.96  1558.53  1562.54  1568.53  1580.61
eigval :     1580.78  1581.86  1590.30  1590.40  1598.35  1598.52
eigval :     1600.79  3065.68  3065.96  3066.82  3067.35  3070.09
eigval :     3072.43  3072.72  3074.23  3075.31  3075.43  3077.05
eigval :     3078.12  3078.35  3079.11  3080.16  3080.35  3080.43
eigval :     3081.36  3081.61  3081.70  3082.11  3083.87  3086.04
eigval :     3087.52  3087.92  3088.59  3091.83  3092.16  3092.63
eigval :     3094.89  3095.72  3096.34  3096.64  3097.84  3098.99
eigval :     3101.42  3109.10  3115.62

   temp. (K)  partition function   enthalpy   heat capacity  entropy
                                   cal/mol     cal/K/mol   cal/K/mol   J/K/mol
 298.15  VIB  0.323E+24            28316.208    178.451    178.930
         ROT  0.214E+09              888.752      2.981     41.103
         INT  0.691E+32            29204.960    181.432    220.033
         TR   0.209E+29             1481.254      4.968     45.801
         TOT                       30686.2140   186.3998   265.8337  1112.2482

       T/K    H(0)-H(T)+PV         H(T)/Eh          T*S/Eh         G(T)/Eh
   ------------------------------------------------------------------------
    298.15    0.489016E-01    0.809925E+00    0.126306E+00    0.683618E+00
   ------------------------------------------------------------------------

         :::::::::::::::::::::::::::::::::::::::::::::::::::::
         ::                  THERMODYNAMIC                  ::
         :::::::::::::::::::::::::::::::::::::::::::::::::::::
         :: total free energy        -150.923086640494 Eh   ::
         ::.................................................::
         :: total energy             -151.606705066807 Eh   ::
         :: zero point energy           0.761022999528 Eh   ::
         :: G(RRHO) w/o ZPVE           -0.077404573215 Eh   ::
         :: G(RRHO) contrib.            0.683618426313 Eh   ::
         :::::::::::::::::::::::::::::::::::::::::::::::::::::

           -------------------------------------------------
          | TOTAL ENERGY             -151.606705066807 Eh   |
          | TOTAL ENTHALPY           -150.796780472507 Eh   |
          | TOTAL FREE ENERGY        -150.923086640494 Eh   |
          | GRADIENT NORM               0.000054364165 Eh/α |
          | HOMO-LUMO GAP               0.771361862030 eV   |
           -------------------------------------------------

 * finished run on 2025/07/19 at 16:10:53.953
