   * xtb version 6.7.1 (edcfbbe) compiled by 'albert@albert-system' on 2024-07-22

   ID    Z sym.   atoms
    1    6 C      1-28, 30-43, 45-61
    2    7 N      29, 44
    3    1 H      62-99

          program call               : xtb data2507/toluene/PIAnTPh/PIAnTPh.xyz --gfn 2 --gbsa toluene --ohess vtight --parallel 40 --molden --ceasefiles --namespace data2507/toluene/PIAnTPh/PIAnTPh_toluene_S0_preOpt
      * Solvation model:               GBSA
        Solvent                        toluene
        Solvent mass                       9.2140E+01 g/mol
          :  Hamiltonian                  GFN2-xTB          :
 * total energy  :  -151.6472676 Eh     change       -0.2124636E-08 Eh
 * total energy  :  -151.6645444 Eh     change       -0.1727687E-01 Eh
 * total energy  :  -151.6694663 Eh     change       -0.4921916E-02 Eh
 * total energy  :  -151.6704832 Eh     change       -0.1016831E-02 Eh
 * total energy  :  -151.6710736 Eh     change       -0.5903961E-03 Eh
 * total energy  :  -151.6713873 Eh     change       -0.3137328E-03 Eh
 * total energy  :  -151.6717260 Eh     change       -0.3386833E-03 Eh
 * total energy  :  -151.6720795 Eh     change       -0.3534899E-03 Eh
 * total energy  :  -151.6724402 Eh     change       -0.3607633E-03 Eh
 * total energy  :  -151.6728019 Eh     change       -0.3616696E-03 Eh
 * total energy  :  -151.6747447 Eh     change       -0.1001475E-05 Eh
 * total energy  :  -151.6747456 Eh     change       -0.8784825E-06 Eh
 * total energy  :  -151.6747464 Eh     change       -0.7356105E-06 Eh
 * total energy  :  -151.6747470 Eh     change       -0.6342921E-06 Eh
 * total energy  :  -151.6747477 Eh     change       -0.6660953E-06 Eh
 * total energy  :  -151.6747482 Eh     change       -0.5975824E-06 Eh
 * total energy  :  -151.6747488 Eh     change       -0.5512637E-06 Eh
 * total energy  :  -151.6747493 Eh     change       -0.4833457E-06 Eh
 * total energy  :  -151.6747493 Eh     change       -0.5713218E-08 Eh
   *** GEOMETRY OPTIMIZATION CONVERGED AFTER 122 ITERATIONS ***

 final structure:
================
99
 xtb: 6.7.1 (edcfbbe)
C           -9.33640480495645       -2.59560184636817       -4.07853458666545
C           -8.24412107589582       -1.81043928953283       -4.40902763944598
C           -7.53676635942191       -1.15043449759380       -3.42089425868869
C           -7.91426007538007       -1.26059493083645       -2.08434338091134
C           -7.16431210512659       -0.55560153828844       -1.03188518633607
C           -7.83431599609427        0.08277022610809        0.00697148077482
C           -7.13738341663067        0.75987244856406        1.00242455995702
C           -7.85911473434762        1.44372426724262        2.08811918745987
C           -8.95183080985943        0.84085191351909        2.70691643617123
C           -9.62706592191396        1.48496265074706        3.72749295292671
C           -9.22594512293787        2.74434605597135        4.14201881601447
C           -8.14238771411335        3.35438556221698        3.53156311287171
C           -7.46236638989570        2.70907209898142        2.51499327968699
C           -5.74664550662354        0.78705424686889        0.95382431400270
C           -5.06128548191859        0.15313824695357       -0.07470761909847
C           -3.58158233231903        0.19408879548985       -0.12129536268610
C           -2.94045215314883        1.04129596823959       -1.03531081526909
C           -3.67526599184538        1.88255437957326       -1.91260624367577
C           -3.04576302922749        2.68604170507497       -2.81259679719195
C           -1.63859988124506        2.69039662170704       -2.89712107189506
C           -0.89704548021358        1.91134414757600       -2.06288731781135
C           -1.51200571656278        1.07833531334639       -1.09054081636380
C           -0.75968481564811        0.28657291560939       -0.20972412840406
C            0.71623608973625        0.34465217568552       -0.24692951311862
C            1.38877640476368        1.50596930220978        0.12821707169716
C            2.76734420091848        1.55587600015388        0.11187079717028
C            3.51269214779943        0.44122417950364       -0.27329725157013
C            4.96458073863583        0.53958078760990       -0.25989758363411
N            5.61815515061144        1.61448599861548       -0.62669709625308
C            6.93750435858881        1.31755331741948       -0.47698731093011
C            8.05709204852793        2.14227332446448       -0.77997068546039
C            7.89193065436540        3.42614466525729       -1.31201754511844
C            8.98542428097505        4.19429189833662       -1.62594665320085
C           10.26436896103023        3.68255006197845       -1.41352720023556
C           10.43888840369838        2.42417966242190       -0.88623937304905
C            9.34648909849697        1.61155238675860       -0.54395584245407
C            9.49880793709265        0.29238952258631        0.04637830318494
C           10.76122650476596       -0.22933437603874        0.36538111459211
C           10.91403909308839       -1.45731967639847        0.96489605303352
C            9.79586544406730       -2.21897426534583        1.29043728249945
C            8.54192192089113       -1.74839239119515        0.98728547427021
C            8.36515331084050       -0.51129112765046        0.35044361249635
C            7.08839555316501        0.02241729391736        0.01522943628746
N            5.80860583974862       -0.47245474457378        0.13812685003011
C            5.38353957493061       -1.74412687873844        0.58001217263915
C            5.70706419715815       -2.88276677962434       -0.15211712462837
C            5.25570285565563       -4.11962550768245        0.27149370087391
C            4.47640024789478       -4.22403526359024        1.41292778402034
C            4.15132025100865       -3.08868844895175        2.13662489575757
C            4.60276437690606       -1.84699465445230        1.72506667557417
C            2.84150410860157       -0.71107496322587       -0.67835138044260
C            1.46136730262184       -0.75633182817952       -0.66066017058039
C           -1.40223629682406       -0.55513083861566        0.71101639337812
C           -0.67546959982488       -1.35029457067687        1.63686566542958
C           -1.31174084836974       -2.17712811932080        2.51105118220692
C           -2.71896860597006       -2.25982733693243        2.51835644262834
C           -3.45408934588773       -1.49579665288509        1.66539168926982
C           -2.83097884019557       -0.61038997019695        0.74618990155076
C           -5.77348987125874       -0.51259169020465       -1.06425760952212
C           -9.01584397810129       -2.05091996419940       -1.76378406316240
C           -9.71890871121509       -2.71447009719223       -2.75249493691166
H           -9.88727613570086       -3.11244757638374       -4.85093579356072
H           -7.94310708854838       -1.71059882228303       -5.44224477863929
H           -6.69445234057613       -0.52835686875912       -3.68790087003845
H           -8.91444640519528        0.08687202830140        0.01913486852480
H           -9.26105823803538       -0.14751380306111        2.39825154450643
H          -10.46929624545112        1.00240083038594        4.20279692326581
H           -9.75534043691486        3.24793540304938        4.93786785467714
H           -7.82691397514115        4.33843185436588        3.84810158386933
H           -6.62679382168032        3.19599673232522        2.03265574878756
H           -5.18904417331681        1.29310996768149        1.72883102286081
H           -4.75352390950155        1.87279582897988       -1.85011620543893
H           -3.61823476507241        3.32146423502429       -3.47289124619462
H           -1.15387991770811        3.31873160590490       -3.63037338741732
H            0.18054209015535        1.91450562246449       -2.13316737268438
H            0.82027836039733        2.36898571981679        0.44364211020868
H            3.29076305653743        2.45393229387065        0.40313802018762
H            6.88494077235910        3.78147914912700       -1.46998366575464
H            8.86045718598664        5.18494315318951       -2.03809158363882
H           11.12869347888578        4.28017526940237       -1.66567193588193
H           11.44712707104022        2.06952750463876       -0.74254837906514
H           11.64801783565694        0.34361010891760        0.14781634353792
H           11.90342697946567       -1.82481325995902        1.19511062163426
H            9.91131928486267       -3.17342379293668        1.78262104570695
H            7.67700094793336       -2.33311544101820        1.25649861066830
H            6.31082569434886       -2.78859939284994       -1.04341851932831
H            5.50949275261701       -5.00224967886605       -0.29614230962139
H            4.12295146280708       -5.19088729778425        1.73756038971375
H            3.54495286900889       -3.16694403189583        3.02630623259930
H            4.35484029218662       -0.95483389169029        2.28147660980039
H            3.39518271172590       -1.57026626092627       -1.02564742792744
H            0.94992143090215       -1.65314825948669       -0.97955332393782
H            0.40248452734566       -1.28630710902118        1.63682872850528
H           -0.74319166794228       -2.77707416807955        3.20691763899264
H           -3.20720779455120       -2.92981648555430        3.21124653945457
H           -4.53266370324825       -1.55171606153887        1.67392830226948
H           -5.23565403523215       -1.01841952178000       -1.85322348742715
H           -9.30997036044686       -2.16106543762678       -0.72981029087145
H          -10.56799583357476       -3.32861703812951       -2.48798623614886

          :  Hamiltonian                  GFN2-xTB          :
         :: gradient norm              0.000053289632 Eh/a0 ::
         :: HOMO-LUMO gap              2.112815216566 eV    ::
         :: SCC energy              -154.602410368879 Eh    ::
         :: -> dispersion             -0.144232641522 Eh    ::
         :: -> Gsolv                  -0.063971665746 Eh    ::
         :: repulsion energy           2.927661079474 Eh    ::

    * Orbital Energies and Occupations

         #    Occupation            Energy/Eh            Energy/eV
      -------------------------------------------------------------
         1        2.0000           -0.6888430             -18.7444
       ...           ...                  ...                  ...
       130        2.0000           -0.4054593             -11.0331
       131        2.0000           -0.4036922             -10.9850
       132        2.0000           -0.4035868             -10.9822
       133        2.0000           -0.4021574             -10.9433
       134        2.0000           -0.3995856             -10.8733
       135        2.0000           -0.3987357             -10.8501
       136        2.0000           -0.3980822             -10.8324
       137        2.0000           -0.3880529             -10.5595
       138        2.0000           -0.3832658             -10.4292
       139        2.0000           -0.3828108             -10.4168
       140        2.0000           -0.3802615             -10.3474
       141        2.0000           -0.3660805              -9.9616
       142        2.0000           -0.3578000              -9.7362 (HOMO)
       143                         -0.2801555              -7.6234 (LUMO)
       144                         -0.2603314              -7.0840
       145                         -0.2514533              -6.8424
       146                         -0.2478384              -6.7440
       147                         -0.2422959              -6.5932
       148                         -0.2403774              -6.5410
       149                         -0.2394231              -6.5150
       150                         -0.2392670              -6.5108
       151                         -0.2310261              -6.2865
       152                         -0.2283458              -6.2136
       153                         -0.2218660              -6.0373
       ...                                ...                  ...
       282                          0.7246429              19.7185
      -------------------------------------------------------------
                  HL-Gap            0.0776445 Eh            2.1128 eV

     #   Z          covCN         q      C6AA      α(0)
     1   6 C        2.920    -0.032    28.802     8.801
     2   6 C        2.918    -0.031    28.765     8.795
     3   6 C        2.925    -0.034    28.851     8.809
     4   6 C        2.977     0.009    27.802     8.649
     5   6 C        2.974     0.008    27.830     8.653
     6   6 C        2.930    -0.042    29.049     8.839
     7   6 C        2.974     0.008    27.829     8.653
     8   6 C        2.977     0.010    27.800     8.649
     9   6 C        2.925    -0.034    28.854     8.809
    10   6 C        2.918    -0.031    28.769     8.796
    11   6 C        2.920    -0.032    28.802     8.801
    12   6 C        2.918    -0.031    28.763     8.795
    13   6 C        2.925    -0.034    28.851     8.809
    14   6 C        2.929    -0.040    28.987     8.829
    15   6 C        2.974     0.014    27.685     8.631
    16   6 C        2.978    -0.005    28.144     8.702
    17   6 C        2.984     0.006    27.884     8.662
    18   6 C        2.917    -0.035    28.859     8.809
    19   6 C        2.914    -0.031    28.768     8.795
    20   6 C        2.914    -0.031    28.763     8.794
    21   6 C        2.917    -0.035    28.880     8.812
    22   6 C        2.983     0.006    27.879     8.661
    23   6 C        2.976    -0.007    28.191     8.709
    24   6 C        2.976     0.018    27.593     8.617
    25   6 C        2.922    -0.031    28.767     8.796
    26   6 C        2.926    -0.029    28.734     8.791
    27   6 C        2.974    -0.004    28.112     8.697
    28   6 C        3.193     0.137    24.551     8.080
    29   7 N        1.893    -0.319    29.133     8.002
    30   6 C        3.206     0.060    26.079     8.317
    31   6 C        2.985    -0.003    28.097     8.695
    32   6 C        2.921    -0.034    28.835     8.806
    33   6 C        2.917    -0.032    28.795     8.800
    34   6 C        2.917    -0.034    28.856     8.809
    35   6 C        2.921    -0.037    28.909     8.817
    36   6 C        2.979    -0.005    28.141     8.702
    37   6 C        2.979    -0.002    28.064     8.690
    38   6 C        2.922    -0.035    28.875     8.812
    39   6 C        2.916    -0.034    28.851     8.808
    40   6 C        2.917    -0.033    28.811     8.802
    41   6 C        2.919    -0.041    29.029     8.835
    42   6 C        2.978    -0.005    28.147     8.703
    43   6 C        3.074     0.022    27.445     8.589
    44   7 N        2.840    -0.055    22.297     7.013
    45   6 C        2.913     0.067    26.510     8.443
    46   6 C        2.921    -0.037    28.919     8.819
    47   6 C        2.920    -0.026    28.654     8.778
    48   6 C        2.919    -0.028    28.711     8.787
    49   6 C        2.920    -0.025    28.623     8.773
    50   6 C        2.921    -0.038    28.947     8.823
    51   6 C        2.921    -0.036    28.887     8.814
    52   6 C        2.923    -0.032    28.799     8.800
    53   6 C        2.983     0.006    27.885     8.662
    54   6 C        2.917    -0.036    28.888     8.814
    55   6 C        2.914    -0.031    28.769     8.795
    56   6 C        2.914    -0.031    28.775     8.796
    57   6 C        2.917    -0.034    28.849     8.808
    58   6 C        2.984     0.006    27.884     8.662
    59   6 C        2.929    -0.040    28.987     8.830
    60   6 C        2.925    -0.034    28.855     8.809
    61   6 C        2.918    -0.031    28.769     8.796
    62   1 H        0.926     0.030     2.585     2.514
    63   1 H        0.926     0.030     2.581     2.512
    64   1 H        0.926     0.032     2.558     2.501
    65   1 H        0.926     0.034     2.530     2.487
    66   1 H        0.926     0.032     2.562     2.503
    67   1 H        0.926     0.031     2.577     2.510
    68   1 H        0.926     0.030     2.584     2.514
    69   1 H        0.926     0.030     2.581     2.512
    70   1 H        0.926     0.032     2.560     2.502
    71   1 H        0.926     0.031     2.569     2.506
    72   1 H        0.926     0.032     2.561     2.502
    73   1 H        0.926     0.030     2.579     2.512
    74   1 H        0.926     0.030     2.580     2.512
    75   1 H        0.926     0.032     2.561     2.502
    76   1 H        0.926     0.040     2.447     2.446
    77   1 H        0.926     0.044     2.402     2.423
    78   1 H        0.926     0.043     2.409     2.427
    79   1 H        0.926     0.032     2.553     2.499
    80   1 H        0.926     0.032     2.560     2.502
    81   1 H        0.926     0.035     2.523     2.484
    82   1 H        0.926     0.037     2.492     2.468
    83   1 H        0.926     0.033     2.550     2.497
    84   1 H        0.926     0.032     2.561     2.503
    85   1 H        0.926     0.029     2.595     2.519
    86   1 H        0.926     0.041     2.431     2.438
    87   1 H        0.926     0.047     2.352     2.398
    88   1 H        0.926     0.048     2.346     2.395
    89   1 H        0.926     0.047     2.356     2.400
    90   1 H        0.926     0.037     2.486     2.466
    91   1 H        0.926     0.029     2.599     2.521
    92   1 H        0.926     0.038     2.474     2.460
    93   1 H        0.926     0.031     2.571     2.507
    94   1 H        0.926     0.031     2.576     2.510
    95   1 H        0.926     0.030     2.579     2.512
    96   1 H        0.926     0.032     2.562     2.503
    97   1 H        0.926     0.031     2.569     2.507
    98   1 H        0.926     0.032     2.562     2.503
    99   1 H        0.926     0.031     2.578     2.511

molecular dipole:
                 x           y           z       tot (Debye)
 q only:       -0.776      -1.231       0.461
   full:       -0.605      -1.525       0.567       4.412

 projected vibrational frequencies (cm⁻¹)
eigval :       -0.00    -0.00    -0.00    -0.00     0.00     0.00
eigval :        8.37     9.39    11.49    17.42    23.03    28.02
eigval :       31.69    39.95    43.08    44.15    46.83    48.57
eigval :       54.74    63.03    73.00    75.63    84.19    89.11
eigval :       92.78    98.64   101.30   113.03   118.33   125.23
eigval :      162.61   168.21   170.26   176.89   205.55   213.55
eigval :      220.55   225.37   227.64   244.35   249.05   260.43
eigval :      262.86   269.35   274.48   293.49   306.29   320.39
eigval :      349.26   352.55   363.03   372.25   373.09   374.22
eigval :      377.26   387.98   389.29   396.15   400.57   402.46
eigval :      411.90   418.27   435.12   440.82   445.66   448.07
eigval :      459.18   473.96   477.08   487.07   508.20   520.27
eigval :      521.71   524.38   535.13   546.41   580.95   582.02
eigval :      583.88   584.33   586.42   587.63   589.85   598.54
eigval :      602.76   609.83   628.10   629.14   631.46   638.64
eigval :      643.31   653.02   655.03   667.40   670.37   673.77
eigval :      677.85   682.21   684.40   689.84   693.59   706.41
eigval :      707.52   733.87   735.49   740.23   752.65   762.88
eigval :      763.72   766.65   773.61   774.72   776.04   782.56
eigval :      796.03   820.44   829.17   836.59   862.39   873.34
eigval :      873.52   874.53   874.80   875.73   876.22   878.85
eigval :      893.78   895.08   900.10   901.94   904.23   906.17
eigval :      907.01   912.72   914.12   916.66   918.97   923.41
eigval :      923.47   926.25   927.34   928.80   928.91   929.66
eigval :      929.73   932.12   932.36   932.49   932.60   934.55
eigval :      936.79   938.84   956.28   985.10   989.61   992.86
eigval :     1005.54  1016.96  1031.68  1067.65  1078.93  1079.61
eigval :     1080.51  1083.09  1083.96  1084.16  1101.41  1106.30
eigval :     1114.53  1118.95  1120.93  1122.26  1132.25  1133.87
eigval :     1136.06  1148.16  1151.25  1172.79  1178.59  1178.86
eigval :     1179.38  1181.06  1181.57  1182.40  1182.96  1188.55
eigval :     1193.73  1196.32  1200.04  1201.32  1207.19  1218.14
eigval :     1227.16  1241.96  1246.94  1252.11  1255.92  1256.67
eigval :     1261.52  1269.56  1274.43  1280.85  1281.92  1282.15
eigval :     1299.44  1303.26  1309.06  1311.32  1311.96  1316.94
eigval :     1318.69  1328.18  1337.07  1341.04  1347.70  1348.69
eigval :     1371.36  1378.53  1382.98  1397.09  1406.33  1412.47
eigval :     1416.84  1419.45  1420.10  1427.50  1429.31  1430.89
eigval :     1435.18  1436.07  1438.96  1450.56  1469.54  1478.68
eigval :     1483.15  1484.07  1487.31  1512.85  1514.31  1524.91
eigval :     1529.04  1540.79  1542.38  1556.19  1562.78  1568.17
eigval :     1573.95  1574.68  1581.50  1581.99  1583.71  1591.42
eigval :     1593.15  1595.23  1599.10  1599.24  1603.37  1607.02
eigval :     1621.26  3065.98  3066.25  3067.53  3067.67  3068.71
eigval :     3068.79  3068.84  3072.77  3075.41  3075.60  3075.77
eigval :     3076.01  3076.92  3078.23  3078.37  3078.59  3078.80
eigval :     3079.57  3079.76  3080.58  3081.40  3083.13  3083.80
eigval :     3086.51  3087.54  3087.99  3088.09  3088.70  3091.47
eigval :     3091.87  3093.21  3093.42  3095.13  3096.34  3097.43
eigval :     3101.94  3108.90  3115.69

   temp. (K)  partition function   enthalpy   heat capacity  entropy
                                   cal/mol     cal/K/mol   cal/K/mol   J/K/mol
 298.15  VIB  0.649E+23            28221.677    177.513    177.262
         ROT  0.214E+09              888.752      2.981     41.096
         INT  0.139E+32            29110.430    180.493    218.358
         TR   0.209E+29             1481.254      4.968     45.801
         TOT                       30591.6837   185.4616   264.1591  1105.2417

       T/K    H(0)-H(T)+PV         H(T)/Eh          T*S/Eh         G(T)/Eh
   ------------------------------------------------------------------------
    298.15    0.487510E-01    0.812437E+00    0.125511E+00    0.686927E+00
   ------------------------------------------------------------------------

         :::::::::::::::::::::::::::::::::::::::::::::::::::::
         ::                  THERMODYNAMIC                  ::
         :::::::::::::::::::::::::::::::::::::::::::::::::::::
         :: total free energy        -150.987822607841 Eh   ::
         ::.................................................::
         :: total energy             -151.674749289669 Eh   ::
         :: zero point energy           0.763686250612 Eh   ::
         :: G(RRHO) w/o ZPVE           -0.076759568784 Eh   ::
         :: G(RRHO) contrib.            0.686926681828 Eh   ::
         :::::::::::::::::::::::::::::::::::::::::::::::::::::

           -------------------------------------------------
          | TOTAL ENERGY             -151.674749289669 Eh   |
          | TOTAL ENTHALPY           -150.862312087879 Eh   |
          | TOTAL FREE ENERGY        -150.987822607841 Eh   |
          | GRADIENT NORM               0.000053285407 Eh/α |
          | HOMO-LUMO GAP               2.112815231411 eV   |
           -------------------------------------------------

 * finished run on 2025/07/19 at 15:54:54.845
