   * xtb version 6.7.1 (edcfbbe) compiled by 'albert@albert-system' on 2024-07-22

   ID    Z sym.   atoms
    1    6 C      1-15, 17-29, 31-40
    2    8 O      16
    3    7 N      30
    4    1 H      41-73

          program call               : xtb data2507/gas/SIR-A/SIR-A_gas_S0_crest.xyz --gfn 2 --ohess vtight --parallel 40 --molden --ceasefiles --namespace data2507/gas/SIR-A/SIR-A_gas_S0_finalOpt
          :  Hamiltonian                  GFN2-xTB          :
 * total energy  :  -105.2503846 Eh     change       -0.2757702E-08 Eh
 * total energy  :  -105.2503852 Eh     change       -0.6151056E-06 Eh
 * total energy  :  -105.2503857 Eh     change       -0.4407928E-06 Eh
 * total energy  :  -105.2503864 Eh     change       -0.7459548E-06 Eh
 * total energy  :  -105.2503869 Eh     change       -0.5040815E-06 Eh
 * total energy  :  -105.2503872 Eh     change       -0.2698666E-06 Eh
 * total energy  :  -105.2503872 Eh     change        0.7652403E-08 Eh
 * total energy  :  -105.2503875 Eh     change       -0.2549107E-06 Eh
 * total energy  :  -105.2503877 Eh     change       -0.2520537E-06 Eh
 * total energy  :  -105.2503879 Eh     change       -0.2226193E-06 Eh
 * total energy  :  -105.2503881 Eh     change       -0.2010627E-06 Eh
 * total energy  :  -105.2503882 Eh     change       -0.2940645E-07 Eh
   *** GEOMETRY OPTIMIZATION CONVERGED AFTER 12 ITERATIONS ***

 final structure:
================
73
 xtb: 6.7.1 (edcfbbe)
C           -1.52607794856220        5.01636815577860        0.04302175080375
C           -0.80488350687037        3.70320989303337        0.05139549992696
C            0.58144808622029        3.63479476166772        0.06894956383376
C            1.23500035514898        2.41976171423300        0.05787957753444
C            0.51952738591467        1.22074460536074        0.02359829561546
C           -0.87558560174700        1.27995578239624        0.01752251928981
C           -1.51191568093553        2.50990070950377        0.02882791695556
C           -1.73618872155649        0.03060848589670        0.00535947780515
C           -2.53754370125286        0.02833422846006       -1.27416102782060
C           -1.84997909706750        0.06870516472023       -2.48265263918786
C           -2.52746603502468        0.06242056756235       -3.68575384331614
C           -3.91492201561177        0.01343154595397       -3.70428624730831
C           -4.60737577701672       -0.03024922922967       -2.51466538263344
C           -3.93048478859173       -0.02356771367198       -1.29233254996908
C           -4.73131325921895       -0.07305684506743       -0.05280793170787
O           -5.94779271579856       -0.15286975539858       -0.07614220542969
C           -3.97928844786903       -0.01707650384548        1.21671601505937
C           -4.70302032362881       -0.01819500361995        2.41195421472000
C           -4.05715499316676        0.03427142763043        3.62717297498941
C           -2.67013871307927        0.08737940901384        3.66206689501249
C           -1.94651888264367        0.08746988118003        2.48609729448908
C           -2.58673301074173        0.03712702827666        1.25224502973414
C           -0.89812324668985       -1.23563555479991        0.02275521560236
C           -1.55603929884003       -2.45482306381343        0.03220963228103
C           -0.87017935807795       -3.65970715123867        0.03231266464087
C           -1.60760451861375       -4.96378647522298        0.02330012902883
C            0.51786477749313       -3.61555002241812        0.01220423574347
C            1.19199970988916       -2.41253021986036        0.00248738839211
C            0.49739633350398       -1.20038611053687        0.01632356163636
N            1.18273815593663        0.00409727844554        0.01203010346152
C            2.60491769666962       -0.00754715287036       -0.00160600428998
C            3.29575544084960        0.18789385896499       -1.18739114924178
C            4.67964650104910        0.17894272983285       -1.19882820248250
C            5.40957080477312       -0.02766528591128       -0.03423756444415
C            6.92945453860813       -0.04739318401406       -0.00355456277985
C            7.42443542572549        1.06256057305701        0.93457592902982
C            7.55118905117689        0.18179262912058       -1.38375907879106
C            7.40041189236052       -1.41455900158825        0.51236861944184
C            4.69835162837769       -0.22364878366022        1.14809468238599
C            3.31795392896508       -0.21328884997444        1.17180683401547
H           -0.86642642532709        5.82360555960733        0.35191581909830
H           -2.38495252980082        4.98714673570772        0.71070564914228
H           -1.89136123756924        5.23828009782821       -0.96028674263397
H            1.16348323553835        4.54475465885830        0.09497288256785
H            2.31389014804531        2.39539742343749        0.08032681158978
H           -2.59314000194353        2.53290576451873        0.02165548212588
H           -0.77005731297375        0.10583707344554       -2.47222479104550
H           -1.97510699429599        0.09512431712768       -4.61356884918996
H           -4.44567891599578        0.00855927261380       -4.64463174318883
H           -5.68649072665429       -0.07075635167255       -2.49307861568577
H           -5.78041888188006       -0.06127467480915        2.34883828531004
H           -4.62394490734111        0.03348636799663        4.54626198280077
H           -2.15430449631360        0.12825409449771        4.61031198119499
H           -0.86708578435666        0.12893164736725        2.51667701168547
H           -2.63744616269249       -2.45910893298449        0.03896204898368
H           -1.02211007500152       -5.74343286123441        0.50540578438571
H           -2.56262488794175       -4.87036863148402        0.53516671939968
H           -1.80524372111180       -5.27576226406283       -1.00310667101476
H            1.08305777693608       -4.53637356493228        0.00344855310649
H            2.27117983594111       -2.40713376700614       -0.01781611321127
H            2.74525610178869        0.35106697237082       -2.10249133623731
H            5.17962888712807        0.33533472026193       -2.14033656273716
H            7.07427506918779        2.03254467958298        0.58747776572859
H            7.06664491742140        0.91450002371050        1.94961102941124
H            8.51192597051070        1.07609478039896        0.95602268743285
H            7.25132010616420       -0.59536157827405       -2.08296466524260
H            8.63569508100416        0.15649649436284       -1.30009802633646
H            7.26914814438351        1.15255919611806       -1.78483275017834
H            8.48737310466447       -1.45539832094388        0.52341106860254
H            7.03206524804945       -2.20805761988350       -0.13466208695853
H            7.04335823392530       -1.60381729351434        1.52080091483590
H            5.22528257783756       -0.38663246860856        2.07583606407253
H            2.78455832701611       -0.36806983244927        2.09834736715883

          :  Hamiltonian                  GFN2-xTB          :
         :: gradient norm              0.000076909552 Eh/a0 ::
         :: HOMO-LUMO gap              1.645156187130 eV    ::
         :: SCC energy              -107.124324049217 Eh    ::
         :: -> dispersion             -0.102059183776 Eh    ::
         :: repulsion energy           1.873935889492 Eh    ::

    * Orbital Energies and Occupations

         #    Occupation            Energy/Eh            Energy/eV
      -------------------------------------------------------------
         1        2.0000           -0.6894646             -18.7613
       ...           ...                  ...                  ...
        86        2.0000           -0.4205458             -11.4436
        87        2.0000           -0.4159470             -11.3185
        88        2.0000           -0.4141135             -11.2686
        89        2.0000           -0.4090846             -11.1318
        90        2.0000           -0.4075765             -11.0907
        91        2.0000           -0.4057094             -11.0399
        92        2.0000           -0.4023548             -10.9486
        93        2.0000           -0.3944798             -10.7343
        94        2.0000           -0.3938408             -10.7170
        95        2.0000           -0.3932011             -10.6995
        96        2.0000           -0.3926900             -10.6856
        97        2.0000           -0.3765501             -10.2464
        98        2.0000           -0.3428896              -9.3305 (HOMO)
        99                         -0.2824312              -7.6853 (LUMO)
       100                         -0.2352140              -6.4005
       101                         -0.2337964              -6.3619
       102                         -0.2320311              -6.3139
       103                         -0.2272365              -6.1834
       104                         -0.2258842              -6.1466
       105                         -0.2199036              -5.9839
       106                         -0.2190825              -5.9615
       107                         -0.2131429              -5.7999
       108                         -0.1877312              -5.1084
       109                         -0.1707326              -4.6459
       ...                                ...                  ...
       193                          0.7104792              19.3331
      -------------------------------------------------------------
                  HL-Gap            0.0604584 Eh            1.6452 eV

     #   Z          covCN         q      C6AA      α(0)
     1   6 C        3.757    -0.107    22.601     6.778
     2   6 C        2.964     0.005    27.906     8.665
     3   6 C        2.925    -0.042    29.045     8.838
     4   6 C        2.922    -0.060    29.490     8.905
     5   6 C        2.926     0.056    26.752     8.482
     6   6 C        2.989    -0.012    28.315     8.729
     7   6 C        2.932    -0.046    29.135     8.852
     8   6 C        3.929     0.014    20.273     6.399
     9   6 C        2.988     0.017    27.633     8.623
    10   6 C        2.924    -0.033    28.811     8.802
    11   6 C        2.920    -0.024    28.599     8.770
    12   6 C        2.917    -0.031    28.774     8.796
    13   6 C        2.926    -0.020    28.505     8.756
    14   6 C        2.976    -0.020    28.509     8.758
    15   6 C        2.832     0.223    23.308     7.911
    16   8 O        0.858    -0.390    21.491     6.215
    17   6 C        2.976    -0.021    28.514     8.759
    18   6 C        2.926    -0.020    28.510     8.756
    19   6 C        2.917    -0.031    28.774     8.796
    20   6 C        2.920    -0.024    28.596     8.769
    21   6 C        2.924    -0.032    28.806     8.802
    22   6 C        2.988     0.017    27.633     8.623
    23   6 C        2.991    -0.012    28.311     8.728
    24   6 C        2.932    -0.046    29.138     8.853
    25   6 C        2.964     0.005    27.904     8.665
    26   6 C        3.757    -0.107    22.602     6.778
    27   6 C        2.925    -0.042    29.050     8.839
    28   6 C        2.922    -0.060    29.485     8.905
    29   6 C        2.925     0.056    26.749     8.482
    30   7 N        2.753    -0.073    22.657     7.070
    31   6 C        2.927     0.064    26.570     8.453
    32   6 C        2.921    -0.041    29.010     8.833
    33   6 C        2.925    -0.039    28.964     8.826
    34   6 C        2.973     0.009    27.803     8.649
    35   6 C        3.903     0.026    20.082     6.370
    36   6 C        3.762    -0.106    22.576     6.773
    37   6 C        3.761    -0.109    22.624     6.780
    38   6 C        3.762    -0.106    22.576     6.773
    39   6 C        2.928    -0.034    28.858     8.810
    40   6 C        2.920    -0.041    29.008     8.832
    41   1 H        0.925     0.040     2.444     2.445
    42   1 H        0.925     0.043     2.413     2.429
    43   1 H        0.924     0.045     2.386     2.416
    44   1 H        0.926     0.029     2.596     2.520
    45   1 H        0.926     0.027     2.628     2.535
    46   1 H        0.925     0.026     2.644     2.543
    47   1 H        0.926     0.031     2.571     2.507
    48   1 H        0.926     0.035     2.518     2.481
    49   1 H        0.926     0.037     2.495     2.470
    50   1 H        0.926     0.061     2.190     2.314
    51   1 H        0.926     0.061     2.192     2.315
    52   1 H        0.926     0.037     2.495     2.470
    53   1 H        0.926     0.035     2.514     2.480
    54   1 H        0.926     0.031     2.569     2.506
    55   1 H        0.925     0.026     2.641     2.541
    56   1 H        0.925     0.041     2.432     2.439
    57   1 H        0.925     0.042     2.421     2.433
    58   1 H        0.924     0.045     2.382     2.414
    59   1 H        0.926     0.030     2.588     2.516
    60   1 H        0.926     0.027     2.622     2.532
    61   1 H        0.926     0.037     2.495     2.470
    62   1 H        0.926     0.043     2.406     2.426
    63   1 H        0.925     0.035     2.521     2.483
    64   1 H        0.925     0.037     2.484     2.465
    65   1 H        0.925     0.040     2.454     2.450
    66   1 H        0.925     0.037     2.491     2.468
    67   1 H        0.925     0.038     2.469     2.457
    68   1 H        0.925     0.037     2.491     2.468
    69   1 H        0.925     0.040     2.455     2.450
    70   1 H        0.925     0.035     2.521     2.483
    71   1 H        0.925     0.037     2.484     2.464
    72   1 H        0.926     0.036     2.498     2.471
    73   1 H        0.926     0.037     2.491     2.468

molecular dipole:
                 x           y           z       tot (Debye)
 q only:        2.285       0.063       0.006
   full:        2.436       0.072      -0.000       6.193

 projected vibrational frequencies (cm⁻¹)
eigval :       -0.00    -0.00    -0.00    -0.00     0.00     0.00
eigval :       -3.96     5.82     7.39     8.48     9.90    27.06
eigval :       30.56    39.52    50.89    54.67    60.59    86.86
eigval :      102.60   105.34   115.42   122.62   126.28   135.84
eigval :      174.50   185.29   207.08   211.99   216.16   220.60
eigval :      232.55   255.31   255.50   269.99   291.47   300.12
eigval :      314.74   316.19   326.81   336.23   343.86   361.09
eigval :      361.84   368.70   375.95   380.61   398.84   412.07
eigval :      419.26   421.08   436.37   438.24   442.59   450.73
eigval :      466.17   467.18   490.72   519.81   520.67   540.90
eigval :      549.87   564.70   577.68   600.24   608.40   612.48
eigval :      625.63   630.07   634.98   646.44   666.19   666.79
eigval :      688.25   702.29   704.03   724.98   738.69   743.55
eigval :      778.76   787.38   802.10   811.87   814.28   820.02
eigval :      860.41   870.87   879.71   881.46   884.02   887.38
eigval :      887.99   898.92   912.20   913.26   914.69   923.67
eigval :      924.11   924.38   928.65   930.43   931.48   932.48
eigval :      954.80   961.03   961.72   963.45   963.84   996.75
eigval :     1015.13  1021.02  1031.17  1033.38  1033.77  1035.37
eigval :     1035.77  1090.32  1094.27  1094.83  1117.98  1139.10
eigval :     1143.18  1144.66  1146.19  1177.98  1179.06  1184.85
eigval :     1187.15  1197.35  1202.42  1217.07  1220.00  1226.79
eigval :     1228.09  1234.00  1237.97  1253.85  1266.52  1267.27
eigval :     1271.97  1272.19  1274.93  1280.75  1292.04  1312.17
eigval :     1328.93  1333.80  1335.39  1337.30  1338.51  1365.86
eigval :     1397.84  1405.06  1405.22  1406.77  1409.81  1421.89
eigval :     1424.56  1425.37  1428.22  1430.23  1464.52  1469.02
eigval :     1482.96  1483.86  1485.45  1486.11  1488.42  1491.71
eigval :     1493.73  1494.73  1502.08  1505.58  1509.22  1514.71
eigval :     1519.17  1568.13  1570.49  1571.27  1579.74  1586.79
eigval :     1592.14  1595.01  1603.03  1606.55  1614.75  1677.35
eigval :     2991.77  2994.93  3024.95  3026.62  3027.63  3028.63
eigval :     3031.70  3033.72  3034.95  3036.97  3037.06  3040.33
eigval :     3040.79  3047.83  3051.27  3071.49  3071.87  3073.83
eigval :     3073.97  3075.90  3076.61  3080.58  3081.40  3081.64
eigval :     3083.18  3088.62  3089.02  3093.39  3095.59  3095.88
eigval :     3096.10  3096.57  3117.63

   temp. (K)  partition function   enthalpy   heat capacity  entropy
                                   cal/mol     cal/K/mol   cal/K/mol   J/K/mol
 298.15  VIB  0.742E+19            20819.685    126.323    133.947
         ROT  0.384E+08              888.752      2.981     37.683
         INT  0.285E+27            21708.437    129.304    171.630
         TR   0.115E+29             1481.254      4.968     44.610
         TOT                       23189.6913   134.2723   216.2401   904.7486

       T/K    H(0)-H(T)+PV         H(T)/Eh          T*S/Eh         G(T)/Eh
   ------------------------------------------------------------------------
    298.15    0.369551E-01    0.624077E+00    0.102743E+00    0.521334E+00
   ------------------------------------------------------------------------

         :::::::::::::::::::::::::::::::::::::::::::::::::::::
         ::                  THERMODYNAMIC                  ::
         :::::::::::::::::::::::::::::::::::::::::::::::::::::
         :: total free energy        -104.729054125910 Eh   ::
         ::.................................................::
         :: total energy             -105.250388159724 Eh   ::
         :: zero point energy           0.587121563309 Eh   ::
         :: G(RRHO) w/o ZPVE           -0.065787529495 Eh   ::
         :: G(RRHO) contrib.            0.521334033814 Eh   ::
         :::::::::::::::::::::::::::::::::::::::::::::::::::::

           -------------------------------------------------
          | TOTAL ENERGY             -105.250388159724 Eh   |
          | TOTAL ENTHALPY           -104.626311471092 Eh   |
          | TOTAL FREE ENERGY        -104.729054125910 Eh   |
          | GRADIENT NORM               0.000076902692 Eh/α |
          | HOMO-LUMO GAP               1.645157721515 eV   |
           -------------------------------------------------

 * finished run on 2025/09/11 at 23:22:12.782
