   * xtb version 6.7.1 (edcfbbe) compiled by 'albert@albert-system' on 2024-07-22

   ID    Z sym.   atoms
    1    6 C      1-15, 17-29, 31-40
    2    8 O      16
    3    7 N      30
    4    1 H      41-73

          program call               : xtb data2507/gas/SIR-A/SIR-A_gas_T1_crest.xyz --gfn 2 --spinpol --tblite --uhf 2 --ohess vtight --parallel 40 --molden --ceasefiles --namespace data2507/gas/SIR-A/SIR-A_gas_T1_finalOpt
 * total energy  :  -105.1736212 Eh     change       -0.2080579E-07 Eh
 * total energy  :  -105.1736597 Eh     change       -0.3851756E-04 Eh
 * total energy  :  -105.1736734 Eh     change       -0.1367292E-04 Eh
 * total energy  :  -105.1736745 Eh     change       -0.1138882E-05 Eh
 * total energy  :  -105.1736741 Eh     change        0.3812014E-06 Eh
 * total energy  :  -105.1736750 Eh     change       -0.9003707E-06 Eh
 * total energy  :  -105.1736755 Eh     change       -0.4875827E-06 Eh
 * total energy  :  -105.1736765 Eh     change       -0.1007975E-05 Eh
 * total energy  :  -105.1736775 Eh     change       -0.9850954E-06 Eh
 * total energy  :  -105.1736783 Eh     change       -0.8210388E-06 Eh
 * total energy  :  -105.1736799 Eh     change       -0.3443053E-06 Eh
 * total energy  :  -105.1736802 Eh     change       -0.3446459E-06 Eh
 * total energy  :  -105.1736806 Eh     change       -0.3603038E-06 Eh
 * total energy  :  -105.1736808 Eh     change       -0.1902386E-06 Eh
 * total energy  :  -105.1736810 Eh     change       -0.2336719E-06 Eh
 * total energy  :  -105.1736812 Eh     change       -0.1803263E-06 Eh
 * total energy  :  -105.1736815 Eh     change       -0.2958784E-06 Eh
 * total energy  :  -105.1736818 Eh     change       -0.3275143E-06 Eh
 * total energy  :  -105.1736818 Eh     change       -0.6961841E-08 Eh
   *** GEOMETRY OPTIMIZATION CONVERGED AFTER 22 ITERATIONS ***

 final structure:
================
73
 xtb: 6.7.1 (edcfbbe)
C           -1.53304873861394        4.98932537455164        0.02596196923112
C           -0.82464667373111        3.67197349966220        0.02127921574172
C            0.56889475285335        3.61631327857824        0.03989401794009
C            1.23120486416698        2.41088891928443        0.04799553288743
C            0.51765763380374        1.20552202744079        0.03731102562357
C           -0.88189899424172        1.24907105349365        0.02130172217044
C           -1.52535852987008        2.47773085610748        0.01310682064628
C           -1.72160685169261       -0.00246810437361        0.00722550484074
C           -2.53552564498764       -0.00949410177678       -1.27800672947517
C           -1.84321302675375       -0.02478208536897       -2.47589971193469
C           -2.51092180936362       -0.02878179897294       -3.69020692895480
C           -3.90110749064337       -0.01684724667010       -3.70529359864964
C           -4.60611667357960       -0.00186469800499       -2.52800412372805
C           -3.93530125149863        0.00187484013936       -1.28750329651118
C           -4.72853307434727        0.01693564507970       -0.08103447253604
O           -5.99338148656102        0.02837763108006       -0.11777745816653
C           -4.00717575066430        0.01711579738691        1.17013817145396
C           -4.74886041454408        0.02803799612484        2.36941591053745
C           -4.11318368344083        0.02828828942572        3.58574539715137
C           -2.72448835455137        0.01762805327470        3.65140800602752
C           -1.98744278789052        0.00710253736350        2.47791991075571
C           -2.60915461030595        0.00668023998203        1.24176938449198
C           -0.88208616212101       -1.25361528990882        0.03655797205901
C           -1.52600092631776       -2.48229123381016        0.04363131853249
C           -0.82560272468805       -3.67631190015905        0.06109790912237
C           -1.53132568325432       -4.99513556060545        0.06698326146006
C            0.56833445468872       -3.62083325605045        0.06836309326939
C            1.23092174533267       -2.41577621191452        0.06180667825562
C            0.51743499099657       -1.21022736330562        0.04858123905263
N            1.18665161133315       -0.00242806932664        0.04511568638904
C            2.61088898484987       -0.00202196336097        0.04365389154645
C            3.30640860248430        0.03969215615184       -1.15671530785679
C            4.68699228087076        0.04103042436350       -1.15090536947338
C            5.41225789549914        0.00108065849007        0.03862628065939
C            6.93125063181803        0.00503797439737       -0.01332712823849
C            7.56980442413410       -0.03907380702180        1.37736959688755
C            7.40235006574262        1.28591365535109       -0.71664788642405
C            7.40588323651151       -1.22614880688172       -0.79822175503747
C            4.69686291206993       -0.04092091832087        1.22980045971778
C            3.31281474999991       -0.04245692912900        1.23784078334388
H           -1.44316465771505        5.45915369203227        1.00574700842737
H           -2.58874211427473        4.86202217887798       -0.19734095271976
H           -1.09437913240633        5.66397454423204       -0.70724270623048
H            1.13833833038759        4.53422786825817        0.04771033284816
H            2.31032978557008        2.39172083352422        0.06271755429247
H           -2.60557896763516        2.48963663417296       -0.00081322507848
H           -0.76131202481809       -0.03365897080329       -2.45757214335128
H           -1.95160060438403       -0.04078918387236       -4.61342529272127
H           -4.43125556869276       -0.01944714699360       -4.64689489338011
H           -5.68540157204453        0.00740528878902       -2.51314020685263
H           -5.82547174946378        0.03612358928607        2.29215100479946
H           -4.69708838864105        0.03678536685656        4.49495683702616
H           -2.21967431204390        0.01774220836860        4.60559194591789
H           -0.90619183049689       -0.00074937617736        2.52166481550437
H           -2.60629585854384       -2.49345947533745        0.03435859308859
H           -1.22736496049946       -5.58493907275284        0.93098570971890
H           -2.60858887821572       -4.85797096152595        0.09852693852762
H           -1.27823735832948       -5.56346443612270       -0.82766687782198
H            1.13722191219678       -4.53907296417350        0.07903472223921
H            2.31014253015084       -2.39663762325496        0.06636645243971
H            2.76081421697882        0.07157775308390       -2.08823049940783
H            5.20225279237062        0.07394266258204       -2.09831736994506
H            7.28443889147684        0.82828066906984        1.96814557330425
H            7.28820204858538       -0.94427815837252        1.91033107718230
H            8.65301758495542       -0.03357563808537        1.27713775580837
H            7.03411565296239        1.33877578532024       -1.73732203772167
H            8.48911555375872        1.31675787016166       -0.74583444424897
H            7.04714034337939        2.16293689991383       -0.17945628184848
H            8.49266992444366       -1.24989283150313       -0.83257923206143
H            7.03434905943204       -1.21560594599542       -1.81902395196161
H            7.05642051891191       -2.13729219701274       -0.31696664946746
H            5.20851664319142       -0.07281258542405        2.17720248381453
H            2.77251190775979       -0.07538246809125        2.17248391176796

 projected vibrational frequencies (cm⁻¹)
eigval :       -0.00    -0.00    -0.00    -0.00    -0.00     0.00
eigval :      -10.15    -4.18     4.33     6.90    11.52    27.08
eigval :       35.25    40.37    49.56    58.98    63.76    83.34
eigval :      102.24   103.74   123.97   126.56   131.62   134.14
eigval :      173.80   186.15   209.98   212.84   217.86   221.26
eigval :      232.28   255.32   261.25   269.28   293.61   296.28
eigval :      304.50   316.30   318.68   333.48   338.50   356.23
eigval :      360.47   362.08   373.16   379.12   399.60   402.66
eigval :      420.18   424.20   432.62   441.42   442.41   453.85
eigval :      463.07   478.48   486.29   518.67   523.07   531.20
eigval :      540.69   545.32   554.65   579.10   586.68   606.20
eigval :      612.42   616.59   619.92   634.25   655.38   662.44
eigval :      675.72   691.91   692.22   704.40   738.59   744.71
eigval :      754.60   763.91   784.73   810.85   813.66   818.61
eigval :      855.35   856.06   857.36   869.57   878.13   878.53
eigval :      884.22   889.79   889.83   890.40   909.57   909.80
eigval :      913.28   914.07   914.81   922.32   927.80   929.61
eigval :      938.13   959.20   961.11   963.31   964.29   997.23
eigval :     1014.98  1018.83  1028.17  1028.93  1029.87  1035.41
eigval :     1035.63  1080.10  1087.34  1088.17  1108.86  1136.03
eigval :     1141.29  1144.60  1145.68  1163.57  1170.45  1175.57
eigval :     1183.75  1195.42  1196.10  1201.33  1203.08  1206.08
eigval :     1216.68  1227.99  1233.98  1235.27  1252.71  1255.35
eigval :     1260.15  1267.82  1273.71  1279.25  1289.74  1311.50
eigval :     1324.77  1330.72  1342.31  1343.04  1346.83  1350.04
eigval :     1384.22  1397.41  1402.54  1402.81  1406.95  1408.19
eigval :     1409.80  1420.80  1424.40  1430.38  1440.04  1442.33
eigval :     1461.73  1470.76  1475.58  1476.12  1480.99  1482.26
eigval :     1483.77  1490.38  1491.16  1492.99  1501.73  1505.70
eigval :     1514.44  1518.65  1521.95  1527.16  1547.30  1556.06
eigval :     1562.05  1569.56  1579.09  1591.40  1599.64  1604.21
eigval :     2999.12  3003.91  3018.08  3024.43  3027.02  3027.84
eigval :     3030.69  3032.34  3036.14  3037.99  3042.83  3049.24
eigval :     3052.42  3052.55  3054.09  3054.85  3055.68  3070.85
eigval :     3071.01  3081.29  3081.41  3084.80  3086.95  3087.14
eigval :     3087.46  3087.52  3087.70  3096.76  3096.84  3097.14
eigval :     3097.65  3098.22  3121.54

   temp. (K)  partition function   enthalpy   heat capacity  entropy
                                   cal/mol     cal/K/mol   cal/K/mol   J/K/mol
 298.15  VIB  0.614E+19            20946.921    127.758    134.426
         ROT  0.384E+08              888.752      2.981     37.684
         INT  0.236E+27            21835.674    130.739    172.110
         TR   0.115E+29             1481.254      4.968     44.610
         TOT                       23316.9275   135.7068   216.7204   906.7580

       T/K    H(0)-H(T)+PV         H(T)/Eh          T*S/Eh         G(T)/Eh
   ------------------------------------------------------------------------
    298.15    0.371579E-01    0.621185E+00    0.102971E+00    0.518214E+00
   ------------------------------------------------------------------------

         :::::::::::::::::::::::::::::::::::::::::::::::::::::
         ::                  THERMODYNAMIC                  ::
         :::::::::::::::::::::::::::::::::::::::::::::::::::::
         :: total free energy        -104.655467750662 Eh   ::
         ::.................................................::
         :: total energy             -105.173681838894 Eh   ::
         :: zero point energy           0.584027032082 Eh   ::
         :: G(RRHO) w/o ZPVE           -0.065812943850 Eh   ::
         :: G(RRHO) contrib.            0.518214088232 Eh   ::
         :::::::::::::::::::::::::::::::::::::::::::::::::::::

           -------------------------------------------------
          | TOTAL ENERGY             -105.173681838894 Eh   |
          | TOTAL ENTHALPY           -104.552496917670 Eh   |
          | TOTAL FREE ENERGY        -104.655467750662 Eh   |
          | GRADIENT NORM               0.000049318511 Eh/α |
           -------------------------------------------------

 * finished run on 2025/09/11 at 23:27:17.834
