   * xtb version 6.7.1 (edcfbbe) compiled by 'albert@albert-system' on 2024-07-22

   ID    Z sym.   atoms
    1    6 C      1-15, 17-29, 31-40
    2    8 O      16
    3    7 N      30
    4    1 H      41-73

          program call               : xtb data2507/gas/SIR-A/SIR-A_gas_S0_finalOpt.xtbopt.xyz --gfn 2 --spinpol --tblite --uhf 2 --ohess vtight --parallel 40 --molden --ceasefiles --namespace data2507/gas/SIR-A/SIR-A_gas_T1_preOpt
 * total energy  :  -105.1696072 Eh     change       -0.3659756E-07 Eh
 * total energy  :  -105.1728668 Eh     change       -0.3259612E-02 Eh
 * total energy  :  -105.1736064 Eh     change       -0.7395465E-03 Eh
 * total energy  :  -105.1736424 Eh     change       -0.3606470E-04 Eh
 * total energy  :  -105.1736528 Eh     change       -0.1032450E-04 Eh
 * total energy  :  -105.1736560 Eh     change       -0.3294679E-05 Eh
 * total energy  :  -105.1736578 Eh     change       -0.1735999E-05 Eh
 * total energy  :  -105.1736583 Eh     change       -0.4814257E-06 Eh
 * total energy  :  -105.1736590 Eh     change       -0.7278043E-06 Eh
 * total energy  :  -105.1736599 Eh     change       -0.9010458E-06 Eh
 * total energy  :  -105.1736794 Eh     change       -0.4564084E-06 Eh
 * total energy  :  -105.1736800 Eh     change       -0.5473442E-06 Eh
 * total energy  :  -105.1736801 Eh     change       -0.1428030E-06 Eh
 * total energy  :  -105.1736804 Eh     change       -0.2834933E-06 Eh
 * total energy  :  -105.1736805 Eh     change       -0.1112441E-06 Eh
 * total energy  :  -105.1736808 Eh     change       -0.2428018E-06 Eh
 * total energy  :  -105.1736812 Eh     change       -0.4212009E-06 Eh
 * total energy  :  -105.1736814 Eh     change       -0.2134423E-06 Eh
 * total energy  :  -105.1736815 Eh     change       -0.8489577E-07 Eh
   *** GEOMETRY OPTIMIZATION CONVERGED AFTER 50 ITERATIONS ***

 final structure:
================
73
 xtb: 6.7.1 (edcfbbe)
C           -1.51598651635073        4.99683925239960        0.02695370033174
C           -0.80118351202732        3.68303972105028        0.03721381061523
C            0.59053609399169        3.61868358788847        0.04446431130536
C            1.24548759664437        2.40803785457372        0.03285651433468
C            0.52533108381179        1.20763873114110        0.00988573565545
C           -0.87480751337007        1.26006424378687        0.00937536044274
C           -1.50971483522311        2.49179575737561        0.02145864373300
C           -1.72275600832723        0.01398234298035        0.00107344507091
C           -2.56715108692220        0.02472860892483       -1.26395131350115
C           -1.90380751097730        0.01844309195538       -2.47824093900808
C           -2.60036826303846        0.03063104083302       -3.67621258725870
C           -3.99043905243171        0.04976783523165       -3.65796780319481
C           -4.66704186456448        0.05593904201927       -2.46401546751955
C           -3.96673980790426        0.04323152644551       -1.24003725893473
C           -4.73070350405161        0.04958361971953       -0.01470766432985
O           -5.99600501470738        0.06719959616333       -0.02106580709133
C           -3.97961399410409        0.03396383545449        1.21862962786976
C           -4.69260844675264        0.03669710367569        2.43528371967076
C           -4.02838032643071        0.02221523778692        3.63615278819608
C           -2.63857993271477        0.00457586461191        3.66866053454868
C           -1.92960262769658        0.00188636318985        2.47794185313667
C           -2.58030175364394        0.01619924889306        1.25687477258148
C           -0.89093221844014       -1.24266498831934       -0.00106841612918
C           -1.54225372616641       -2.46649375748283       -0.00241439528079
C           -0.84954665184187       -3.66626320060426       -0.01327807533926
C           -1.57471115509547       -4.97424168228650       -0.03565141970202
C            0.54356602078990       -3.61995461775528       -0.02906631287113
C            1.21416400293528       -2.41843499209027       -0.02736467581449
C            0.50944971861517       -1.20839692856777       -0.00799087654432
N            1.18656773169004       -0.00479960403166       -0.00226166979518
C            2.61055414958258       -0.01354252614902       -0.00838711598828
C            3.30521467078628        0.11288763559638       -1.20089479756645
C            4.68922124981140        0.10649751465862       -1.20240757092832
C            5.41225983260239       -0.02629993765198       -0.02258867394735
C            6.93156664593674       -0.03744062422689        0.01849948943062
C            7.41498740687056        1.12665033581953        0.89509747400412
C            7.56083870135844        0.11565083416117       -1.36871950627078
C            7.40393966086206       -1.37098559314983        0.61487187026122
C            4.69443627048534       -0.15364165676074        1.16536317253508
C            3.31391140985697       -0.14766578308265        1.18073202754175
H           -0.89029872009638        5.78487025336646        0.43923826645993
H           -2.43847774984301        4.93695341140999        0.59969813439568
H           -1.77600787017477        5.26973055674509       -0.99650746898355
H            1.16785088501804        4.53151937062700        0.06210902732341
H            2.32447125962426        2.38299313511384        0.04504169928180
H           -2.58991469349636        2.51267690955559        0.02023643592422
H           -0.82180983350416        0.00355982218791       -2.48587399324735
H           -2.06328658919058        0.02537370668873       -4.61262295101238
H           -4.54295326248899        0.05969718369612       -4.58657670192760
H           -5.74558321335157        0.07048876512359       -2.42327140527775
H           -5.77069415188902        0.05057343514719        2.38353732060839
H           -4.59054972834816        0.02464749679888        4.55899627284034
H           -2.11128744401809       -0.00669652016100        4.61052509777051
H           -0.84772346116948       -0.01113815568176        2.49642563255400
H           -2.62261954966856       -2.47202947418431        0.00504018041900
H           -1.02018122980824       -5.73513314009824        0.50927457770376
H           -2.56542037168164       -4.87390780341977        0.40013708852730
H           -1.69181794021233       -5.31617795182916       -1.06476185039543
H            1.10793463057428       -4.54092333478913       -0.04273854962910
H            2.29337100344120       -2.40722735514533       -0.04165793947183
H            2.75917306849517        0.21789422853169       -2.12685535547277
H            5.19468544122675        0.20718417454038       -2.14830734436449
H            7.06215027399083        2.07361472388157        0.49177974906665
H            7.05325121222215        1.03451834770918        1.91530137794577
H            8.50208345677725        1.14706852253634        0.92091660260665
H            7.27069354504304       -0.70228802260082       -2.02410146920658
H            8.64469386595006        0.10167221531700       -1.27656501759970
H            7.27657361064814        1.06019493797985       -1.82674645036493
H            8.49078472357449       -1.40550928766263        0.63592385518612
H            7.04451948413607       -2.20183398301306        0.01119382438333
H            7.04058203281696       -1.50456122958380        1.62992912660855
H            5.21570279636159       -0.25910429884659        2.10417014771430
H            2.77439074225719       -0.24738249057893        2.11100693267295

 projected vibrational frequencies (cm⁻¹)
eigval :       -0.00    -0.00    -0.00     0.00     0.00     0.00
eigval :        7.08     7.97     8.84     9.84    11.82    27.24
eigval :       35.45    40.24    50.03    58.66    63.80    83.98
eigval :      102.53   103.63   124.23   126.23   131.67   135.59
eigval :      173.93   184.53   209.39   213.03   216.94   221.03
eigval :      232.61   255.56   260.75   268.14   293.29   296.41
eigval :      304.51   316.40   320.19   333.27   338.95   356.20
eigval :      361.23   361.89   373.27   379.24   399.57   402.32
eigval :      420.26   423.89   435.45   440.83   442.74   453.69
eigval :      463.15   478.28   486.43   517.94   523.31   531.02
eigval :      540.60   546.04   555.58   578.39   586.67   606.31
eigval :      612.30   616.21   621.32   634.00   655.33   662.65
eigval :      675.85   691.87   692.17   704.20   738.07   744.50
eigval :      754.76   763.92   784.85   809.64   812.61   818.69
eigval :      855.35   856.01   856.89   869.73   878.42   878.89
eigval :      885.48   890.04   890.20   890.38   909.60   909.72
eigval :      912.60   913.37   913.74   921.56   927.90   929.80
eigval :      938.27   958.74   961.08   963.27   964.22   995.87
eigval :     1014.69  1020.12  1026.97  1027.91  1031.45  1035.31
eigval :     1035.56  1080.29  1087.33  1088.12  1108.92  1136.10
eigval :     1141.49  1144.68  1147.32  1163.53  1170.45  1175.58
eigval :     1184.18  1195.85  1196.42  1201.54  1202.77  1205.93
eigval :     1217.01  1227.96  1233.96  1235.01  1252.91  1255.47
eigval :     1260.02  1269.05  1273.71  1280.67  1290.19  1311.69
eigval :     1326.93  1331.09  1342.27  1342.61  1343.98  1346.80
eigval :     1384.06  1397.48  1402.08  1402.34  1406.85  1408.06
eigval :     1409.74  1421.54  1425.01  1430.07  1440.20  1442.42
eigval :     1460.61  1470.77  1476.94  1477.27  1479.05  1479.29
eigval :     1484.49  1491.14  1491.39  1492.85  1501.29  1505.61
eigval :     1514.42  1518.50  1521.95  1527.09  1548.34  1556.02
eigval :     1561.89  1569.45  1578.89  1589.80  1599.27  1603.47
eigval :     2994.90  2995.87  3026.95  3027.83  3030.59  3032.30
eigval :     3034.32  3035.96  3037.93  3039.60  3040.12  3042.55
eigval :     3046.56  3048.98  3052.28  3055.24  3055.43  3070.79
eigval :     3070.96  3080.43  3080.80  3084.68  3086.83  3087.36
eigval :     3087.72  3087.89  3088.42  3096.84  3097.09  3097.29
eigval :     3097.72  3098.12  3121.61

   temp. (K)  partition function   enthalpy   heat capacity  entropy
                                   cal/mol     cal/K/mol   cal/K/mol   J/K/mol
 298.15  VIB  0.155E+19            20933.129    127.770    133.041
         ROT  0.384E+08              888.752      2.981     37.684
         INT  0.593E+26            21821.881    130.751    170.725
         TR   0.115E+29             1481.254      4.968     44.610
         TOT                       23303.1352   135.7190   215.3353   900.9629

       T/K    H(0)-H(T)+PV         H(T)/Eh          T*S/Eh         G(T)/Eh
   ------------------------------------------------------------------------
    298.15    0.371359E-01    0.621170E+00    0.102313E+00    0.518858E+00
   ------------------------------------------------------------------------

         :::::::::::::::::::::::::::::::::::::::::::::::::::::
         ::                  THERMODYNAMIC                  ::
         :::::::::::::::::::::::::::::::::::::::::::::::::::::
         :: total free energy        -104.654823835306 Eh   ::
         ::.................................................::
         :: total energy             -105.173681541148 Eh   ::
         :: zero point energy           0.584034550596 Eh   ::
         :: G(RRHO) w/o ZPVE           -0.065176844754 Eh   ::
         :: G(RRHO) contrib.            0.518857705842 Eh   ::
         :::::::::::::::::::::::::::::::::::::::::::::::::::::

           -------------------------------------------------
          | TOTAL ENERGY             -105.173681541148 Eh   |
          | TOTAL ENTHALPY           -104.552511080755 Eh   |
          | TOTAL FREE ENERGY        -104.654823835306 Eh   |
          | GRADIENT NORM               0.000053771203 Eh/α |
           -------------------------------------------------

 * finished run on 2025/09/11 at 23:22:20.477
