   * xtb version 6.7.1 (edcfbbe) compiled by 'albert@albert-system' on 2024-07-22

   ID    Z sym.   atoms
    1    6 C      1-15, 17-29, 31-40
    2    8 O      16
    3    7 N      30
    4    1 H      41-73

          program call               : xtb data2507/gas/SIR-A/SIR-A.xyz --gfn 2 --ohess vtight --parallel 40 --molden --ceasefiles --namespace data2507/gas/SIR-A/SIR-A_gas_S0_preOpt
          :  Hamiltonian                  GFN2-xTB          :
 * total energy  :  -105.2290702 Eh     change       -0.3350650E-08 Eh
 * total energy  :  -105.2438944 Eh     change       -0.1482414E-01 Eh
 * total energy  :  -105.2488610 Eh     change       -0.4966632E-02 Eh
 * total energy  :  -105.2497546 Eh     change       -0.8936135E-03 Eh
 * total energy  :  -105.2501804 Eh     change       -0.4257712E-03 Eh
 * total energy  :  -105.2503120 Eh     change       -0.1315539E-03 Eh
 * total energy  :  -105.2503646 Eh     change       -0.5260627E-04 Eh
 * total energy  :  -105.2503796 Eh     change       -0.1503708E-04 Eh
 * total energy  :  -105.2503810 Eh     change       -0.1382560E-05 Eh
 * total energy  :  -105.2503813 Eh     change       -0.2831990E-06 Eh
 * total energy  :  -105.2503814 Eh     change       -0.1329258E-06 Eh
 * total energy  :  -105.2503815 Eh     change       -0.9439216E-07 Eh
   *** GEOMETRY OPTIMIZATION CONVERGED AFTER 12 ITERATIONS ***

 final structure:
================
73
 xtb: 6.7.1 (edcfbbe)
C           -2.20145389512030        4.99252116447118       -0.00705577761844
C           -1.47604329870158        3.68175360557793        0.00923704331719
C           -0.08845138728679        3.62448518855247        0.00305646473573
C            0.57431613916819        2.41497008301198       -0.00292854043472
C           -0.13287293558491        1.21029964055529       -0.00377715134688
C           -1.52805258315830        1.25811229351834        0.00226823801859
C           -2.17403996454236        2.48350841803574        0.00822791287325
C           -2.37760460879308        0.00003138209498        0.00291827203361
C           -3.20389367238456        0.00023764532017       -1.26038163228572
C           -2.53886286054984        0.00041179172242       -2.48207702505740
C           -3.23930253286194        0.00063314323647       -3.67195801573054
C           -4.62772610922832        0.00068351922210       -3.66350958132120
C           -5.29811243518164        0.00050089879560       -2.46051959041696
C           -4.59788333540176        0.00027915212465       -1.25137132632066
C           -5.37574225100258        0.00010459573995        0.00367800447154
O           -6.59508887296128        0.00010528591846        0.00411077007092
C           -4.59716853883903       -0.00011377717751        1.25832944754339
C           -5.29675171617008       -0.00029746077667        2.46788019017405
C           -4.62570215365966       -0.00048449588655        3.67051369920575
C           -3.23726460465277       -0.00048924523746        3.67820539233489
C           -2.53745777709298       -0.00031227487542        2.48794106664361
C           -3.20314218680822       -0.00012683881627        1.26660399209202
C           -1.52812588387968       -1.25809936621351        0.00192301561336
C           -2.17418555733111       -2.48345781851303        0.00752576945251
C           -1.47626038754285       -3.68174611500323        0.00811384852058
C           -2.20176567258706       -4.99245772378471       -0.00851276939539
C           -0.08866645881945       -3.62455952118328        0.00179083054112
C            0.57417389926601       -2.41508104792509       -0.00385224903078
C           -0.13294243707998       -1.21036858185303       -0.00414780251525
N            0.54049173025643       -0.00005375329893       -0.00847441306464
C            1.96362685861623       -0.00007327259077       -0.01847930769173
C            2.65621417088547        0.00112065848807       -1.21895921015171
C            4.04026273090207        0.00116377936376       -1.22582869842962
C            4.76758771611661        0.00000376859163       -0.04144698070653
C            6.28745605356722       -0.00004863550341       -0.00467287397968
C            6.76877794010160        1.25553669247277        0.73623427820165
C            6.91220022140931        0.00161207225695       -1.40242922218095
C            6.76867013195859       -1.25743760916017        0.73323770527013
C            4.05412951805258       -0.00122036309706        1.15566660994040
C            2.67355918016358       -0.00125175240349        1.17436420172069
H           -2.42171834921840        5.28647232751690       -1.03418446665714
H           -1.59744482892427        5.77551098129736        0.44571162372048
H           -3.14467343066186        4.91808705993087        0.52942605013347
H            0.48563408841747        4.53984060545843        0.00434718289840
H            1.65368297080937        2.39777396826574       -0.00557010735038
H           -3.25540387480190        2.49793610228095        0.01324550205058
H           -1.45826998077454        0.00036961291424       -2.49218361624636
H           -2.70422678253951        0.00076586390943       -4.61040986034313
H           -5.17650524892178        0.00086351561550       -4.59346663213983
H           -6.37736845891008        0.00053625553954       -2.41800268096084
H           -6.37604498297773       -0.00027882693858        2.42592636955679
H           -5.17401192651827       -0.00062583153412        4.60074732498116
H           -2.70172880447280       -0.00063753027873        4.61636222480279
H           -1.45686824609480       -0.00031963048775        2.49739891953321
H           -3.25555011774881       -2.49782468744514        0.01258858686484
H           -1.59767478436347       -5.77568131872825        0.44373955584086
H           -3.14481573384944       -4.91818254068818        0.52829075425680
H           -2.42237178968221       -5.28595781385249       -1.03569684464987
H            0.48536373157196       -4.53995012948675        0.00267907694627
H            1.65354179665268       -2.39794596612639       -0.00668112921134
H            2.10733007056769        0.00204395509974       -2.14939997072979
H            4.54241865872071        0.00211722071174       -2.17908934306960
H            6.41016126257306        2.15057467326545        0.23198552610320
H            6.40956154509206        1.27495283433242        1.76133658186549
H            7.85600566786653        1.28346441589592        0.75646011778404
H            6.62251351295187       -0.88439158092221       -1.96266722028011
H            7.99656020858544        0.00157497485406       -1.31334796318557
H            6.62239664717579        0.88888312406884       -1.96059859878079
H            7.85589547730769       -1.28544426530776        0.75351516524041
H            6.41008359392709       -2.15124171677620        0.22678443481030
H            6.40932919167904       -1.27931899269452        1.75824767451231
H            4.57927326490657       -0.00216122062958        2.09859246838585
H            2.13801947841347       -0.00220356483176        2.11246870822150

          :  Hamiltonian                  GFN2-xTB          :
         :: gradient norm              0.000073092856 Eh/a0 ::
         :: HOMO-LUMO gap              1.643158147659 eV    ::
         :: SCC energy              -107.124467940832 Eh    ::
         :: -> dispersion             -0.102037327841 Eh    ::
         :: repulsion energy           1.874086444894 Eh    ::

    * Orbital Energies and Occupations

         #    Occupation            Energy/Eh            Energy/eV
      -------------------------------------------------------------
         1        2.0000           -0.6893262             -18.7575
       ...           ...                  ...                  ...
        86        2.0000           -0.4207535             -11.4493
        87        2.0000           -0.4159432             -11.3184
        88        2.0000           -0.4144690             -11.2783
        89        2.0000           -0.4089750             -11.1288
        90        2.0000           -0.4074677             -11.0878
        91        2.0000           -0.4056723             -11.0389
        92        2.0000           -0.4026111             -10.9556
        93        2.0000           -0.3943822             -10.7317
        94        2.0000           -0.3936704             -10.7123
        95        2.0000           -0.3931859             -10.6991
        96        2.0000           -0.3925448             -10.6817
        97        2.0000           -0.3764415             -10.2435
        98        2.0000           -0.3427146              -9.3257 (HOMO)
        99                         -0.2823295              -7.6826 (LUMO)
       100                         -0.2351630              -6.3991
       101                         -0.2340376              -6.3685
       102                         -0.2323796              -6.3234
       103                         -0.2271167              -6.1802
       104                         -0.2257664              -6.1434
       105                         -0.2197830              -5.9806
       106                         -0.2188490              -5.9552
       107                         -0.2130726              -5.7980
       108                         -0.1876881              -5.1073
       109                         -0.1705805              -4.6417
       ...                                ...                  ...
       193                          0.7105638              19.3354
      -------------------------------------------------------------
                  HL-Gap            0.0603850 Eh            1.6432 eV

     #   Z          covCN         q      C6AA      α(0)
     1   6 C        3.757    -0.107    22.601     6.778
     2   6 C        2.964     0.005    27.908     8.665
     3   6 C        2.925    -0.042    29.048     8.839
     4   6 C        2.922    -0.060    29.487     8.905
     5   6 C        2.926     0.056    26.749     8.482
     6   6 C        2.990    -0.012    28.317     8.729
     7   6 C        2.932    -0.046    29.134     8.852
     8   6 C        3.929     0.014    20.272     6.399
     9   6 C        2.988     0.017    27.631     8.623
    10   6 C        2.924    -0.032    28.809     8.802
    11   6 C        2.920    -0.024    28.598     8.770
    12   6 C        2.917    -0.031    28.774     8.796
    13   6 C        2.926    -0.020    28.505     8.756
    14   6 C        2.976    -0.020    28.510     8.758
    15   6 C        2.832     0.223    23.309     7.911
    16   8 O        0.858    -0.391    21.493     6.216
    17   6 C        2.976    -0.021    28.514     8.759
    18   6 C        2.926    -0.020    28.509     8.756
    19   6 C        2.917    -0.031    28.774     8.796
    20   6 C        2.920    -0.024    28.596     8.769
    21   6 C        2.924    -0.032    28.806     8.802
    22   6 C        2.988     0.017    27.633     8.623
    23   6 C        2.990    -0.012    28.317     8.729
    24   6 C        2.932    -0.046    29.134     8.852
    25   6 C        2.964     0.005    27.908     8.665
    26   6 C        3.757    -0.107    22.601     6.778
    27   6 C        2.925    -0.042    29.048     8.839
    28   6 C        2.922    -0.060    29.487     8.905
    29   6 C        2.926     0.056    26.749     8.482
    30   7 N        2.753    -0.074    22.669     7.071
    31   6 C        2.928     0.064    26.563     8.452
    32   6 C        2.921    -0.040    29.003     8.832
    33   6 C        2.925    -0.039    28.962     8.825
    34   6 C        2.973     0.010    27.796     8.648
    35   6 C        3.903     0.026    20.082     6.370
    36   6 C        3.762    -0.106    22.576     6.773
    37   6 C        3.761    -0.109    22.624     6.781
    38   6 C        3.762    -0.106    22.576     6.773
    39   6 C        2.928    -0.034    28.855     8.809
    40   6 C        2.920    -0.040    29.000     8.831
    41   1 H        0.924     0.045     2.384     2.415
    42   1 H        0.925     0.041     2.435     2.440
    43   1 H        0.925     0.042     2.422     2.434
    44   1 H        0.926     0.030     2.592     2.518
    45   1 H        0.926     0.027     2.633     2.537
    46   1 H        0.925     0.026     2.645     2.543
    47   1 H        0.926     0.031     2.572     2.508
    48   1 H        0.926     0.035     2.518     2.481
    49   1 H        0.926     0.037     2.495     2.470
    50   1 H        0.926     0.061     2.190     2.314
    51   1 H        0.926     0.061     2.191     2.315
    52   1 H        0.926     0.037     2.495     2.470
    53   1 H        0.926     0.035     2.515     2.480
    54   1 H        0.926     0.031     2.570     2.507
    55   1 H        0.925     0.026     2.645     2.543
    56   1 H        0.925     0.041     2.435     2.440
    57   1 H        0.925     0.042     2.422     2.434
    58   1 H        0.924     0.045     2.384     2.415
    59   1 H        0.926     0.030     2.592     2.518
    60   1 H        0.926     0.027     2.633     2.537
    61   1 H        0.926     0.037     2.492     2.469
    62   1 H        0.926     0.043     2.404     2.424
    63   1 H        0.925     0.035     2.520     2.483
    64   1 H        0.925     0.037     2.483     2.464
    65   1 H        0.925     0.040     2.453     2.449
    66   1 H        0.925     0.037     2.491     2.468
    67   1 H        0.925     0.039     2.468     2.457
    68   1 H        0.925     0.037     2.491     2.468
    69   1 H        0.925     0.040     2.453     2.449
    70   1 H        0.925     0.035     2.520     2.483
    71   1 H        0.925     0.037     2.483     2.464
    72   1 H        0.926     0.037     2.494     2.470
    73   1 H        0.926     0.037     2.491     2.468

molecular dipole:
                 x           y           z       tot (Debye)
 q only:        2.314      -0.000      -0.023
   full:        2.468      -0.000      -0.034       6.275

 projected vibrational frequencies (cm⁻¹)
eigval :       -0.00    -0.00    -0.00     0.00     0.00     0.00
eigval :       -8.41     6.13     7.42     7.75     8.84    26.81
eigval :       29.56    39.49    48.79    54.60    60.86    86.08
eigval :      101.67   105.30   115.68   121.56   126.10   135.03
eigval :      174.32   185.57   207.24   211.89   216.22   220.60
eigval :      232.37   254.74   255.54   270.26   291.84   300.16
eigval :      314.80   316.14   326.42   335.72   343.68   361.20
eigval :      361.75   368.95   375.46   380.05   399.25   412.65
eigval :      418.70   420.77   435.91   438.19   442.44   450.28
eigval :      465.91   467.02   490.57   519.59   520.08   540.87
eigval :      549.74   564.60   577.71   600.21   608.27   612.63
eigval :      625.39   630.14   635.16   646.31   666.09   666.62
eigval :      688.11   702.24   704.62   724.80   738.84   743.63
eigval :      778.69   787.03   801.91   811.61   814.05   819.79
eigval :      860.49   870.10   879.75   881.12   883.54   887.37
eigval :      887.80   898.91   912.28   913.22   913.97   923.64
eigval :      924.22   924.37   928.15   930.57   931.46   932.59
eigval :      954.87   961.05   961.62   963.44   963.85   996.88
eigval :     1015.23  1020.87  1030.75  1033.42  1033.80  1035.34
eigval :     1035.77  1090.35  1094.28  1094.79  1118.00  1139.00
eigval :     1143.39  1144.52  1145.38  1177.97  1179.05  1184.72
eigval :     1186.50  1197.12  1201.82  1216.99  1219.95  1226.85
eigval :     1228.09  1234.00  1237.88  1253.84  1266.82  1267.01
eigval :     1271.93  1272.11  1274.93  1280.09  1291.96  1311.61
eigval :     1328.87  1333.91  1336.33  1337.52  1338.58  1367.48
eigval :     1397.58  1405.12  1405.16  1406.82  1409.79  1421.83
eigval :     1424.58  1425.36  1428.18  1430.18  1464.60  1469.04
eigval :     1483.87  1484.07  1485.39  1485.96  1488.51  1491.70
eigval :     1493.70  1494.91  1502.04  1505.53  1509.35  1514.73
eigval :     1519.14  1568.55  1570.23  1571.29  1579.83  1586.89
eigval :     1592.19  1595.05  1603.25  1606.59  1614.79  1677.19
eigval :     2991.62  2991.71  3025.05  3026.69  3028.68  3031.68
eigval :     3033.81  3035.20  3035.22  3036.35  3036.53  3036.95
eigval :     3040.38  3047.80  3051.23  3071.26  3071.55  3073.75
eigval :     3074.01  3076.15  3076.32  3080.89  3081.45  3081.55
eigval :     3083.60  3088.59  3089.01  3093.62  3094.70  3095.21
eigval :     3095.57  3096.25  3117.72

   temp. (K)  partition function   enthalpy   heat capacity  entropy
                                   cal/mol     cal/K/mol   cal/K/mol   J/K/mol
 298.15  VIB  0.451E+19            20826.846    126.281    133.442
         ROT  0.383E+08              888.752      2.981     37.683
         INT  0.173E+27            21715.598    129.262    171.125
         TR   0.115E+29             1481.254      4.968     44.610
         TOT                       23196.8520   134.2299   215.7348   902.6344

       T/K    H(0)-H(T)+PV         H(T)/Eh          T*S/Eh         G(T)/Eh
   ------------------------------------------------------------------------
    298.15    0.369665E-01    0.624056E+00    0.102503E+00    0.521554E+00
   ------------------------------------------------------------------------

         :::::::::::::::::::::::::::::::::::::::::::::::::::::
         ::                  THERMODYNAMIC                  ::
         :::::::::::::::::::::::::::::::::::::::::::::::::::::
         :: total free energy        -104.728827882923 Eh   ::
         ::.................................................::
         :: total energy             -105.250381495906 Eh   ::
         :: zero point energy           0.587089639778 Eh   ::
         :: G(RRHO) w/o ZPVE           -0.065536026796 Eh   ::
         :: G(RRHO) contrib.            0.521553612982 Eh   ::
         :::::::::::::::::::::::::::::::::::::::::::::::::::::

           -------------------------------------------------
          | TOTAL ENERGY             -105.250381495906 Eh   |
          | TOTAL ENTHALPY           -104.626325319484 Eh   |
          | TOTAL FREE ENERGY        -104.728827882923 Eh   |
          | GRADIENT NORM               0.000073075418 Eh/α |
          | HOMO-LUMO GAP               1.643159670399 eV   |
           -------------------------------------------------

 * finished run on 2025/09/11 at 23:18:15.022
