   * xtb version 6.7.1 (edcfbbe) compiled by 'albert@albert-system' on 2024-07-22

   ID    Z sym.   atoms
    1    6 C      1-6, 8, 10-17, 19-27, 29-34
    2    7 N      7, 9, 28, 35
    3    8 O      18
    4    1 H      36-53

          program call               : xtb data2507/gas/5-DBFBI/5-DBFBI.xyz --gfn 2 --ohess vtight --parallel 40 --molden --ceasefiles --namespace data2507/gas/5-DBFBI/5-DBFBI_gas_S0_preOpt
          :  Hamiltonian                  GFN2-xTB          :
 * total energy  :   -89.2556893 Eh     change       -0.3245916E-08 Eh
 * total energy  :   -89.2665355 Eh     change       -0.1084614E-01 Eh
 * total energy  :   -89.2703716 Eh     change       -0.3836096E-02 Eh
 * total energy  :   -89.2719624 Eh     change       -0.1590817E-02 Eh
 * total energy  :   -89.2728982 Eh     change       -0.9357809E-03 Eh
 * total energy  :   -89.2732482 Eh     change       -0.3500457E-03 Eh
 * total energy  :   -89.2733876 Eh     change       -0.1394051E-03 Eh
 * total energy  :   -89.2734603 Eh     change       -0.7267395E-04 Eh
 * total energy  :   -89.2734947 Eh     change       -0.3441046E-04 Eh
 * total energy  :   -89.2735341 Eh     change       -0.3937186E-04 Eh
 * total energy  :   -89.2737736 Eh     change       -0.3246031E-05 Eh
 * total energy  :   -89.2737759 Eh     change       -0.2337850E-05 Eh
 * total energy  :   -89.2737775 Eh     change       -0.1621010E-05 Eh
 * total energy  :   -89.2737785 Eh     change       -0.9859199E-06 Eh
 * total energy  :   -89.2737791 Eh     change       -0.5725091E-06 Eh
 * total energy  :   -89.2737795 Eh     change       -0.3751636E-06 Eh
 * total energy  :   -89.2737798 Eh     change       -0.3232899E-06 Eh
 * total energy  :   -89.2737802 Eh     change       -0.3815212E-06 Eh
 * total energy  :   -89.2737802 Eh     change       -0.5024006E-08 Eh
   *** GEOMETRY OPTIMIZATION CONVERGED AFTER 44 ITERATIONS ***

 final structure:
================
53
 xtb: 6.7.1 (edcfbbe)
C           -6.29134625825065        3.90694369788686        0.42526509435357
C           -7.22949077065645        2.91732778496148        0.13729476709948
C           -6.85367391663988        1.60131750297834       -0.05936535502422
C           -5.50677170154967        1.30947085626119        0.04168677472304
C           -4.54025037625310        2.31085272971396        0.33445403186600
C           -4.94357260543272        3.62427522051709        0.52797088753959
N           -3.27036306722891        1.77039663846316        0.38018043091658
C           -3.45450888458068        0.50557925093009        0.12888315469783
N           -2.66357069119119       -0.60787737501201        0.01556561195646
C           -1.28329557987598       -0.62933454359857        0.15921159521905
C           -0.58523309037692        0.54854261381778        0.44428321119241
C            0.78406052209737        0.47173833218652        0.57404212411430
C            1.43495013426528       -0.75691963252691        0.42380323600732
C            2.89225327820675       -0.88111300712935        0.54225317212133
C            3.45038808484506       -1.98687734421509        1.19771618178720
C            4.81600965280741       -2.14967321062285        1.32658072944448
C            5.62976877779971       -1.17657389435484        0.77408789331687
O            6.98976034201017       -1.15269482234890        0.78308198120814
C            7.35533679215224       -0.01826315428456        0.12366304811765
C            8.64736508868939        0.41566767566317       -0.11188496341872
C            8.80014700744584        1.60214244654802       -0.80716800060256
C            7.70071669988649        2.33164550447995       -1.25230862462514
C            6.41088518946578        1.89776131858653       -1.01656461563673
C            6.23342486890635        0.70926041705084       -0.32118907305803
C            5.09286098423719       -0.05563060467834        0.10949952814719
C            3.71973106012131        0.09379278871933       -0.00266729219551
C            0.63107522839605       -1.85790418257188        0.14134627451146
N           -0.68050999717659       -1.80230086860569        0.01180826925446
C           -3.51347876573856       -1.68013271012315       -0.27732610400237
C           -3.24557642716610       -3.01934614904882       -0.49283530740030
C           -4.31761648466078       -3.85396745437650       -0.76960575549916
C           -5.61994329561426       -3.37634917263016       -0.83119204728099
C           -5.90245695157274       -2.03689882228075       -0.61686207046558
C           -4.83990413080151       -1.19883686352194       -0.34063278958866
N           -4.77345372285875        0.15274878967587       -0.08529136527628
H           -6.63164402061927        4.92147965004233        0.57138022067110
H           -8.27326825974001        3.18423407764720        0.06616215849387
H           -7.58150590427879        0.83635204837989       -0.28217857085651
H           -4.21832856400198        4.38998476954657        0.75079952203576
H           -1.12357231592543        1.47506278400270        0.55899457124544
H            1.35413358767807        1.35799720647889        0.81156446821161
H            2.79020524405790       -2.72217712757474        1.63222983538458
H            5.23802435062142       -2.99976637695772        1.83801076747845
H            9.49462142910191       -0.15360208742815        0.23509595098533
H            9.79473913309169        1.97010257081368       -1.00923773173756
H            7.86365294753670        3.25265665875005       -1.79173100133008
H            5.55929290885227        2.46332742221625       -1.36246311546661
H            3.30343899467856        0.94102750277088       -0.52589613195354
H            1.06353256698771       -2.83830543862698       -0.01033809799530
H           -2.23519837952249       -3.38611741754366       -0.44505040673148
H           -4.13241973656831       -4.90319767990878       -0.94177498262525
H           -6.42788822060387       -4.05771690366420       -1.04975384313577
H           -6.91153275505187       -1.66011141545199       -0.66359224619192

          :  Hamiltonian                  GFN2-xTB          :
         :: gradient norm              0.000052752713 Eh/a0 ::
         :: HOMO-LUMO gap              2.853036150895 eV    ::
         :: SCC energy               -90.830670099427 Eh    ::
         :: -> dispersion             -0.069696183898 Eh    ::
         :: repulsion energy           1.556889926860 Eh    ::

    * Orbital Energies and Occupations

         #    Occupation            Energy/Eh            Energy/eV
      -------------------------------------------------------------
         1        2.0000           -0.7374883             -20.0681
       ...           ...                  ...                  ...
        70        2.0000           -0.4307763             -11.7220
        71        2.0000           -0.4285199             -11.6606
        72        2.0000           -0.4266210             -11.6089
        73        2.0000           -0.4242548             -11.5446
        74        2.0000           -0.4154866             -11.3060
        75        2.0000           -0.4127330             -11.2310
        76        2.0000           -0.4015363             -10.9264
        77        2.0000           -0.3917155             -10.6591
        78        2.0000           -0.3887549             -10.5786
        79        2.0000           -0.3873159             -10.5394
        80        2.0000           -0.3801900             -10.3455
        81        2.0000           -0.3750035             -10.2044
        82        2.0000           -0.3660499              -9.9607 (HOMO)
        83                         -0.2612028              -7.1077 (LUMO)
        84                         -0.2572999              -7.0015
        85                         -0.2469220              -6.7191
        86                         -0.2413757              -6.5682
        87                         -0.2321551              -6.3173
        88                         -0.2288276              -6.2267
        89                         -0.2161564              -5.8819
        90                         -0.2029635              -5.5229
        91                         -0.1975069              -5.3744
        92                         -0.1923345              -5.2337
        93                         -0.1558026              -4.2396
       ...                                ...                  ...
       158                          0.7403687              20.1465
      -------------------------------------------------------------
                  HL-Gap            0.1048472 Eh            2.8530 eV

     #   Z          covCN         q      C6AA      α(0)
     1   6 C        2.923    -0.038    28.947     8.823
     2   6 C        2.926    -0.039    28.965     8.826
     3   6 C        2.907    -0.047    29.170     8.856
     4   6 C        3.066     0.030    27.266     8.562
     5   6 C        3.233     0.068    25.669     8.223
     6   6 C        2.910    -0.043    29.073     8.841
     7   7 N        1.864    -0.329    29.379     8.034
     8   6 C        3.345     0.194    21.596     7.336
     9   7 N        2.798    -0.051    22.233     7.003
    10   6 C        2.905     0.149    24.765     8.160
    11   6 C        2.914    -0.063    29.557     8.915
    12   6 C        2.935    -0.016    28.405     8.741
    13   6 C        2.972    -0.006    28.168     8.706
    14   6 C        2.976     0.002    27.987     8.678
    15   6 C        2.931    -0.038    28.945     8.823
    16   6 C        2.907    -0.052    29.287     8.874
    17   6 C        3.102     0.129    25.062     8.203
    18   8 O        1.714    -0.223    17.692     5.679
    19   6 C        3.103     0.130    25.044     8.200
    20   6 C        2.909    -0.052    29.279     8.873
    21   6 C        2.926    -0.032    28.789     8.799
    22   6 C        2.921    -0.038    28.943     8.822
    23   6 C        2.913    -0.033    28.819     8.803
    24   6 C        3.056    -0.019    28.424     8.743
    25   6 C        3.053    -0.019    28.432     8.745
    26   6 C        2.918    -0.038    28.957     8.824
    27   6 C        2.914     0.054    26.778     8.486
    28   7 N        1.843    -0.248    27.318     7.746
    29   6 C        3.077     0.046    26.888     8.501
    30   6 C        2.911    -0.044    29.100     8.846
    31   6 C        2.924    -0.035    28.874     8.812
    32   6 C        2.924    -0.036    28.889     8.814
    33   6 C        2.910    -0.045    29.118     8.848
    34   6 C        3.033     0.043    27.003     8.523
    35   7 N        2.897    -0.052    22.241     7.004
    36   1 H        0.926     0.033     2.539     2.492
    37   1 H        0.926     0.033     2.551     2.498
    38   1 H        0.926     0.029     2.601     2.522
    39   1 H        0.926     0.044     2.391     2.418
    40   1 H        0.926     0.076     2.023     2.224
    41   1 H        0.926     0.043     2.408     2.427
    42   1 H        0.926     0.042     2.428     2.437
    43   1 H        0.926     0.049     2.335     2.390
    44   1 H        0.926     0.047     2.355     2.400
    45   1 H        0.926     0.040     2.445     2.445
    46   1 H        0.926     0.038     2.482     2.464
    47   1 H        0.926     0.038     2.469     2.457
    48   1 H        0.926     0.040     2.444     2.445
    49   1 H        0.925     0.041     2.434     2.439
    50   1 H        0.926     0.073     2.054     2.241
    51   1 H        0.926     0.042     2.418     2.432
    52   1 H        0.926     0.040     2.443     2.444
    53   1 H        0.926     0.041     2.430     2.437

molecular dipole:
                 x           y           z       tot (Debye)
 q only:        0.083      -0.417      -0.252
   full:        0.001      -0.372      -0.233       1.115

 projected vibrational frequencies (cm⁻¹)
eigval :       -0.00    -0.00    -0.00     0.00     0.00     0.00
eigval :       14.62    18.11    30.89    52.27    63.81    75.89
eigval :       77.89   102.12   111.03   125.03   133.83   162.68
eigval :      178.40   195.03   212.31   245.45   270.73   280.50
eigval :      308.88   317.89   341.11   348.10   375.43   392.82
eigval :      398.54   406.81   412.67   416.50   419.40   430.85
eigval :      442.04   461.65   502.26   527.27   533.60   539.43
eigval :      542.21   546.23   565.40   597.59   598.68   601.81
eigval :      608.83   620.54   646.49   659.90   661.24   681.00
eigval :      690.02   700.60   712.39   715.90   726.33   732.20
eigval :      770.95   776.40   779.09   801.41   817.59   819.34
eigval :      842.05   846.95   863.10   868.79   868.99   872.60
eigval :      874.74   883.95   894.91   897.10   900.89   904.05
eigval :      911.18   917.64   920.24   921.77   924.10   931.33
eigval :      965.80  1000.38  1029.56  1057.80  1062.37  1063.28
eigval :     1075.14  1090.46  1117.21  1119.64  1134.15  1142.75
eigval :     1153.31  1166.07  1173.04  1174.71  1184.66  1197.11
eigval :     1212.31  1214.23  1236.23  1246.35  1248.95  1252.79
eigval :     1259.47  1264.97  1275.02  1285.15  1298.35  1310.11
eigval :     1338.11  1340.89  1354.36  1359.09  1375.03  1386.46
eigval :     1399.38  1412.60  1417.96  1424.17  1449.75  1458.57
eigval :     1473.99  1477.41  1489.82  1500.24  1545.59  1567.50
eigval :     1577.45  1582.28  1590.56  1592.22  1599.59  1602.64
eigval :     1610.18  1617.73  1651.08  3057.07  3079.35  3080.46
eigval :     3083.03  3085.15  3088.73  3090.16  3091.53  3093.49
eigval :     3095.77  3098.36  3098.74  3108.39  3108.70  3109.04
eigval :     3109.67  3112.51  3138.19

   temp. (K)  partition function   enthalpy   heat capacity  entropy
                                   cal/mol     cal/K/mol   cal/K/mol   J/K/mol
 298.15  VIB  0.828E+10            14118.533     95.267     85.330
         ROT  0.420E+08              888.752      2.981     37.866
         INT  0.348E+18            15007.286     98.248    123.196
         TR   0.925E+28             1481.254      4.968     44.185
         TOT                       16488.5395   103.2157   167.3805   700.3199

       T/K    H(0)-H(T)+PV         H(T)/Eh          T*S/Eh         G(T)/Eh
   ------------------------------------------------------------------------
    298.15    0.262762E-01    0.421030E+00    0.795279E-01    0.341502E+00
   ------------------------------------------------------------------------

         :::::::::::::::::::::::::::::::::::::::::::::::::::::
         ::                  THERMODYNAMIC                  ::
         :::::::::::::::::::::::::::::::::::::::::::::::::::::
         :: total free energy         -88.932278476360 Eh   ::
         ::.................................................::
         :: total energy              -89.273780172566 Eh   ::
         :: zero point energy           0.394753397149 Eh   ::
         :: G(RRHO) w/o ZPVE           -0.053251700943 Eh   ::
         :: G(RRHO) contrib.            0.341501696205 Eh   ::
         :::::::::::::::::::::::::::::::::::::::::::::::::::::

           -------------------------------------------------
          | TOTAL ENERGY              -89.273780172566 Eh   |
          | TOTAL ENTHALPY            -88.852750615236 Eh   |
          | TOTAL FREE ENERGY         -88.932278476360 Eh   |
          | GRADIENT NORM               0.000052749238 Eh/α |
          | HOMO-LUMO GAP               2.853036349161 eV   |
           -------------------------------------------------

 * finished run on 2025/09/04 at 14:50:49.031
