   * xtb version 6.7.1 (edcfbbe) compiled by 'albert@albert-system' on 2024-07-22

   ID    Z sym.   atoms
    1    6 C      1-6, 8, 10-17, 19-27, 29-34
    2    7 N      7, 9, 28, 35
    3    8 O      18
    4    1 H      36-53

          program call               : xtb data2507/gas/5-DBFBI/5-DBFBI_gas_S0_finalOpt.xtbopt.xyz --gfn 2 --spinpol --tblite --uhf 2 --ohess vtight --parallel 40 --molden --ceasefiles --namespace data2507/gas/5-DBFBI/5-DBFBI_gas_T1_preOpt
 * total energy  :   -89.1659919 Eh     change        0.4404936E-07 Eh
 * total energy  :   -89.1714896 Eh     change       -0.5497680E-02 Eh
 * total energy  :   -89.1735894 Eh     change       -0.2099765E-02 Eh
 * total energy  :   -89.1739500 Eh     change       -0.3606515E-03 Eh
 * total energy  :   -89.1744905 Eh     change       -0.5405433E-03 Eh
 * total energy  :   -89.1747303 Eh     change       -0.2397304E-03 Eh
 * total energy  :   -89.1749772 Eh     change       -0.2469121E-03 Eh
 * total energy  :   -89.1751351 Eh     change       -0.1579076E-03 Eh
 * total energy  :   -89.1752473 Eh     change       -0.1121593E-03 Eh
 * total energy  :   -89.1753498 Eh     change       -0.1025742E-03 Eh
 * total energy  :   -89.1763572 Eh     change       -0.1182440E-05 Eh
 * total energy  :   -89.1763579 Eh     change       -0.6851451E-06 Eh
 * total energy  :   -89.1763589 Eh     change       -0.9962313E-06 Eh
 * total energy  :   -89.1763597 Eh     change       -0.8273634E-06 Eh
 * total energy  :   -89.1763603 Eh     change       -0.5905452E-06 Eh
 * total energy  :   -89.1763607 Eh     change       -0.3664946E-06 Eh
 * total energy  :   -89.1763610 Eh     change       -0.3605936E-06 Eh
 * total energy  :   -89.1763610 Eh     change        0.1700570E-07 Eh
 * total energy  :   -89.1763610 Eh     change       -0.3222641E-07 Eh
   *** GEOMETRY OPTIMIZATION CONVERGED AFTER 69 ITERATIONS ***

 final structure:
================
53
 xtb: 6.7.1 (edcfbbe)
C           -7.38702576895354        2.84526960376344       -0.41055244220971
C           -7.99762128880224        1.59194280425288       -0.38112682736830
C           -7.25649752426686        0.42687447463451       -0.25394548897159
C           -5.88769161126236        0.56028801484801       -0.15867083424849
C           -5.24885925761999        1.83711525218966       -0.18651623522827
C           -6.01843133623868        2.99065699911354       -0.31492263822565
N           -3.89122181563648        1.71170816747460       -0.07360603053227
C           -3.68997035887293        0.41426591041082        0.01573596794470
N           -2.60917719733456       -0.41357887650381        0.14160640676602
C           -1.29790064669997       -0.01713288511646        0.20161433534759
C           -0.93289422268901        1.35321040902422        0.05254057490349
C            0.37917626891482        1.68678998356624        0.03517545194179
C            1.40590001452781        0.67703819529859        0.16835193379416
C            2.78638423109413        0.95684354635470        0.16112848298211
C            3.27703413306343        2.29709175417142        0.31374853202318
C            4.60599371844078        2.61396253852325        0.28439473790205
C            5.52227431259942        1.57761499916376        0.09220554616946
O            6.87427092254546        1.68243031064739        0.02398377592993
C            7.34755250027935        0.42116941556924       -0.17556114189455
C            8.67436673674017        0.05389219506800       -0.30905558244083
C            8.94322014606002       -1.28999120286570       -0.50872004773881
C            7.92293179426093       -2.23314916886448       -0.57253310182151
C            6.59577483522367       -1.86324013004375       -0.43840742998364
C            6.30285144162541       -0.52385786015541       -0.23769723372909
C            5.08861439316265        0.23678589610075       -0.05912395480835
C            3.75430317307154       -0.08056394886330       -0.01926876011574
C            0.89037147355380       -0.65372388743370        0.37772394597097
N           -0.35993879339828       -0.97432389749416        0.40404653484026
C           -3.11074593141889       -1.71684002125327        0.17704932047331
C           -2.46180948238451       -2.93579942213036        0.28982384603841
C           -3.23845835417191       -4.08074539634295        0.30942977102660
C           -4.62782446974596       -4.02467855618839        0.21263637488292
C           -5.29180452711410       -2.81585227519964        0.09375727237809
C           -4.52561252719056       -1.66570836582135        0.07552052418345
N           -4.85192612230331       -0.33661295302977       -0.02649744859245
H           -8.00673124207417        3.72389432751635       -0.51151863341663
H           -9.07226157341270        1.52615678320461       -0.45927608063234
H           -7.73368788470070       -0.54061880698069       -0.23129871224066
H           -5.54519307195200        3.95859672308403       -0.33820300411338
H           -1.71563222800056        2.08063072998176       -0.08942245935006
H            0.66134234712084        2.71321293818437       -0.13304052507081
H            2.56664065192341        3.08910714603628        0.48468664892516
H            4.94863089923220        3.62906840695198        0.40845721160280
H            9.46068436215717        0.78979935584765       -0.25890396931747
H            9.96812492212083       -1.61128282345854       -0.61755068856519
H            8.17336980953830       -3.27150292703454       -0.72998140962007
H            5.80562745347167       -2.59660999152065       -0.48921521019574
H            3.44354598230205       -1.10222304084695       -0.16011763892621
H            1.56693555196055       -1.46178116904427        0.61906947630298
H           -1.38831476060972       -2.97157522832529        0.36203784224155
H           -2.75626364311203       -5.04179922976493        0.39836092164854
H           -5.19785644453638       -4.94088253672878        0.22798881302185
H           -6.36635615892491       -2.76964072833568        0.01784678391109

 projected vibrational frequencies (cm⁻¹)
eigval :       -0.00    -0.00    -0.00    -0.00     0.00     0.00
eigval :       12.15    18.37    34.78    48.47    58.74    73.45
eigval :       76.20    90.22   109.22   114.48   140.90   159.95
eigval :      173.77   188.99   203.07   219.13   265.58   270.89
eigval :      301.06   309.91   317.24   338.55   354.97   376.35
eigval :      387.50   395.80   401.54   405.34   408.31   412.92
eigval :      419.71   445.56   463.64   515.97   526.97   528.85
eigval :      535.93   537.06   557.16   565.86   587.63   594.27
eigval :      594.83   607.17   629.86   634.46   642.27   653.60
eigval :      668.09   670.54   697.50   699.14   706.66   728.38
eigval :      759.38   764.90   770.59   775.65   785.18   792.22
eigval :      797.47   808.69   818.65   837.27   845.42   856.80
eigval :      864.48   869.43   877.45   888.78   891.77   896.02
eigval :      899.54   901.72   901.89   914.06   916.93   921.03
eigval :      941.29   961.16   984.21   992.68  1053.56  1056.23
eigval :     1062.23  1079.05  1097.80  1104.78  1121.98  1128.74
eigval :     1134.30  1156.24  1168.61  1171.13  1177.00  1183.25
eigval :     1191.33  1204.40  1214.78  1232.96  1236.28  1243.19
eigval :     1255.05  1258.46  1266.70  1277.24  1287.80  1305.33
eigval :     1323.14  1327.29  1334.69  1352.15  1357.67  1359.01
eigval :     1373.53  1379.91  1398.43  1406.41  1416.73  1430.93
eigval :     1446.31  1461.48  1474.68  1488.55  1492.67  1504.89
eigval :     1519.98  1553.81  1561.88  1581.64  1585.72  1586.54
eigval :     1591.42  1602.56  1616.27  3059.94  3081.76  3082.81
eigval :     3087.28  3089.98  3090.63  3095.37  3097.77  3098.13
eigval :     3098.88  3100.13  3107.97  3108.28  3109.86  3112.34
eigval :     3112.63  3115.70  3130.14

   temp. (K)  partition function   enthalpy   heat capacity  entropy
                                   cal/mol     cal/K/mol   cal/K/mol   J/K/mol
 298.15  VIB  0.198E+11            14569.375     97.666     88.301
         ROT  0.401E+08              888.752      2.981     37.773
         INT  0.795E+18            15458.127    100.647    126.073
         TR   0.925E+28             1481.254      4.968     44.185
         TOT                       16939.3810   105.6155   170.2580   712.3594

       T/K    H(0)-H(T)+PV         H(T)/Eh          T*S/Eh         G(T)/Eh
   ------------------------------------------------------------------------
    298.15    0.269946E-01    0.416766E+00    0.808951E-01    0.335871E+00
   ------------------------------------------------------------------------

         :::::::::::::::::::::::::::::::::::::::::::::::::::::
         ::                  THERMODYNAMIC                  ::
         :::::::::::::::::::::::::::::::::::::::::::::::::::::
         :: total free energy         -88.840489922335 Eh   ::
         ::.................................................::
         :: total energy              -89.176361024872 Eh   ::
         :: zero point energy           0.389771541471 Eh   ::
         :: G(RRHO) w/o ZPVE           -0.053900438934 Eh   ::
         :: G(RRHO) contrib.            0.335871102537 Eh   ::
         :::::::::::::::::::::::::::::::::::::::::::::::::::::

           -------------------------------------------------
          | TOTAL ENERGY              -89.176361024872 Eh   |
          | TOTAL ENTHALPY            -88.759594861540 Eh   |
          | TOTAL FREE ENERGY         -88.840489922335 Eh   |
          | GRADIENT NORM               0.000080487816 Eh/α |
           -------------------------------------------------

 * finished run on 2025/09/04 at 14:52:59.218
