   * xtb version 6.7.1 (edcfbbe) compiled by 'albert@albert-system' on 2024-07-22

   ID    Z sym.   atoms
    1    6 C      1-6, 8, 10-17, 19-27, 29-34
    2    7 N      7, 9, 28, 35
    3    8 O      18
    4    1 H      36-53

          program call               : xtb data2507/gas/5-DBFBI/5-DBFBI_gas_T1_crest.xyz --gfn 2 --spinpol --tblite --uhf 2 --ohess vtight --parallel 40 --molden --ceasefiles --namespace data2507/gas/5-DBFBI/5-DBFBI_gas_T1_finalOpt
 * total energy  :   -89.1763452 Eh     change        0.3985335E-08 Eh
 * total energy  :   -89.1763657 Eh     change       -0.2041857E-04 Eh
 * total energy  :   -89.1763731 Eh     change       -0.7481877E-05 Eh
 * total energy  :   -89.1763743 Eh     change       -0.1207123E-05 Eh
 * total energy  :   -89.1763753 Eh     change       -0.9469115E-06 Eh
 * total energy  :   -89.1763760 Eh     change       -0.6971822E-06 Eh
 * total energy  :   -89.1763766 Eh     change       -0.6415629E-06 Eh
 * total energy  :   -89.1763769 Eh     change       -0.2560002E-06 Eh
 * total energy  :   -89.1763770 Eh     change       -0.1414242E-06 Eh
 * total energy  :   -89.1763772 Eh     change       -0.1571451E-06 Eh
 * total energy  :   -89.1763774 Eh     change       -0.2047100E-06 Eh
 * total energy  :   -89.1763776 Eh     change       -0.1620493E-06 Eh
 * total energy  :   -89.1763777 Eh     change       -0.1471628E-06 Eh
 * total energy  :   -89.1763778 Eh     change       -0.8138760E-07 Eh
   *** GEOMETRY OPTIMIZATION CONVERGED AFTER 14 ITERATIONS ***

 final structure:
================
53
 xtb: 6.7.1 (edcfbbe)
C           -7.40354313416505        2.81014070967494       -0.31659851033842
C           -8.00790366804607        1.55345469764031       -0.31993966441447
C           -7.26029369571365        0.38889476932082       -0.23266248594608
C           -5.89146842293598        0.52631518953583       -0.14326468162099
C           -5.25897478003137        1.80655032320230       -0.13791349321040
C           -6.03496848897347        2.95949517372785       -0.22664872254645
N           -3.89992232032674        1.68464236564087       -0.03751044324056
C           -3.69206513058347        0.38623610835195        0.01305423347178
N           -2.60677200040217       -0.43951145018083        0.11040020432283
C           -1.29714163718026       -0.03871871659255        0.17743864404155
C           -0.93729601840036        1.33512931306539        0.05147409423385
C            0.37345365022516        1.67431573318676        0.04397589033048
C            1.40439927112069        0.66759480831347        0.16868545875210
C            2.78335311659163        0.95428739382586        0.18208975010969
C            3.26524410800684        2.29573479095359        0.35274478568544
C            4.59285023261849        2.61937148925402        0.34754932697134
C            5.51762097076710        1.58894378564217        0.16408838892832
O            6.87013860588452        1.70028799950431        0.12194647933468
C            7.35291313484582        0.44241335702041       -0.07643845184925
C            8.68373115075662        0.08163329651826       -0.18559580945215
C            8.96246588259776       -1.25996469643105       -0.38715770589114
C            7.94786327085658       -2.20717243985921       -0.47641960909987
C            6.61666786922314       -1.84371504700400       -0.36700008633918
C            6.31387824671629       -0.50675615697598       -0.16487402305352
C            5.09299510810426        0.24735621947651       -0.00469250847162
C            3.75979276528243       -0.07657639952246        0.00865430318184
C            0.89334156037127       -0.66920357723857        0.34971259647128
N           -0.35563486558232       -0.99556371809150        0.36387252544168
C           -3.10182790563798       -1.74568328748155        0.11172875436860
C           -2.44632384115128       -2.96406966486982        0.18605448835094
C           -3.21723632677740       -4.11301501656667        0.17613686617839
C           -4.60729614153946       -4.06118344073356        0.08763832552748
C           -5.27781341390742       -2.85277655576951        0.00711479752414
C           -4.51737288065732       -1.69875724663254        0.01854525349791
N           -4.85061632531375       -0.36890905371219       -0.04406609064932
H           -8.02819957412784        3.68825567070077       -0.38676423724517
H           -9.08277340769803        1.48463911167746       -0.39209312664783
H           -7.73261373739821       -0.58125015368653       -0.23501380633486
H           -5.56663069945457        3.93008254539449       -0.22438088898493
H           -1.72256962781234        2.06150416347235       -0.08169575119462
H            0.65140950869515        2.70435184154911       -0.10827712355671
H            2.54857986752495        3.08346105835028        0.51703375737097
H            4.92814795555558        3.63530786940818        0.48428104690691
H            9.46565939715650        0.82058372166615       -0.11554356664705
H            9.99076072844165       -1.57624702672680       -0.47703462824079
H            8.20601670677991       -3.24360994181884       -0.63407331934305
H            5.83094601134459       -2.58023026381492       -0.43732391814816
H            3.45749900005462       -1.09887859860347       -0.14500003085362
H            1.57167745697231       -1.47957533185449        0.57751941025794
H           -1.37233743635307       -2.99650533100931        0.25227391509956
H           -2.72987197554335       -5.07379005871340        0.23474057553219
H           -5.17272854932609       -4.98031900911473        0.07895177109863
H           -6.35293190265483       -2.80985141256992       -0.06240923697014

 projected vibrational frequencies (cm⁻¹)
eigval :       -0.00    -0.00    -0.00    -0.00     0.00     0.00
eigval :       12.10    18.49    34.66    48.53    59.12    73.46
eigval :       76.38    89.69   109.06   114.17   140.78   160.05
eigval :      173.76   188.75   202.95   219.20   265.69   270.76
eigval :      301.20   310.00   317.34   338.39   355.16   376.27
eigval :      387.55   395.53   401.58   405.36   408.23   412.89
eigval :      419.69   445.65   463.79   516.04   527.09   528.77
eigval :      535.98   537.13   557.24   565.75   587.83   594.35
eigval :      594.89   607.22   630.25   634.68   642.05   653.53
eigval :      667.99   670.60   697.60   699.24   706.63   728.28
eigval :      761.14   764.97   770.80   775.65   784.61   792.22
eigval :      796.98   808.79   818.23   837.29   845.43   856.87
eigval :      864.52   869.46   877.47   888.86   891.64   896.10
eigval :      899.51   901.75   901.85   914.10   916.97   921.06
eigval :      940.97   961.18   983.96   992.21  1053.55  1056.22
eigval :     1062.23  1079.19  1097.79  1104.59  1121.93  1128.78
eigval :     1134.10  1156.43  1168.75  1171.24  1177.29  1183.30
eigval :     1191.43  1204.48  1214.83  1233.28  1236.34  1243.23
eigval :     1255.32  1258.62  1267.16  1277.66  1287.93  1305.35
eigval :     1323.92  1327.42  1334.74  1352.17  1357.74  1359.07
eigval :     1373.80  1380.13  1398.61  1406.51  1416.85  1431.09
eigval :     1446.35  1461.42  1474.67  1488.58  1492.67  1504.98
eigval :     1520.02  1553.91  1561.96  1581.66  1585.83  1586.56
eigval :     1591.67  1602.60  1616.38  3061.19  3081.93  3082.93
eigval :     3087.40  3090.09  3090.79  3095.62  3098.01  3098.30
eigval :     3098.98  3100.31  3108.14  3108.47  3109.94  3112.74
eigval :     3113.10  3116.09  3130.28

   temp. (K)  partition function   enthalpy   heat capacity  entropy
                                   cal/mol     cal/K/mol   cal/K/mol   J/K/mol
 298.15  VIB  0.198E+11            14569.471     97.666     88.310
         ROT  0.401E+08              888.752      2.981     37.771
         INT  0.795E+18            15458.223    100.647    126.081
         TR   0.925E+28             1481.254      4.968     44.185
         TOT                       16939.4773   105.6148   170.2656   712.3914

       T/K    H(0)-H(T)+PV         H(T)/Eh          T*S/Eh         G(T)/Eh
   ------------------------------------------------------------------------
    298.15    0.269948E-01    0.416791E+00    0.808987E-01    0.335892E+00
   ------------------------------------------------------------------------

         :::::::::::::::::::::::::::::::::::::::::::::::::::::
         ::                  THERMODYNAMIC                  ::
         :::::::::::::::::::::::::::::::::::::::::::::::::::::
         :: total free energy         -88.840485820179 Eh   ::
         ::.................................................::
         :: total energy              -89.176377808249 Eh   ::
         :: zero point energy           0.389795910239 Eh   ::
         :: G(RRHO) w/o ZPVE           -0.053903922168 Eh   ::
         :: G(RRHO) contrib.            0.335891988071 Eh   ::
         :::::::::::::::::::::::::::::::::::::::::::::::::::::

           -------------------------------------------------
          | TOTAL ENERGY              -89.176377808249 Eh   |
          | TOTAL ENTHALPY            -88.759587122630 Eh   |
          | TOTAL FREE ENERGY         -88.840485820179 Eh   |
          | GRADIENT NORM               0.000077214571 Eh/α |
           -------------------------------------------------

 * finished run on 2025/09/04 at 14:55:09.425
