   * xtb version 6.7.1 (edcfbbe) compiled by 'albert@albert-system' on 2024-07-22

   ID    Z sym.   atoms
    1    6 C      1-6, 8, 10-17, 19-27, 29-34
    2    7 N      7, 9, 28, 35
    3    8 O      18
    4    1 H      36-53

          program call               : xtb data2507/gas/5-DBFBI/5-DBFBI_gas_S0_crest.xyz --gfn 2 --ohess vtight --parallel 40 --molden --ceasefiles --namespace data2507/gas/5-DBFBI/5-DBFBI_gas_S0_finalOpt
          :  Hamiltonian                  GFN2-xTB          :
 * total energy  :   -89.2738069 Eh     change       -0.3321091E-08 Eh
 * total energy  :   -89.2738073 Eh     change       -0.3793711E-06 Eh
 * total energy  :   -89.2738076 Eh     change       -0.2697958E-06 Eh
 * total energy  :   -89.2738080 Eh     change       -0.4069096E-06 Eh
 * total energy  :   -89.2738081 Eh     change       -0.9596872E-07 Eh
   *** GEOMETRY OPTIMIZATION CONVERGED AFTER 5 ITERATIONS ***

 final structure:
================
53
 xtb: 6.7.1 (edcfbbe)
C           -7.26169056077435        2.91382110734481       -0.70960646834927
C           -7.91620390318337        1.68778440530953       -0.60557894065430
C           -7.21911131767639        0.51286950557319       -0.39238133694742
C           -5.84451551575912        0.60682091720399       -0.28664323294095
C           -5.16565967433902        1.85219803307656       -0.39081073502028
C           -5.88858139682243        3.01692172353234       -0.60517394728279
N           -3.80242172536096        1.68250061166676       -0.25085928460410
C           -3.65898208117021        0.40042774643214       -0.07084022916014
N           -2.61273851540490       -0.46089960696671        0.13351558908127
C           -1.27557487043118       -0.09593510035429        0.20414154921604
C           -0.90017971323595        1.24202883691915        0.04652290900692
C            0.44060088347590        1.54955758249737        0.12003506120617
C            1.38052966122025        0.53916828845481        0.34761879991005
C            2.81820999109171        0.81896649016959        0.43464304678017
C            3.26630750397816        1.97360401591353        1.09057541858381
C            4.60877122840640        2.27747030223733        1.20577191869980
C            5.51321667744230        1.39582728218955        0.64116050120530
O            6.86859993259653        1.51016951716936        0.64132496069968
C            7.34301649767633        0.42025799267549       -0.02370912410588
C            8.67105785860494        0.11810469168392       -0.26482690794008
C            8.93905529165936       -1.04600833722413       -0.96302114036434
C            7.91630878794050       -1.88075312194333       -1.40605869777150
C            6.59045097571420       -1.57835222575265       -1.16479407216110
C            6.29770706214969       -0.41507312477077       -0.46577438011613
C            5.08817885770743        0.22880792012439       -0.02522963560873
C            3.73678426953771       -0.06078683732852       -0.12654666794963
C            0.88268838704768       -0.75301287402472        0.49321897029944
N           -0.39693013000141       -1.06570982314814        0.42436729505304
C           -3.16108061569410       -1.74252305512569        0.25422044375986
C           -2.56250398394294       -2.97057010312166        0.46704785482484
C           -3.38561956514487       -4.08393496802133        0.54044142075394
C           -4.76411590743330       -3.98487396247685        0.40669057435635
C           -5.37685110116528       -2.76059416138700        0.19320799320982
C           -4.56379086981781       -1.64654273300169        0.11900392471148
N           -4.84273084693597       -0.31283680132115       -0.08030788183251
H           -7.84787360751841        3.80544001416321       -0.87642265880649
H           -8.99182781177243        1.65461063184726       -0.69335483350683
H           -7.72760695399290       -0.43556533895901       -0.31196840985415
H           -5.38279317511630        3.96541226842609       -0.68568317018082
H           -1.65367926827314        1.99156924453156       -0.13185446064707
H            0.76761681325297        2.56955603106902       -0.01890269624093
H            2.53936121767089        2.63436983043752        1.53824189021453
H            4.94550352421564        3.16472827613391        1.71736081871767
H            9.45842594292517        0.76838247070396        0.08085831043352
H            9.96470021019832       -1.31281918210757       -1.16868722252954
H            8.16845633735013       -2.78009778430806       -1.94773499563669
H            5.79828207937013       -2.22566336797227       -1.50856558060093
H            3.40503424374494       -0.94321399048355       -0.65169159815457
H            1.54495592504907       -1.58463905066913        0.69595313777714
H           -1.49409148375471       -3.04377537860795        0.57096485769328
H           -2.94058409821979       -5.05313456789202        0.70608567729703
H           -5.37116822566585       -4.87500379079530        0.46962202457791
H           -6.44666824431921       -2.67735892892284        0.08860778899808

          :  Hamiltonian                  GFN2-xTB          :
         :: gradient norm              0.000066594129 Eh/a0 ::
         :: HOMO-LUMO gap              2.845996595832 eV    ::
         :: SCC energy               -90.830643040555 Eh    ::
         :: -> dispersion             -0.069711534218 Eh    ::
         :: repulsion energy           1.556834973058 Eh    ::

    * Orbital Energies and Occupations

         #    Occupation            Energy/Eh            Energy/eV
      -------------------------------------------------------------
         1        2.0000           -0.7375458             -20.0696
       ...           ...                  ...                  ...
        70        2.0000           -0.4317576             -11.7487
        71        2.0000           -0.4283716             -11.6566
        72        2.0000           -0.4266601             -11.6100
        73        2.0000           -0.4241689             -11.5422
        74        2.0000           -0.4155342             -11.3073
        75        2.0000           -0.4127624             -11.2318
        76        2.0000           -0.4015903             -10.9278
        77        2.0000           -0.3917776             -10.6608
        78        2.0000           -0.3887301             -10.5779
        79        2.0000           -0.3872796             -10.5384
        80        2.0000           -0.3801862             -10.3454
        81        2.0000           -0.3750615             -10.2059
        82        2.0000           -0.3660140              -9.9597 (HOMO)
        83                         -0.2614256              -7.1138 (LUMO)
        84                         -0.2573531              -7.0029
        85                         -0.2469751              -6.7205
        86                         -0.2414459              -6.5701
        87                         -0.2321719              -6.3177
        88                         -0.2288020              -6.2260
        89                         -0.2162638              -5.8848
        90                         -0.2029237              -5.5218
        91                         -0.1975022              -5.3743
        92                         -0.1922113              -5.2303
        93                         -0.1557367              -4.2378
       ...                                ...                  ...
       158                          0.7401450              20.1404
      -------------------------------------------------------------
                  HL-Gap            0.1045884 Eh            2.8460 eV

     #   Z          covCN         q      C6AA      α(0)
     1   6 C        2.923    -0.038    28.947     8.823
     2   6 C        2.926    -0.039    28.964     8.826
     3   6 C        2.907    -0.047    29.170     8.856
     4   6 C        3.066     0.030    27.266     8.562
     5   6 C        3.233     0.068    25.668     8.223
     6   6 C        2.910    -0.043    29.072     8.841
     7   7 N        1.864    -0.329    29.376     8.034
     8   6 C        3.345     0.194    21.596     7.336
     9   7 N        2.797    -0.051    22.233     7.003
    10   6 C        2.905     0.149    24.764     8.160
    11   6 C        2.914    -0.063    29.556     8.915
    12   6 C        2.935    -0.016    28.410     8.742
    13   6 C        2.972    -0.006    28.169     8.706
    14   6 C        2.976     0.002    27.987     8.678
    15   6 C        2.931    -0.037    28.921     8.820
    16   6 C        2.907    -0.052    29.295     8.875
    17   6 C        3.102     0.129    25.060     8.203
    18   8 O        1.714    -0.223    17.690     5.679
    19   6 C        3.103     0.130    25.044     8.200
    20   6 C        2.908    -0.052    29.279     8.873
    21   6 C        2.926    -0.032    28.790     8.799
    22   6 C        2.921    -0.038    28.944     8.822
    23   6 C        2.913    -0.033    28.820     8.803
    24   6 C        3.056    -0.019    28.425     8.743
    25   6 C        3.053    -0.019    28.425     8.744
    26   6 C        2.918    -0.040    28.983     8.828
    27   6 C        2.915     0.055    26.775     8.485
    28   7 N        1.843    -0.248    27.322     7.746
    29   6 C        3.077     0.046    26.887     8.501
    30   6 C        2.911    -0.044    29.100     8.846
    31   6 C        2.924    -0.035    28.875     8.812
    32   6 C        2.924    -0.036    28.890     8.814
    33   6 C        2.910    -0.045    29.118     8.848
    34   6 C        3.033     0.043    27.002     8.523
    35   7 N        2.897    -0.052    22.241     7.004
    36   1 H        0.926     0.033     2.538     2.491
    37   1 H        0.926     0.033     2.551     2.497
    38   1 H        0.926     0.029     2.601     2.522
    39   1 H        0.926     0.044     2.390     2.418
    40   1 H        0.926     0.076     2.023     2.224
    41   1 H        0.926     0.043     2.405     2.425
    42   1 H        0.926     0.043     2.415     2.430
    43   1 H        0.926     0.049     2.335     2.390
    44   1 H        0.926     0.047     2.354     2.399
    45   1 H        0.926     0.040     2.445     2.445
    46   1 H        0.926     0.037     2.484     2.465
    47   1 H        0.926     0.038     2.471     2.458
    48   1 H        0.926     0.040     2.454     2.450
    49   1 H        0.925     0.041     2.436     2.441
    50   1 H        0.926     0.073     2.055     2.242
    51   1 H        0.926     0.042     2.419     2.432
    52   1 H        0.926     0.040     2.444     2.445
    53   1 H        0.926     0.041     2.429     2.437

molecular dipole:
                 x           y           z       tot (Debye)
 q only:        0.264      -0.833      -0.040
   full:        0.162      -0.752      -0.041       1.959

 projected vibrational frequencies (cm⁻¹)
eigval :       -0.00    -0.00     0.00     0.00     0.00     0.00
eigval :       12.51    20.78    31.31    50.97    66.20    74.28
eigval :       75.90    98.95   112.84   125.36   142.01   160.67
eigval :      176.50   194.90   212.69   245.67   270.87   280.78
eigval :      309.74   317.87   337.25   348.89   376.76   392.80
eigval :      401.72   406.26   412.66   414.48   419.65   430.29
eigval :      441.74   462.03   502.43   527.40   532.42   539.42
eigval :      541.96   546.23   566.41   597.60   599.66   601.23
eigval :      608.66   620.25   645.50   660.99   661.27   681.00
eigval :      690.02   700.60   712.27   715.93   727.01   732.48
eigval :      770.96   776.38   779.10   800.50   817.21   819.63
eigval :      841.96   847.03   863.10   868.64   868.98   872.39
eigval :      873.85   884.10   894.93   899.70   900.84   904.03
eigval :      908.78   917.51   920.25   921.72   924.06   931.60
eigval :      965.84  1000.36  1029.59  1057.77  1062.33  1063.27
eigval :     1074.85  1090.49  1117.14  1119.84  1134.16  1142.12
eigval :     1155.31  1166.19  1173.07  1174.73  1184.69  1197.23
eigval :     1210.80  1215.03  1236.43  1248.61  1249.50  1253.16
eigval :     1258.57  1265.49  1275.02  1285.90  1294.77  1310.54
eigval :     1337.88  1339.07  1353.06  1359.29  1380.24  1387.19
eigval :     1398.59  1411.94  1419.18  1423.52  1448.03  1459.17
eigval :     1474.06  1477.17  1489.54  1500.23  1545.87  1567.85
eigval :     1577.23  1581.42  1590.91  1592.29  1599.62  1602.68
eigval :     1610.13  1617.68  1651.14  3056.32  3079.36  3081.53
eigval :     3082.92  3085.16  3088.67  3090.26  3091.00  3094.97
eigval :     3095.79  3098.29  3098.73  3108.21  3108.76  3109.02
eigval :     3109.76  3112.64  3138.24

   temp. (K)  partition function   enthalpy   heat capacity  entropy
                                   cal/mol     cal/K/mol   cal/K/mol   J/K/mol
 298.15  VIB  0.845E+10            14116.361     95.257     85.346
         ROT  0.403E+08              888.752      2.981     37.780
         INT  0.340E+18            15005.113     98.238    123.126
         TR   0.925E+28             1481.254      4.968     44.185
         TOT                       16486.3670   103.2058   167.3103   700.0262

       T/K    H(0)-H(T)+PV         H(T)/Eh          T*S/Eh         G(T)/Eh
   ------------------------------------------------------------------------
    298.15    0.262727E-01    0.421035E+00    0.794945E-01    0.341541E+00
   ------------------------------------------------------------------------

         :::::::::::::::::::::::::::::::::::::::::::::::::::::
         ::                  THERMODYNAMIC                  ::
         :::::::::::::::::::::::::::::::::::::::::::::::::::::
         :: total free energy         -88.932267328134 Eh   ::
         ::.................................................::
         :: total energy              -89.273808067498 Eh   ::
         :: zero point energy           0.394762549438 Eh   ::
         :: G(RRHO) w/o ZPVE           -0.053221810074 Eh   ::
         :: G(RRHO) contrib.            0.341540739364 Eh   ::
         :::::::::::::::::::::::::::::::::::::::::::::::::::::

           -------------------------------------------------
          | TOTAL ENERGY              -89.273808067498 Eh   |
          | TOTAL ENTHALPY            -88.852772819978 Eh   |
          | TOTAL FREE ENERGY         -88.932267328134 Eh   |
          | GRADIENT NORM               0.000066590345 Eh/α |
          | HOMO-LUMO GAP               2.845995969077 eV   |
           -------------------------------------------------

 * finished run on 2025/09/04 at 14:52:53.137
