   * xtb version 6.7.1 (edcfbbe) compiled by 'albert@albert-system' on 2024-07-22

   ID    Z sym.   atoms
    1    8 O      1, 3, 15, 47
    2   16 S      2
    3    6 C      4-7, 9-14, 16-39, 41-46, 48-56
    4    7 N      8, 40
    5    1 H      57-86

          program call               : xtb data2507/gas/SPFS-PXZ/SPFS-PXZ_gas_S0_crest.xyz --gfn 2 --ohess vtight --parallel 40 --molden --ceasefiles --namespace data2507/gas/SPFS-PXZ/SPFS-PXZ_gas_S0_finalOpt
          :  Hamiltonian                  GFN2-xTB          :
 * total energy  :  -145.6440317 Eh     change       -0.3432234E-08 Eh
 * total energy  :  -145.6440323 Eh     change       -0.5856584E-06 Eh
 * total energy  :  -145.6440332 Eh     change       -0.9466213E-06 Eh
 * total energy  :  -145.6440346 Eh     change       -0.1387723E-05 Eh
 * total energy  :  -145.6440362 Eh     change       -0.1646102E-05 Eh
 * total energy  :  -145.6440376 Eh     change       -0.1370893E-05 Eh
 * total energy  :  -145.6440387 Eh     change       -0.1050096E-05 Eh
 * total energy  :  -145.6440397 Eh     change       -0.9905039E-06 Eh
 * total energy  :  -145.6440408 Eh     change       -0.1110527E-05 Eh
 * total energy  :  -145.6440418 Eh     change       -0.9935838E-06 Eh
 * total energy  :  -145.6440437 Eh     change       -0.4378615E-06 Eh
 * total energy  :  -145.6440441 Eh     change       -0.3584958E-06 Eh
 * total energy  :  -145.6440443 Eh     change       -0.2092854E-06 Eh
 * total energy  :  -145.6440444 Eh     change       -0.1320293E-06 Eh
 * total energy  :  -145.6440445 Eh     change       -0.1161017E-06 Eh
 * total energy  :  -145.6440447 Eh     change       -0.1278983E-06 Eh
 * total energy  :  -145.6440448 Eh     change       -0.1561381E-06 Eh
 * total energy  :  -145.6440450 Eh     change       -0.1605574E-06 Eh
 * total energy  :  -145.6440450 Eh     change       -0.2288658E-08 Eh
   *** GEOMETRY OPTIMIZATION CONVERGED AFTER 22 ITERATIONS ***

 final structure:
================
86
 xtb: 6.7.1 (edcfbbe)
O            0.00165121275391        3.48411044255754       -3.04556802442572
S            0.00154485844652        3.09196949887928       -1.66306117430770
O            0.00294066882382        4.14802504013336       -0.68090373097057
C           -1.39501638363652        2.03672086493338       -1.33150051692101
C           -2.59187929914094        2.32808176840671       -1.96366324485611
C           -3.72180282110569        1.58647695712302       -1.68961947420843
C           -3.65210390820656        0.56735761985233       -0.73817156549564
N           -4.78936820317521       -0.19810618154831       -0.42922807687272
C           -5.95304613787751        0.41735703695838        0.04889627411302
C           -6.00936878728387        1.77450055728054        0.34004748663422
C           -7.17969411820028        2.35306605901589        0.80710735356306
C           -8.30856081513232        1.58400650209375        1.00493299955508
C           -8.25641966368770        0.22037942746248        0.75956970707272
C           -7.09055222553689       -0.36140540154712        0.29628645432362
O           -7.10598526208818       -1.72129584718844        0.11510421629275
C           -5.94378213006635       -2.31801363943033       -0.30190105962525
C           -5.96980909371176       -3.69306208939966       -0.44784329975586
C           -4.84990757790215       -4.37150912147902       -0.90353283109198
C           -3.71480792441186       -3.65953521559142       -1.23247523710125
C           -3.68340503811976       -2.28125985764215       -1.08650442830894
C           -4.78250360978350       -1.58935920081115       -0.59310517163517
C           -2.44523528484325        0.29432477336316       -0.10484631430593
C           -1.28727889266466        1.00148663000225       -0.41744891281516
C           -0.00081731232371        0.60942094250299        0.27270733497926
C           -0.00174122253998       -0.88893604489863        0.52638615570033
C           -0.00252219131333       -1.90418879057461       -0.40518181820153
C           -0.00228444621921       -3.21688089585352        0.04754873918818
C           -0.00121305602565       -3.49733094225178        1.40499901208127
C           -0.00042697826134       -2.47797948447108        2.34439644486600
C           -0.00069426811670       -1.16597325086538        1.89990649944985
C            0.00064648078423        0.09753264502502        2.62337700110435
C            0.00241660974445        0.36684560352890        3.98180861812778
C            0.00410976182095        1.68997421315322        4.39453594590194
C            0.00401098037129        2.72468283399698        3.47145320830873
C            0.00215956131885        2.46590870019122        2.10587968748783
C            0.00045678994149        1.15059514067887        1.69757820896617
C            1.28642851882668        0.99924300175298       -0.41738111210572
C            2.44328979636135        0.29087046274894       -0.10348241232428
C            3.65108196131819        0.56261167024568       -0.73548462253330
N            4.78789262104981       -0.20244246388650       -0.42385956966028
C            5.94948221636830        0.41401013695484        0.05805512229486
C            6.00351825587619        1.77113782785815        0.34968486017519
C            7.17180513805387        2.35076479440665        0.82048434581850
C            8.30082723258941        1.58277434834963        1.02156311272909
C            8.25080420353076        0.21914400081920        0.77576756936091
C            7.08694252694346       -0.36370876403594        0.30879676442370
O            7.10410183371486       -1.72355253656450        0.12741079998779
C            5.94260774909394       -2.32164682137898       -0.28967166445862
C            5.96918188230089       -3.69705601383297       -0.43201348097115
C            4.85015117770070       -4.37689870980853       -0.88778718299195
C            3.71541016025055       -3.66604323032233       -1.22036927425917
C            3.68338465762546       -2.28740773662364       -1.07784745550817
C            4.78154945679991       -1.59403799985508       -0.58443944896019
C            3.72271266594210        1.58106634918778       -1.68751310763081
C            2.59380777327602        2.32365017347700       -1.96308532095834
C            1.39609616232863        2.03399057962212       -1.33172351052986
H           -2.60312984476149        3.13285128882310       -2.68169239906525
H           -4.65281812484202        1.78703062575042       -2.19695586282133
H           -5.13016489967420        2.38550947001165        0.20992669944638
H           -7.19566218675425        3.41119702656877        1.01722014595253
H           -9.22343735331575        2.03044776642332        1.36076105863070
H           -9.11156127255805       -0.41469195264270        0.92666588078111
H           -6.88272077153007       -4.21300220841055       -0.20547359417275
H           -4.87859991006830       -5.44425079089715       -1.01022268763100
H           -2.84102058630909       -4.16676090079831       -1.61074127586943
H           -2.79397603436237       -1.74254429954640       -1.37033172312258
H           -2.41459070606248       -0.48424606121833        0.64265121233061
H           -0.00312228287461       -1.68276647236618       -1.46332443526201
H           -0.00285346735527       -4.02764934056892       -0.66501348826112
H           -0.00091026348183       -4.52549380057276        1.73466437435458
H            0.00054516487389       -2.70302325846926        3.40011042019397
H            0.00260414884807       -0.43624440013100        4.70348823588150
H            0.00561282504764        1.91807213836294        5.45031846257238
H            0.00546846638968        3.74761599218813        3.81619665540575
H            0.00219623234427        3.27180006038880        1.38691428286994
H            2.41117510130058       -0.48718701809118        0.64447361204366
H            5.12412634330683        2.38130341408806        0.21690999221977
H            7.18603543829172        3.40885094643237        1.03093503132158
H            9.21416684946741        2.03007508153738        1.38024176426395
H            9.10608250434090       -0.41508799494063        0.94531220566317
H            6.88184258411696       -4.21615556396241       -0.18689598452376
H            4.87925202053803       -5.44990782085615       -0.99166027590510
H            2.84237317692432       -4.17447531114817       -1.59875569882838
H            2.79426505424514       -1.74961728924637       -1.36443320982701
H            4.65457236681912        1.78066573060416       -2.19367247512552
H            2.60661615431467        3.12817850859494       -2.68135775182223

          :  Hamiltonian                  GFN2-xTB          :
         :: gradient norm              0.000038657799 Eh/a0 ::
         :: HOMO-LUMO gap              2.235052146347 eV    ::
         :: SCC energy              -148.110601793017 Eh    ::
         :: -> dispersion             -0.139293901970 Eh    ::
         :: repulsion energy           2.466556823805 Eh    ::

    * Orbital Energies and Occupations

         #    Occupation            Energy/Eh            Energy/eV
      -------------------------------------------------------------
         1        2.0000           -0.7714148             -20.9913
       ...           ...                  ...                  ...
       121        2.0000           -0.4200784             -11.4309
       122        2.0000           -0.4200626             -11.4305
       123        2.0000           -0.4181417             -11.3782
       124        2.0000           -0.4174745             -11.3601
       125        2.0000           -0.4174225             -11.3586
       126        2.0000           -0.4134608             -11.2508
       127        2.0000           -0.4128408             -11.2340
       128        2.0000           -0.4044253             -11.0050
       129        2.0000           -0.3948274             -10.7438
       130        2.0000           -0.3945546             -10.7364
       131        2.0000           -0.3931247             -10.6975
       132        2.0000           -0.3491577              -9.5011
       133        2.0000           -0.3486951              -9.4885 (HOMO)
       134                         -0.2665584              -7.2534 (LUMO)
       135                         -0.2656382              -7.2284
       136                         -0.2603942              -7.0857
       137                         -0.2550534              -6.9404
       138                         -0.2530203              -6.8850
       139                         -0.2426567              -6.6030
       140                         -0.2426395              -6.6026
       141                         -0.2405983              -6.5470
       142                         -0.2338660              -6.3638
       143                         -0.2338268              -6.3628
       144                         -0.2305022              -6.2723
       ...                                ...                  ...
       259                          1.2124336              32.9920
      -------------------------------------------------------------
                  HL-Gap            0.0821367 Eh            2.2351 eV

     #   Z          covCN         q      C6AA      α(0)
     1   8 O        0.860    -0.543    24.767     6.672
     2  16 S        3.841     0.971   107.495    17.450
     3   8 O        0.860    -0.555    25.039     6.709
     4   6 C        2.974    -0.087    30.175     9.011
     5   6 C        2.969    -0.024    28.592     8.771
     6   6 C        2.922    -0.040    29.002     8.831
     7   6 C        2.919     0.071    26.415     8.428
     8   7 N        2.751    -0.068    22.549     7.053
     9   6 C        2.921     0.041    27.078     8.533
    10   6 C        2.924    -0.059    29.474     8.903
    11   6 C        2.919    -0.038    28.940     8.822
    12   6 C        2.919    -0.039    28.967     8.826
    13   6 C        2.920    -0.056    29.380     8.889
    14   6 C        2.885     0.125    25.247     8.238
    15   8 O        1.709    -0.252    18.176     5.756
    16   6 C        2.885     0.126    25.237     8.236
    17   6 C        2.920    -0.056    29.387     8.890
    18   6 C        2.919    -0.039    28.980     8.828
    19   6 C        2.919    -0.038    28.953     8.824
    20   6 C        2.924    -0.061    29.505     8.908
    21   6 C        2.920     0.041    27.078     8.533
    22   6 C        2.932    -0.047    29.157     8.856
    23   6 C        3.011     0.015    27.658     8.627
    24   6 C        3.946     0.006    20.409     6.419
    25   6 C        3.060    -0.000    27.978     8.674
    26   6 C        2.914    -0.032    28.797     8.800
    27   6 C        2.923    -0.029    28.714     8.787
    28   6 C        2.921    -0.030    28.753     8.793
    29   6 C        2.915    -0.033    28.825     8.804
    30   6 C        3.030     0.003    27.937     8.670
    31   6 C        3.034     0.001    27.973     8.675
    32   6 C        2.915    -0.033    28.826     8.804
    33   6 C        2.921    -0.031    28.762     8.795
    34   6 C        2.924    -0.027    28.678     8.782
    35   6 C        2.912    -0.040    28.995     8.830
    36   6 C        3.056     0.002    27.921     8.666
    37   6 C        3.011     0.015    27.657     8.627
    38   6 C        2.932    -0.047    29.158     8.856
    39   6 C        2.919     0.071    26.414     8.428
    40   7 N        2.751    -0.068    22.550     7.053
    41   6 C        2.921     0.041    27.078     8.533
    42   6 C        2.924    -0.059    29.474     8.903
    43   6 C        2.919    -0.038    28.939     8.822
    44   6 C        2.919    -0.039    28.967     8.826
    45   6 C        2.920    -0.056    29.380     8.889
    46   6 C        2.885     0.125    25.247     8.238
    47   8 O        1.709    -0.252    18.176     5.756
    48   6 C        2.885     0.126    25.237     8.236
    49   6 C        2.920    -0.056    29.387     8.890
    50   6 C        2.919    -0.039    28.980     8.828
    51   6 C        2.919    -0.038    28.953     8.824
    52   6 C        2.924    -0.061    29.505     8.908
    53   6 C        2.920     0.041    27.077     8.533
    54   6 C        2.922    -0.040    29.002     8.831
    55   6 C        2.969    -0.024    28.592     8.771
    56   6 C        2.974    -0.087    30.175     9.011
    57   1 H        0.926     0.066     2.130     2.282
    58   1 H        0.926     0.059     2.211     2.325
    59   1 H        0.926     0.037     2.495     2.470
    60   1 H        0.926     0.040     2.451     2.448
    61   1 H        0.926     0.041     2.433     2.439
    62   1 H        0.926     0.053     2.285     2.364
    63   1 H        0.926     0.053     2.281     2.362
    64   1 H        0.926     0.040     2.443     2.444
    65   1 H        0.926     0.036     2.497     2.471
    66   1 H        0.926     0.034     2.531     2.488
    67   1 H        0.926     0.055     2.253     2.347
    68   1 H        0.926     0.024     2.669     2.555
    69   1 H        0.926     0.036     2.508     2.476
    70   1 H        0.926     0.037     2.484     2.465
    71   1 H        0.926     0.037     2.485     2.465
    72   1 H        0.926     0.036     2.499     2.472
    73   1 H        0.926     0.037     2.488     2.467
    74   1 H        0.926     0.041     2.433     2.439
    75   1 H        0.926     0.059     2.211     2.325
    76   1 H        0.926     0.055     2.253     2.347
    77   1 H        0.926     0.037     2.495     2.470
    78   1 H        0.926     0.040     2.451     2.448
    79   1 H        0.926     0.041     2.433     2.439
    80   1 H        0.926     0.053     2.285     2.364
    81   1 H        0.926     0.053     2.282     2.362
    82   1 H        0.926     0.040     2.443     2.444
    83   1 H        0.926     0.036     2.497     2.471
    84   1 H        0.926     0.034     2.531     2.488
    85   1 H        0.926     0.059     2.211     2.325
    86   1 H        0.926     0.066     2.130     2.282

molecular dipole:
                 x           y           z       tot (Debye)
 q only:       -0.002      -1.731       0.877
   full:       -0.002      -1.548       0.767       4.391

 projected vibrational frequencies (cm⁻¹)
eigval :       -0.00    -0.00    -0.00     0.00     0.00     0.00
eigval :       10.83    13.93    16.23    18.05    21.83    28.74
eigval :       38.40    43.41    47.17    47.21    58.27    70.10
eigval :       91.15    94.93    95.28   105.45   112.67   115.78
eigval :      124.92   140.61   158.27   160.47   174.42   179.97
eigval :      198.63   219.85   222.01   236.52   246.03   247.64
eigval :      253.47   260.26   261.90   267.97   272.20   285.22
eigval :      292.05   301.84   348.48   358.55   370.05   373.30
eigval :      387.37   392.98   397.56   411.17   415.67   422.03
eigval :      423.91   424.96   430.83   432.45   434.91   436.19
eigval :      444.35   457.13   469.63   472.17   474.52   499.86
eigval :      509.12   509.85   510.01   516.84   522.44   525.99
eigval :      531.70   538.74   542.00   559.32   578.07   585.40
eigval :      592.36   598.72   598.92   614.00   620.26   641.04
eigval :      648.06   655.49   659.33   661.82   661.88   662.10
eigval :      666.66   676.83   679.61   686.66   694.85   728.39
eigval :      738.03   740.57   755.07   772.62   777.73   777.90
eigval :      780.35   780.41   789.91   806.29   812.42   833.06
eigval :      835.05   856.33   856.46   862.70   862.80   869.24
eigval :      869.46   882.98   886.23   888.13   889.97   892.36
eigval :      896.43   899.61   899.66   906.34   907.69   908.99
eigval :      914.88   915.20   915.38   916.57   916.87   919.26
eigval :      920.10   923.03   926.79   927.55   929.57   938.02
eigval :      988.21  1004.02  1018.94  1033.37  1074.76  1075.54
eigval :     1081.13  1091.11  1091.35  1092.89  1092.91  1099.62
eigval :     1109.08  1109.10  1119.50  1121.56  1122.87  1142.85
eigval :     1152.48  1155.76  1162.80  1168.31  1174.01  1174.82
eigval :     1174.93  1177.57  1179.54  1185.70  1190.79  1197.94
eigval :     1202.38  1202.86  1206.32  1206.73  1226.16  1232.83
eigval :     1234.96  1237.65  1243.19  1243.80  1246.38  1251.31
eigval :     1259.53  1262.68  1262.79  1281.84  1307.18  1309.51
eigval :     1309.75  1312.90  1322.91  1323.46  1326.41  1333.99
eigval :     1334.50  1353.02  1354.00  1365.61  1396.44  1398.61
eigval :     1423.75  1423.76  1427.07  1429.77  1442.14  1442.21
eigval :     1457.30  1458.37  1462.99  1471.07  1486.67  1487.58
eigval :     1503.06  1503.82  1556.75  1565.52  1568.12  1568.41
eigval :     1574.01  1578.93  1580.99  1581.72  1585.45  1590.82
eigval :     1590.99  1594.77  1599.65  1602.42  1602.84  1602.97
eigval :     3069.40  3078.70  3082.93  3087.62  3090.68  3092.00
eigval :     3092.15  3092.17  3092.45  3095.14  3096.67  3096.89
eigval :     3097.34  3097.56  3099.12  3100.93  3100.96  3101.75
eigval :     3101.96  3102.98  3108.11  3108.15  3108.62  3108.82
eigval :     3112.42  3112.58  3114.37  3114.42  3115.21  3115.28

   temp. (K)  partition function   enthalpy   heat capacity  entropy
                                   cal/mol     cal/K/mol   cal/K/mol   J/K/mol
 298.15  VIB  0.248E+20            25357.945    162.355    155.894
         ROT  0.996E+08              888.752      2.981     39.580
         INT  0.247E+28            26246.698    165.336    195.474
         TR   0.196E+29             1481.254      4.968     45.675
         TOT                       27727.9518   170.3045   241.1492  1008.9681

       T/K    H(0)-H(T)+PV         H(T)/Eh          T*S/Eh         G(T)/Eh
   ------------------------------------------------------------------------
    298.15    0.441873E-01    0.682417E+00    0.114578E+00    0.567840E+00
   ------------------------------------------------------------------------

         :::::::::::::::::::::::::::::::::::::::::::::::::::::
         ::                  THERMODYNAMIC                  ::
         :::::::::::::::::::::::::::::::::::::::::::::::::::::
         :: total free energy        -145.076205286023 Eh   ::
         ::.................................................::
         :: total energy             -145.644044969211 Eh   ::
         :: zero point energy           0.638230124260 Eh   ::
         :: G(RRHO) w/o ZPVE           -0.070390441072 Eh   ::
         :: G(RRHO) contrib.            0.567839683187 Eh   ::
         :::::::::::::::::::::::::::::::::::::::::::::::::::::

           -------------------------------------------------
          | TOTAL ENERGY             -145.644044969211 Eh   |
          | TOTAL ENTHALPY           -144.961627541154 Eh   |
          | TOTAL FREE ENERGY        -145.076205286023 Eh   |
          | GRADIENT NORM               0.000038613774 Eh/α |
          | HOMO-LUMO GAP               2.235053541279 eV   |
           -------------------------------------------------

 * finished run on 2025/09/08 at 06:41:22.311
