   * xtb version 6.7.1 (edcfbbe) compiled by 'albert@albert-system' on 2024-07-22

   ID    Z sym.   atoms
    1    8 O      1, 3, 15, 47
    2   16 S      2
    3    6 C      4-7, 9-14, 16-39, 41-46, 48-56
    4    7 N      8, 40
    5    1 H      57-86

          program call               : xtb data2507/gas/SPFS-PXZ/SPFS-PXZ_gas_S0_finalOpt.xtbopt.xyz --gfn 2 --spinpol --tblite --uhf 2 --ohess vtight --parallel 40 --molden --ceasefiles --namespace data2507/gas/SPFS-PXZ/SPFS-PXZ_gas_T1_preOpt
 * total energy  :  -145.5485379 Eh     change       -0.8580855E-08 Eh
 * total energy  :  -145.5511430 Eh     change       -0.2605137E-02 Eh
 * total energy  :  -145.5517397 Eh     change       -0.5966920E-03 Eh
 * total energy  :  -145.5518100 Eh     change       -0.7024990E-04 Eh
 * total energy  :  -145.5518802 Eh     change       -0.7021074E-04 Eh
 * total energy  :  -145.5519200 Eh     change       -0.3983380E-04 Eh
 * total energy  :  -145.5519661 Eh     change       -0.4603163E-04 Eh
 * total energy  :  -145.5520375 Eh     change       -0.7145671E-04 Eh
 * total energy  :  -145.5520248 Eh     change        0.1273880E-04 Eh
 * total energy  :  -145.5522266 Eh     change       -0.2018597E-03 Eh
 * total energy  :  -145.5527226 Eh     change       -0.2863679E-05 Eh
 * total energy  :  -145.5527249 Eh     change       -0.2295625E-05 Eh
 * total energy  :  -145.5527265 Eh     change       -0.1617895E-05 Eh
 * total energy  :  -145.5527277 Eh     change       -0.1175979E-05 Eh
 * total energy  :  -145.5527286 Eh     change       -0.9311462E-06 Eh
 * total energy  :  -145.5527294 Eh     change       -0.7773539E-06 Eh
 * total energy  :  -145.5527297 Eh     change       -0.3218849E-06 Eh
 * total energy  :  -145.5527299 Eh     change       -0.1404847E-06 Eh
 * total energy  :  -145.5527299 Eh     change       -0.4199325E-07 Eh
   *** GEOMETRY OPTIMIZATION CONVERGED AFTER 40 ITERATIONS ***

 final structure:
================
86
 xtb: 6.7.1 (edcfbbe)
O           -0.00423552901064        3.49596295996245       -3.02109411293898
S           -0.00586235383977        3.09025831469772       -1.63961863608932
O           -0.00235167624271        4.15065861606047       -0.65733489580849
C           -1.38304225563572        2.02427025647923       -1.32609180217535
C           -2.57473492731013        2.27163023411656       -2.00610710457946
C           -3.69815884717685        1.52833922460554       -1.73642913942799
C           -3.63275430745592        0.53776732821434       -0.74878560721346
N           -4.77875323207510       -0.23194534309561       -0.43418527204277
C           -5.90050151047109        0.38257646854575        0.07326358790545
C           -5.94304950893048        1.74561795216699        0.39789674329986
C           -7.09580314404471        2.31837019969503        0.87256992072105
C           -8.26176652712049        1.54583062180422        1.05124177967143
C           -8.23823010955904        0.19671806719128        0.77876071373925
C           -7.07754203792406       -0.40490224365442        0.30634347154045
O           -7.08826742493927       -1.74036089559774        0.09349420488085
C           -5.96363813279961       -2.34051937629226       -0.35766286227572
C           -5.99165457786632       -3.71732877944662       -0.55776392187738
C           -4.88666709055950       -4.37239021161860       -1.04995780214220
C           -3.72810009129859       -3.64141414464753       -1.37866417653282
C           -3.68253684394305       -2.28157070907716       -1.19270747043294
C           -4.77577606607364       -1.59293256001463       -0.65384069902325
C           -2.43204377402289        0.28566817815507       -0.08197626769861
C           -1.28398510058073        1.00175190663945       -0.38186275526861
C            0.00012942824639        0.63353714006217        0.32734794081083
C            0.00116155720612       -0.85847507085026        0.61608160197988
C           -0.00133053159005       -1.89441148326900       -0.29114664205469
C           -0.00100401004797       -3.19801312365464        0.18999415999761
C            0.00171973560475       -3.44697727036509        1.55469526198372
C            0.00418565548460       -2.40765969393748        2.47038464857353
C            0.00402353635559       -1.10338855924385        1.99727398125694
C            0.00635648573699        0.17339575866778        2.68946310503360
C            0.01075675001447        0.47404449326427        4.04300571940534
C            0.01209661362664        1.80499200857996        4.42619429144679
C            0.00927783874291        2.81964613216160        3.47999957411383
C            0.00542943429237        2.53014625676250        2.11991480266804
C            0.00386252188474        1.20726771403691        1.73919974370949
C            1.28155638534779        1.00474011463160       -0.38506280928003
C            2.43438045602934        0.29048061605683       -0.08625191525907
C            3.63193231698885        0.54324990720181       -0.75167898658795
N            4.77679065488995       -0.22624342030510       -0.44368980006935
C            5.91850000201376        0.38359259815020        0.06986660239688
C            5.95924915603694        1.73924923313910        0.38151767021441
C            7.11574764987775        2.31469946049058        0.87988268622661
C            8.24795017003356        1.54833199897094        1.08636322657017
C            8.21491435315284        0.19006119980960        0.81299808156081
C            7.06167196485131       -0.39207534769477        0.31727264973866
O            7.08914733384868       -1.74369036657439        0.09852532174017
C            5.94250818144200       -2.33719049031371       -0.35691470241483
C            5.97664599810226       -3.70829591329990       -0.54120810829543
C            4.86340191210852       -4.37530101862450       -1.02722290109296
C            3.72440640308318       -3.65927943057097       -1.34419835664730
C            3.68355799421490       -2.28731344008735       -1.16357515710283
C            4.78059803602050       -1.60428876977389       -0.64700234399539
C            3.69356096714105        1.53744242848660       -1.73162484680279
C            2.56822159832246        2.28476397787115       -1.99560599199550
C            1.37956736295781        2.02850703160074       -1.32190872407272
H           -2.57587017361971        3.05457179006642       -2.74725548310395
H           -4.62278635873812        1.69789502756238       -2.26655562748576
H           -5.05170455666297        2.34071148902310        0.27624760367737
H           -7.11056946018236        3.36828476580090        1.11671403608068
H           -9.16333584158609        2.01002788583363        1.41564402053919
H           -9.10675821349304       -0.42470635695963        0.93010835576815
H           -6.90172252647736       -4.24503864762955       -0.31976008228653
H           -4.91016668818747       -5.43950276155383       -1.19875642535396
H           -2.87190947784748       -4.15361664369512       -1.78662070490132
H           -2.79603013968853       -1.73156358605172       -1.46386543470804
H           -2.41206076391094       -0.48165880473122        0.67741417423074
H           -0.00354289272323       -1.69631744772804       -1.35408082330097
H           -0.00340881975488       -4.02491800351228       -0.50397629479578
H            0.00161713828690       -4.46792261422827        1.90729261721024
H            0.00625624293007       -2.60899838946430        3.53110756527076
H            0.01323636731114       -0.31336595843112        4.78219215970536
H            0.01538525542545        2.05663817299647        5.47695029400068
H            0.01029214112502        3.85001760968514        3.80214987341903
H            0.00371268123275        3.32016334336786        1.38371557865039
H            2.41342442681504       -0.47885475843506        0.67122034819144
H            5.07724597362134        2.34286368134382        0.23895696796730
H            7.12297874146266        3.36893362948637        1.10857843630831
H            9.15133779096411        1.99601965437812        1.46877596294982
H            9.07355216776957       -0.43972571410617        0.98182867552057
H            6.88803195863647       -4.23258812601873       -0.30270506427093
H            4.89685164684820       -5.44433397940691       -1.16469246763962
H            2.85640960601529       -4.16323955969686       -1.73942034023383
H            2.79404987523426       -1.74074255836266       -1.43040452484322
H            4.61724623801431        1.71463992886489       -2.26112796202393
H            2.56982293448943        3.07369742023948       -2.73069257555138

 projected vibrational frequencies (cm⁻¹)
eigval :       -0.00    -0.00     0.00     0.00     0.00     0.00
eigval :       10.24    11.96    14.73    18.15    22.70    26.94
eigval :       36.05    42.94    45.23    49.70    64.59    72.51
eigval :       87.32    91.16    96.99   102.54   105.29   112.66
eigval :      120.24   138.78   153.73   157.89   171.24   173.62
eigval :      190.42   217.18   221.06   234.26   236.01   244.94
eigval :      251.39   255.15   257.33   265.82   270.33   288.18
eigval :      293.89   301.78   343.51   359.15   366.67   370.49
eigval :      384.20   389.32   390.14   396.26   404.49   413.25
eigval :      415.88   420.80   423.17   427.63   428.75   431.74
eigval :      442.04   448.68   451.68   461.22   466.80   468.58
eigval :      488.87   500.43   504.87   507.39   514.33   523.76
eigval :      528.37   530.21   535.67   548.32   570.78   579.61
eigval :      589.41   591.47   596.50   598.36   606.80   619.26
eigval :      625.15   632.34   638.68   645.79   657.79   659.65
eigval :      664.24   665.37   673.34   676.06   678.98   717.94
eigval :      725.52   736.09   742.63   744.80   753.94   768.55
eigval :      776.12   778.81   785.71   798.74   808.38   812.45
eigval :      823.70   838.61   840.39   842.49   855.78   860.63
eigval :      867.26   867.97   877.04   880.23   882.83   883.81
eigval :      887.84   888.45   888.99   891.86   892.96   897.36
eigval :      899.19   900.70   902.32   906.59   911.54   912.59
eigval :      915.28   915.84   918.43   921.11   924.14   936.24
eigval :      965.91   995.87  1003.18  1011.10  1044.22  1047.90
eigval :     1054.81  1072.86  1079.58  1081.22  1087.91  1090.63
eigval :     1096.89  1111.24  1112.54  1119.55  1121.62  1132.29
eigval :     1141.81  1150.83  1151.98  1160.66  1162.02  1173.04
eigval :     1173.19  1174.22  1175.24  1179.15  1179.62  1186.04
eigval :     1194.55  1197.82  1203.84  1205.77  1207.16  1221.29
eigval :     1226.84  1234.43  1237.71  1240.47  1243.40  1245.11
eigval :     1255.31  1259.24  1259.76  1278.11  1283.26  1303.23
eigval :     1310.67  1313.17  1321.57  1322.78  1324.94  1329.51
eigval :     1332.15  1342.85  1346.44  1350.50  1364.25  1370.69
eigval :     1376.29  1386.62  1391.51  1401.06  1420.00  1420.32
eigval :     1421.43  1426.12  1430.67  1436.75  1442.54  1444.95
eigval :     1447.51  1459.06  1459.32  1460.13  1462.96  1464.94
eigval :     1474.43  1480.74  1503.22  1516.00  1557.51  1565.94
eigval :     1568.40  1579.51  1581.21  1586.29  1592.13  1597.06
eigval :     3065.65  3073.78  3077.83  3083.77  3087.62  3091.75
eigval :     3092.07  3092.67  3092.94  3093.59  3094.98  3095.27
eigval :     3095.61  3098.87  3099.80  3101.75  3103.47  3103.67
eigval :     3103.77  3104.12  3108.94  3109.62  3110.87  3111.90
eigval :     3112.21  3114.83  3115.37  3116.22  3117.02  3118.68

   temp. (K)  partition function   enthalpy   heat capacity  entropy
                                   cal/mol     cal/K/mol   cal/K/mol   J/K/mol
 298.15  VIB  0.583E+20            25753.994    164.889    158.544
         ROT  0.999E+08              888.752      2.981     39.585
         INT  0.582E+28            26642.747    167.870    198.129
         TR   0.196E+29             1481.254      4.968     45.675
         TOT                       28124.0006   172.8377   243.8036  1020.0743

       T/K    H(0)-H(T)+PV         H(T)/Eh          T*S/Eh         G(T)/Eh
   ------------------------------------------------------------------------
    298.15    0.448184E-01    0.676327E+00    0.115839E+00    0.560488E+00
   ------------------------------------------------------------------------

         :::::::::::::::::::::::::::::::::::::::::::::::::::::
         ::                  THERMODYNAMIC                  ::
         :::::::::::::::::::::::::::::::::::::::::::::::::::::
         :: total free energy        -144.992241712808 Eh   ::
         ::.................................................::
         :: total energy             -145.552729911852 Eh   ::
         :: zero point energy           0.631508710431 Eh   ::
         :: G(RRHO) w/o ZPVE           -0.071020511387 Eh   ::
         :: G(RRHO) contrib.            0.560488199044 Eh   ::
         :::::::::::::::::::::::::::::::::::::::::::::::::::::

           -------------------------------------------------
          | TOTAL ENERGY             -145.552729911852 Eh   |
          | TOTAL ENTHALPY           -144.876402753700 Eh   |
          | TOTAL FREE ENERGY        -144.992241712808 Eh   |
          | GRADIENT NORM               0.000177346339 Eh/α |
           -------------------------------------------------

 * finished run on 2025/09/08 at 06:41:42.069
