   * xtb version 6.7.1 (edcfbbe) compiled by 'albert@albert-system' on 2024-07-22

   ID    Z sym.   atoms
    1    8 O      1, 3, 15, 47
    2   16 S      2
    3    6 C      4-7, 9-14, 16-39, 41-46, 48-56
    4    7 N      8, 40
    5    1 H      57-86

          program call               : xtb data2507/gas/SPFS-PXZ/SPFS-PXZ_gas_T1_crest.xyz --gfn 2 --spinpol --tblite --uhf 2 --ohess vtight --parallel 40 --molden --ceasefiles --namespace data2507/gas/SPFS-PXZ/SPFS-PXZ_gas_T1_finalOpt
 * total energy  :  -145.5525940 Eh     change       -0.9742024E-08 Eh
 * total energy  :  -145.5526670 Eh     change       -0.7307862E-04 Eh
 * total energy  :  -145.5527111 Eh     change       -0.4407482E-04 Eh
 * total energy  :  -145.5527157 Eh     change       -0.4558915E-05 Eh
 * total energy  :  -145.5527179 Eh     change       -0.2232794E-05 Eh
 * total energy  :  -145.5527195 Eh     change       -0.1560369E-05 Eh
 * total energy  :  -145.5527211 Eh     change       -0.1628430E-05 Eh
 * total energy  :  -145.5527229 Eh     change       -0.1755129E-05 Eh
 * total energy  :  -145.5527244 Eh     change       -0.1575216E-05 Eh
 * total energy  :  -145.5527257 Eh     change       -0.1287657E-05 Eh
 * total energy  :  -145.5527286 Eh     change       -0.6252169E-06 Eh
 * total energy  :  -145.5527292 Eh     change       -0.5475180E-06 Eh
 * total energy  :  -145.5527300 Eh     change       -0.7590806E-06 Eh
 * total energy  :  -145.5527304 Eh     change       -0.4509368E-06 Eh
 * total energy  :  -145.5527307 Eh     change       -0.2784335E-06 Eh
 * total energy  :  -145.5527309 Eh     change       -0.1943470E-06 Eh
 * total energy  :  -145.5527308 Eh     change        0.7072651E-07 Eh
 * total energy  :  -145.5527310 Eh     change       -0.1834195E-06 Eh
 * total energy  :  -145.5527310 Eh     change       -0.4069307E-08 Eh
   *** GEOMETRY OPTIMIZATION CONVERGED AFTER 22 ITERATIONS ***

 final structure:
================
86
 xtb: 6.7.1 (edcfbbe)
O            0.00286086723650       -4.13729751995512       -0.74845245014598
S            0.00620297626024       -3.05893273373643       -1.71099964684726
O            0.00492526489045       -3.43855294099004       -3.09985170766265
C           -1.37915055065534       -2.00344899275694       -1.37304131830597
C           -2.56716363044347       -2.24338062834487       -2.05385633834521
C           -3.69236397843319       -1.50132189384434       -1.77446606020658
C           -3.63173261806171       -0.53045134082185       -0.77135775751229
N           -4.77569824522812        0.23351160122456       -0.44688159341276
C           -4.77372228874155        1.61680146989052       -0.61192727446840
C           -3.67521998144839        2.30873320905142       -1.11338041034977
C           -3.70950482024702        3.68547217608380       -1.25456031983689
C           -4.84346971297971        4.39802874637204       -0.91270680666477
C           -5.95858425244682        3.72300103368207       -0.44234619210512
C           -5.93098402853995        2.34699183519560       -0.29762883312662
O           -7.07937805368501        1.74647978623868        0.14394863938802
C           -7.05903403540059        0.38864036972839        0.32114445797221
C           -8.21524359540181       -0.20180779129242        0.79987019033510
C           -8.25567631332643       -1.56743925020112        1.03237591391093
C           -7.12764631150408       -2.33329863148818        0.80256671781473
C           -5.96822809549201       -1.74945356577458        0.32097390094166
C           -5.92019815795512       -0.38538648836012        0.04963886018219
C           -2.43466039213520       -0.29383910947533       -0.09896210469503
C           -1.28170300545114       -1.00104882924723       -0.41330561919721
C           -0.00026523451761       -0.64349405083082        0.30590580375095
C           -0.00119045314814       -1.24318888842620        1.70678467702086
C           -0.00012605757660       -2.57294655154940        2.06270974619863
C            0.00085899578700       -2.88775622371949        3.41715132562299
C            0.00029137461342       -1.89086917414506        4.38204131060311
C           -0.00127011659475       -0.55298813373153        4.02375969075138
C           -0.00185348224485       -0.22712758600414        2.67607322186223
C           -0.00246243747241        1.06231617021977        2.00765539409116
C           -0.00300669393262        2.35766409151903        2.50463427303836
C           -0.00268967551721        3.41364903027969        1.60819365835079
C           -0.00159701328413        3.18988108902639        0.23916579232575
C           -0.00132551621866        1.89537350587628       -0.26586180054961
C           -0.00193929125586        0.84297528152877        0.62219124826346
C            1.28382408239412       -0.99701715186887       -0.41072956709756
C            2.43161809506729       -0.28725753884860       -0.09548507960298
C            3.63241478652849       -0.52442928422710       -0.76745328865880
N            4.77691288228551        0.24045042155069       -0.43589605735840
C            4.76937849241946        1.60600562223168       -0.62349223748367
C            3.67645347717743        2.30233802933692       -1.15350343617270
C            3.71620715853942        3.66643554925624       -1.30508980423387
C            4.86823399483181        4.39507015728146       -0.94881542610982
C            5.97306123675845        3.73357055033300       -0.46477746140849
C            5.95113316174633        2.35213771978477       -0.29996764684496
O            7.07522807265626        1.74634860724927        0.14486904426833
C            7.06968130240912        0.40597382556072        0.32396384913398
C            8.22985331029600       -0.20125844930097        0.79081656767479
C            8.25834389531749       -1.55644254220392        1.03020695475460
C            7.09799193089459       -2.33023165776414        0.82331268442606
C            5.94576706393358       -1.75161644692168        0.35412371483603
C            5.89860302967078       -0.38139494344036        0.06283055638378
C            3.69818512545177       -1.49308041178340       -1.77655741721186
C            2.57495764571803       -2.23097962114727       -2.06202306121992
C            1.38323231163461       -1.99900039746347       -1.37675415996888
H           -2.56832978400692       -3.01517256750249       -2.80693290688726
H           -4.61505461364389       -1.66510668722106       -2.31000516820058
H           -2.78961859210730        1.76550417762934       -1.39926005427829
H           -2.84037783467722        4.19601125674855       -1.63864883973776
H           -4.87162971340579        5.47075110858471       -1.01908430208689
H           -6.86645295851932        4.24480140882028       -0.18569318020961
H           -9.07018915480448        0.42746942023308        0.98818912047991
H           -9.16137132664754       -2.02152799383472        1.40154066952955
H           -7.14051844675526       -3.39383008042265        0.99968872260431
H           -5.08954706219579       -2.35334148064060        0.16038744407711
H           -2.41405494620402        0.45793501862280        0.67596088212064
H            0.00044261284802       -3.34892919010024        1.31172112779199
H            0.00213316660423       -3.92393891402193        3.72008024670145
H            0.00103631378943       -2.16203959867299        5.42793360539470
H           -0.00198442666511        0.22043905069903        4.77756623100320
H           -0.00368501973359        2.53955870878404        3.56886196965824
H           -0.00318473284607        4.42793197660066        1.97951103194597
H           -0.00060282143945        4.02942210204604       -0.43945533550489
H           -0.00020110020549        1.71677606908865       -1.33224020534522
H            2.41126843452303        0.46388525210237        0.67991075523749
H            2.79506769018815        1.75456927396483       -1.44514350676116
H            2.86055232036655        4.18427144580258       -1.70698136924315
H            4.88693628614447        5.46570674501151       -1.07033678994317
H            6.87830477827014        4.25996242236562       -0.20635790212814
H            9.09379979971417        0.42073729106791        0.96436312821727
H            9.15946187484396       -2.02490096428356        1.39027985481229
H            7.11642768338135       -3.38578108693804        1.04146104653923
H            5.05848846537225       -2.34803338307296        0.21119314040864
H            4.62259974246003       -1.65044763675719       -2.31078045588756
H            2.57636208337419       -2.99762641413427       -2.82003257311303

 projected vibrational frequencies (cm⁻¹)
eigval :       -0.00    -0.00    -0.00     0.00     0.00     0.00
eigval :       10.48    12.03    14.85    16.67    22.00    26.97
eigval :       35.97    42.94    43.22    49.52    64.11    72.32
eigval :       87.64    91.31    97.07   102.44   104.95   112.47
eigval :      120.36   138.83   153.71   158.21   171.67   173.62
eigval :      190.31   216.83   221.00   234.21   236.23   244.79
eigval :      251.33   255.25   257.62   265.96   270.38   288.34
eigval :      293.89   301.87   343.28   359.14   366.40   370.02
eigval :      384.11   389.33   390.05   396.19   403.69   413.11
eigval :      415.78   420.97   423.13   427.52   428.51   432.06
eigval :      442.04   448.56   451.44   461.31   466.69   468.61
eigval :      488.65   500.41   504.87   507.44   514.21   523.47
eigval :      528.24   530.40   535.66   548.38   570.81   579.73
eigval :      589.46   591.35   596.47   598.25   606.69   619.28
eigval :      624.99   632.31   638.33   645.79   657.72   659.73
eigval :      664.32   665.37   673.37   676.18   678.88   717.94
eigval :      725.54   736.36   742.15   744.82   753.73   768.35
eigval :      775.84   778.77   785.58   798.54   808.25   812.49
eigval :      823.81   838.22   839.91   842.80   855.79   860.60
eigval :      867.23   867.99   876.89   879.94   882.71   883.70
eigval :      887.62   888.38   889.14   892.01   893.14   897.04
eigval :      899.25   900.89   901.91   906.48   911.40   912.66
eigval :      915.17   915.83   918.69   920.94   924.00   936.10
eigval :      966.70   995.09  1003.18  1012.84  1044.69  1048.09
eigval :     1053.69  1072.61  1080.01  1081.86  1087.85  1090.01
eigval :     1096.22  1111.10  1113.27  1119.56  1121.71  1133.22
eigval :     1141.72  1149.96  1151.56  1160.83  1163.46  1172.90
eigval :     1173.53  1174.21  1175.08  1179.00  1179.23  1186.22
eigval :     1194.61  1197.79  1202.91  1205.92  1206.81  1221.40
eigval :     1227.19  1234.47  1237.31  1240.33  1243.71  1245.23
eigval :     1255.30  1258.89  1259.82  1278.71  1283.61  1302.71
eigval :     1310.75  1313.24  1321.43  1322.60  1324.97  1329.46
eigval :     1332.05  1342.59  1346.10  1350.34  1364.46  1370.74
eigval :     1376.56  1386.10  1391.44  1398.90  1419.97  1420.43
eigval :     1421.12  1425.92  1430.92  1436.66  1442.62  1444.77
eigval :     1447.41  1457.57  1458.83  1459.76  1462.95  1464.93
eigval :     1473.97  1480.20  1503.36  1514.44  1557.53  1565.87
eigval :     1568.47  1579.31  1581.30  1586.21  1592.40  1597.12
eigval :     3065.66  3073.68  3077.73  3083.73  3087.55  3091.75
eigval :     3091.90  3092.64  3093.02  3093.37  3094.54  3095.32
eigval :     3095.44  3098.98  3099.83  3101.71  3103.37  3103.42
eigval :     3103.76  3104.16  3109.02  3109.32  3111.11  3111.79
eigval :     3112.51  3115.04  3115.78  3116.14  3116.98  3118.96

   temp. (K)  partition function   enthalpy   heat capacity  entropy
                                   cal/mol     cal/K/mol   cal/K/mol   J/K/mol
 298.15  VIB  0.662E+20            25761.729    164.839    158.622
         ROT  0.997E+08              888.752      2.981     39.582
         INT  0.660E+28            26650.481    167.820    198.204
         TR   0.196E+29             1481.254      4.968     45.675
         TOT                       28131.7354   172.7881   243.8783  1020.3866

       T/K    H(0)-H(T)+PV         H(T)/Eh          T*S/Eh         G(T)/Eh
   ------------------------------------------------------------------------
    298.15    0.448308E-01    0.676300E+00    0.115874E+00    0.560425E+00
   ------------------------------------------------------------------------

         :::::::::::::::::::::::::::::::::::::::::::::::::::::
         ::                  THERMODYNAMIC                  ::
         :::::::::::::::::::::::::::::::::::::::::::::::::::::
         :: total free energy        -144.992305804219 Eh   ::
         ::.................................................::
         :: total energy             -145.552730999904 Eh   ::
         :: zero point energy           0.631468851477 Eh   ::
         :: G(RRHO) w/o ZPVE           -0.071043655792 Eh   ::
         :: G(RRHO) contrib.            0.560425195684 Eh   ::
         :::::::::::::::::::::::::::::::::::::::::::::::::::::

           -------------------------------------------------
          | TOTAL ENERGY             -145.552730999904 Eh   |
          | TOTAL ENTHALPY           -144.876431374535 Eh   |
          | TOTAL FREE ENERGY        -144.992305804219 Eh   |
          | GRADIENT NORM               0.000116923943 Eh/α |
           -------------------------------------------------

 * finished run on 2025/09/08 at 06:51:25.505
