   * xtb version 6.7.1 (edcfbbe) compiled by 'albert@albert-system' on 2024-07-22

   ID    Z sym.   atoms
    1    8 O      1, 3, 15, 47
    2   16 S      2
    3    6 C      4-7, 9-14, 16-39, 41-46, 48-56
    4    7 N      8, 40
    5    1 H      57-86

          program call               : xtb data2507/gas/SPFS-PXZ/SPFS-PXZ.xyz --gfn 2 --ohess vtight --parallel 40 --molden --ceasefiles --namespace data2507/gas/SPFS-PXZ/SPFS-PXZ_gas_S0_preOpt
          :  Hamiltonian                  GFN2-xTB          :
 * total energy  :  -145.6135359 Eh     change       -0.6055160E-08 Eh
 * total energy  :  -145.6284100 Eh     change       -0.1487403E-01 Eh
 * total energy  :  -145.6346823 Eh     change       -0.6272298E-02 Eh
 * total energy  :  -145.6370485 Eh     change       -0.2366206E-02 Eh
 * total energy  :  -145.6385791 Eh     change       -0.1530669E-02 Eh
 * total energy  :  -145.6392907 Eh     change       -0.7115806E-03 Eh
 * total energy  :  -145.6395875 Eh     change       -0.2968249E-03 Eh
 * total energy  :  -145.6397512 Eh     change       -0.1636653E-03 Eh
 * total energy  :  -145.6399144 Eh     change       -0.1631805E-03 Eh
 * total energy  :  -145.6401011 Eh     change       -0.1867605E-03 Eh
 * total energy  :  -145.6431055 Eh     change       -0.1132303E-05 Eh
 * total energy  :  -145.6431067 Eh     change       -0.1144612E-05 Eh
 * total energy  :  -145.6431079 Eh     change       -0.1183858E-05 Eh
 * total energy  :  -145.6431091 Eh     change       -0.1245784E-05 Eh
 * total energy  :  -145.6431105 Eh     change       -0.1348571E-05 Eh
 * total energy  :  -145.6431120 Eh     change       -0.1479557E-05 Eh
 * total energy  :  -145.6431136 Eh     change       -0.1625869E-05 Eh
 * total energy  :  -145.6431154 Eh     change       -0.1781762E-05 Eh
 * total energy  :  -145.6431154 Eh     change       -0.5314405E-08 Eh
   *** GEOMETRY OPTIMIZATION CONVERGED AFTER 185 ITERATIONS ***

 final structure:
================
86
 xtb: 6.7.1 (edcfbbe)
O           -0.00005595742057        1.81732754686583        4.49791622439768
S           -0.00003051063469        0.65278242682621        3.65581853975265
O           -0.00001351702960       -0.63089557685434        4.31326813478615
C           -1.40360469377613        0.70401027045958        2.55810929706230
C           -2.62045871542288        1.07821851583877        3.10299733782802
C           -3.77018478442807        1.02430665908612        2.34341270444214
C           -3.68698853492561        0.59888108379930        1.01702998560789
N           -4.84478377711446        0.47741149156787        0.22997426342820
C           -5.19876588998184       -0.76013578315148       -0.32336547227822
C           -4.45847612856291       -1.91642301017029       -0.10909001977830
C           -4.84466348546756       -3.12327483096985       -0.67215396194859
C           -5.98387830582503       -3.20020211419378       -1.44710638045463
C           -6.75358384589265       -2.06339808254163       -1.64144213477762
C           -6.37349409821730       -0.85752251448169       -1.08116204759327
O           -7.20928085632013        0.21033643152875       -1.29035979870168
C           -6.83813221385185        1.41990051110178       -0.76010737960958
C           -7.66992010814953        2.49558105061436       -1.01129433756976
C           -7.34360987467294        3.75808396111538       -0.53937336479938
C           -6.17007886228531        3.93813229371800        0.16423890725242
C           -5.33381325202199        2.86210480028371        0.42045573958041
C           -5.66558480238391        1.58437030529442       -0.01170861849936
C           -2.45203451917663        0.26877821706790        0.47161302560011
C           -1.28937703925225        0.30704762625311        1.23597758354288
C            0.00000666901248       -0.15777737275601        0.60227588349303
C            0.00002416589263        0.14573284300917       -0.88502691178674
C            0.00002193027460        1.37991909676204       -1.49782658202194
C            0.00003350507988        1.42884808916859       -2.88594311584573
C            0.00004539004539        0.26286694287717       -3.63665356984525
C            0.00003016167757       -0.98020327140897       -3.02332112051910
C            0.00002680939498       -1.03597448608310       -1.63932103694684
C            0.00003406303651       -2.16748914122997       -0.72469179568081
C            0.00003654736623       -3.53102686394812       -0.96634593144853
C            0.00002213733060       -4.39515814748395        0.11712548840717
C            0.00003381096176       -3.90949440461318        1.41598060496339
C            0.00003173926408       -2.54281144361529        1.66950869015287
C            0.00002668173575       -1.68541906605732        0.59138298259686
C            1.28936369789230        0.30708437148922        1.23599904387434
C            2.45203297652020        0.26886083796610        0.47164858384201
C            3.68696536351085        0.59901862453598        1.01707942804681
N            4.84477813378419        0.47758657854362        0.23004236994656
C            5.19881698699931       -0.75994926162462       -0.32328702268528
C            4.45858599355633       -1.91627067498022       -0.10899433856193
C            4.84482873543563       -3.12310992855102       -0.67204751068053
C            5.98404712413672       -3.19999165067984       -1.44699966954490
C            6.75369151429095       -2.06315026117050       -1.64135901391534
C            6.37354368932579       -0.85728603812773       -1.08109294502347
O            7.20927192170400        0.21061345943114       -1.29031521522959
C            6.83806927335772        1.42016349065233       -0.76006888372091
C            7.66979668749021        2.49588398918161       -1.01128236014187
C            7.34342179067279        3.75837808297653       -0.53938129584258
C            6.16988964235255        3.93837484850710        0.16424285009452
C            5.33369011598207        2.86230418227655        0.42049629911120
C            5.66552339291428        1.58458214032490       -0.01165755839148
C            3.77012846148762        1.02445033290294        2.34346290987806
C            2.62039093094928        1.07830852650230        3.10303470925193
C            1.40355845803226        0.70405460160382        2.55813043201135
H           -2.63924168827327        1.38957897860872        4.13544085536413
H           -4.72778437682481        1.28347462054302        2.76782907759496
H           -3.57741170000649       -1.88541855516560        0.51218407369076
H           -4.24355629291525       -4.00095359352541       -0.49129219838148
H           -6.28692005044993       -4.13545476187150       -1.89036720520262
H           -7.66210083491511       -2.09127187871673       -2.22142676948246
H           -8.56739404042332        2.32366818801763       -1.58353499427869
H           -8.00063467978210        4.59035399496650       -0.73582379421192
H           -5.89041707311104        4.91815430595895        0.51863193476224
H           -4.41083340121508        3.02092383385200        0.95558684528694
H           -2.40632387088211       -0.03393143153944       -0.56382195777994
H           -0.00000472521551        2.28737546627650       -0.91183970198239
H           -0.00000067084503        2.38596781876797       -3.38537964120014
H            0.00001974373385        0.32525966086994       -4.71475430108061
H            0.00003997720866       -1.88474963334902       -3.61217796648950
H            0.00004981885212       -3.91177086945404       -1.97651664397833
H            0.00005927672210       -5.46194709681295       -0.05246940253810
H            0.00003420302676       -4.60071525755164        2.24508023420400
H            0.00001225106436       -2.16714085938571        2.68213237745962
H            2.40634907597668       -0.03386684673167       -0.56378266032118
H            3.57753487295985       -1.88530714804364        0.51230041276018
H            4.24377647423343       -4.00081991193350       -0.49115817143400
H            6.28712598758296       -4.13523214590370       -1.89025910276606
H            7.66219555940355       -2.09098264209031       -2.22136548378030
H            8.56727191863740        2.32401079956627       -1.58353161106070
H            8.00041554785602        4.59067358130820       -0.73582472157140
H            5.89020472202166        4.91837776899129        0.51866915637463
H            4.41071780643829        3.02107806008349        0.95565280232917
H            4.72771387057783        1.28364591277471        2.76789497366982
H            2.63914656990013        1.38968133605390        4.13547495889505

          :  Hamiltonian                  GFN2-xTB          :
         :: gradient norm              0.000054738241 Eh/a0 ::
         :: HOMO-LUMO gap              2.190399562524 eV    ::
         :: SCC energy              -148.109605744495 Eh    ::
         :: -> dispersion             -0.137314151089 Eh    ::
         :: repulsion energy           2.466490380312 Eh    ::

    * Orbital Energies and Occupations

         #    Occupation            Energy/Eh            Energy/eV
      -------------------------------------------------------------
         1        2.0000           -0.7716678             -20.9981
       ...           ...                  ...                  ...
       121        2.0000           -0.4197457             -11.4219
       122        2.0000           -0.4197424             -11.4218
       123        2.0000           -0.4187975             -11.3961
       124        2.0000           -0.4172344             -11.3535
       125        2.0000           -0.4167656             -11.3408
       126        2.0000           -0.4147247             -11.2852
       127        2.0000           -0.4140783             -11.2676
       128        2.0000           -0.4051150             -11.0237
       129        2.0000           -0.3948770             -10.7452
       130        2.0000           -0.3942773             -10.7288
       131        2.0000           -0.3939543             -10.7200
       132        2.0000           -0.3487978              -9.4913
       133        2.0000           -0.3482969              -9.4776 (HOMO)
       134                         -0.2678012              -7.2872 (LUMO)
       135                         -0.2651277              -7.2145
       136                         -0.2607300              -7.0948
       137                         -0.2543241              -6.9205
       138                         -0.2536631              -6.9025
       139                         -0.2422885              -6.5930
       140                         -0.2422857              -6.5929
       141                         -0.2408518              -6.5539
       142                         -0.2336146              -6.3570
       143                         -0.2335628              -6.3556
       144                         -0.2315235              -6.3001
       ...                                ...                  ...
       259                          1.2110142              32.9534
      -------------------------------------------------------------
                  HL-Gap            0.0804957 Eh            2.1904 eV

     #   Z          covCN         q      C6AA      α(0)
     1   8 O        0.860    -0.544    24.789     6.675
     2  16 S        3.842     0.972   107.471    17.448
     3   8 O        0.860    -0.556    25.061     6.712
     4   6 C        2.974    -0.086    30.159     9.008
     5   6 C        2.974    -0.023    28.568     8.767
     6   6 C        2.921    -0.040    28.991     8.830
     7   6 C        2.920     0.071    26.407     8.427
     8   7 N        2.752    -0.068    22.557     7.054
     9   6 C        2.921     0.041    27.076     8.533
    10   6 C        2.923    -0.059    29.479     8.904
    11   6 C        2.919    -0.038    28.941     8.822
    12   6 C        2.919    -0.039    28.973     8.827
    13   6 C        2.920    -0.056    29.385     8.889
    14   6 C        2.884     0.126    25.242     8.237
    15   8 O        1.709    -0.252    18.180     5.757
    16   6 C        2.884     0.126    25.245     8.237
    17   6 C        2.920    -0.056    29.383     8.889
    18   6 C        2.919    -0.039    28.976     8.827
    19   6 C        2.919    -0.038    28.949     8.823
    20   6 C        2.924    -0.060    29.490     8.905
    21   6 C        2.921     0.041    27.074     8.533
    22   6 C        2.933    -0.047    29.167     8.857
    23   6 C        3.009     0.015    27.664     8.628
    24   6 C        3.946     0.006    20.406     6.419
    25   6 C        3.056    -0.000    27.975     8.674
    26   6 C        2.914    -0.033    28.828     8.804
    27   6 C        2.923    -0.031    28.763     8.795
    28   6 C        2.921    -0.030    28.759     8.794
    29   6 C        2.915    -0.033    28.826     8.804
    30   6 C        3.031     0.003    27.934     8.669
    31   6 C        3.033     0.002    27.949     8.671
    32   6 C        2.915    -0.033    28.813     8.802
    33   6 C        2.921    -0.031    28.762     8.795
    34   6 C        2.924    -0.027    28.684     8.783
    35   6 C        2.912    -0.041    29.026     8.835
    36   6 C        3.060     0.001    27.934     8.667
    37   6 C        3.009     0.015    27.664     8.628
    38   6 C        2.933    -0.047    29.167     8.857
    39   6 C        2.920     0.071    26.407     8.427
    40   7 N        2.752    -0.068    22.557     7.054
    41   6 C        2.921     0.041    27.076     8.533
    42   6 C        2.923    -0.059    29.479     8.904
    43   6 C        2.919    -0.038    28.941     8.822
    44   6 C        2.919    -0.039    28.973     8.827
    45   6 C        2.920    -0.056    29.385     8.889
    46   6 C        2.884     0.126    25.242     8.237
    47   8 O        1.709    -0.252    18.180     5.757
    48   6 C        2.884     0.126    25.245     8.237
    49   6 C        2.920    -0.056    29.383     8.889
    50   6 C        2.919    -0.039    28.976     8.827
    51   6 C        2.919    -0.038    28.949     8.823
    52   6 C        2.924    -0.060    29.490     8.905
    53   6 C        2.921     0.041    27.074     8.533
    54   6 C        2.921    -0.040    28.991     8.830
    55   6 C        2.974    -0.023    28.568     8.767
    56   6 C        2.974    -0.086    30.159     9.008
    57   1 H        0.926     0.066     2.135     2.285
    58   1 H        0.926     0.059     2.205     2.322
    59   1 H        0.926     0.034     2.528     2.487
    60   1 H        0.926     0.038     2.479     2.462
    61   1 H        0.926     0.041     2.438     2.442
    62   1 H        0.926     0.053     2.281     2.362
    63   1 H        0.926     0.053     2.286     2.365
    64   1 H        0.926     0.041     2.439     2.442
    65   1 H        0.926     0.039     2.466     2.455
    66   1 H        0.926     0.035     2.518     2.481
    67   1 H        0.926     0.055     2.254     2.348
    68   1 H        0.926     0.029     2.603     2.523
    69   1 H        0.926     0.037     2.488     2.467
    70   1 H        0.926     0.037     2.487     2.466
    71   1 H        0.926     0.038     2.480     2.462
    72   1 H        0.926     0.037     2.489     2.467
    73   1 H        0.926     0.037     2.489     2.467
    74   1 H        0.926     0.041     2.430     2.438
    75   1 H        0.926     0.057     2.239     2.340
    76   1 H        0.926     0.055     2.254     2.348
    77   1 H        0.926     0.034     2.528     2.487
    78   1 H        0.926     0.038     2.479     2.462
    79   1 H        0.926     0.041     2.438     2.442
    80   1 H        0.926     0.053     2.281     2.362
    81   1 H        0.926     0.053     2.286     2.365
    82   1 H        0.926     0.041     2.439     2.442
    83   1 H        0.926     0.039     2.466     2.455
    84   1 H        0.926     0.035     2.518     2.481
    85   1 H        0.926     0.059     2.205     2.322
    86   1 H        0.926     0.066     2.135     2.285

molecular dipole:
                 x           y           z       tot (Debye)
 q only:       -0.000      -0.092      -2.031
   full:       -0.000      -0.041      -1.799       4.574

 projected vibrational frequencies (cm⁻¹)
eigval :       -0.00    -0.00    -0.00     0.00     0.00     0.00
eigval :        7.99    12.68    14.77    16.34    18.19    23.98
eigval :       36.12    42.35    45.18    48.91    56.80    72.03
eigval :       84.12    93.77    95.18   100.02   112.99   116.57
eigval :      121.31   135.15   151.55   160.09   175.88   183.14
eigval :      191.56   220.60   222.72   234.54   246.56   248.20
eigval :      249.02   258.60   262.72   267.20   270.10   284.28
eigval :      293.15   297.03   352.98   359.10   364.64   379.96
eigval :      387.66   390.85   394.90   409.24   414.12   422.92
eigval :      424.47   425.57   426.46   428.98   435.47   437.00
eigval :      453.36   455.88   459.97   466.48   477.41   500.16
eigval :      509.96   509.98   511.97   517.77   523.55   524.18
eigval :      526.73   538.01   542.66   564.53   575.58   585.76
eigval :      592.36   598.16   599.28   613.75   621.38   639.89
eigval :      646.99   655.86   659.27   661.67   661.70   662.04
eigval :      666.84   677.12   680.23   686.36   693.89   728.35
eigval :      738.04   740.43   755.27   772.55   779.94   780.02
eigval :      780.06   780.25   789.30   806.06   812.05   832.75
eigval :      834.14   855.93   855.99   865.30   865.47   868.71
eigval :      868.78   879.59   885.72   886.51   890.47   892.66
eigval :      896.53   898.82   898.86   905.00   906.38   909.17
eigval :      912.18   914.69   914.85   917.14   917.61   919.67
eigval :      920.05   923.16   925.50   926.03   929.09   938.02
eigval :      989.31  1003.01  1020.02  1033.82  1074.48  1077.27
eigval :     1081.30  1090.74  1090.97  1092.07  1092.11  1099.56
eigval :     1109.33  1109.33  1118.91  1121.90  1123.15  1143.34
eigval :     1151.84  1154.98  1162.99  1168.74  1172.99  1175.17
eigval :     1175.18  1176.74  1181.85  1186.31  1189.74  1195.53
eigval :     1202.41  1202.71  1207.96  1208.32  1226.47  1233.15
eigval :     1234.76  1238.37  1243.34  1243.69  1246.30  1253.08
eigval :     1260.04  1262.84  1262.86  1282.63  1307.89  1309.43
eigval :     1309.96  1314.14  1322.17  1323.59  1326.46  1334.93
eigval :     1335.45  1352.88  1353.95  1365.05  1396.94  1399.69
eigval :     1423.78  1423.85  1427.02  1428.80  1442.06  1442.07
eigval :     1457.17  1459.16  1464.04  1471.19  1487.21  1487.90
eigval :     1503.25  1504.02  1557.29  1565.64  1567.75  1567.94
eigval :     1574.26  1579.17  1580.86  1581.68  1585.03  1590.49
eigval :     1590.63  1594.09  1599.62  1602.60  1602.72  1602.83
eigval :     3078.75  3079.12  3083.00  3088.86  3090.47  3090.49
eigval :     3090.90  3090.92  3092.27  3095.52  3096.90  3097.20
eigval :     3097.81  3097.98  3099.02  3100.18  3100.20  3100.34
eigval :     3100.39  3103.12  3106.82  3106.89  3107.75  3107.76
eigval :     3109.19  3109.42  3113.91  3113.93  3114.54  3114.58

   temp. (K)  partition function   enthalpy   heat capacity  entropy
                                   cal/mol     cal/K/mol   cal/K/mol   J/K/mol
 298.15  VIB  0.845E+20            25435.481    162.232    157.261
         ROT  0.102E+09              888.752      2.981     39.624
         INT  0.861E+28            26324.234    165.213    196.885
         TR   0.196E+29             1481.254      4.968     45.675
         TOT                       27805.4875   170.1809   242.5599  1014.8705

       T/K    H(0)-H(T)+PV         H(T)/Eh          T*S/Eh         G(T)/Eh
   ------------------------------------------------------------------------
    298.15    0.443109E-01    0.682357E+00    0.115248E+00    0.567109E+00
   ------------------------------------------------------------------------

         :::::::::::::::::::::::::::::::::::::::::::::::::::::
         ::                  THERMODYNAMIC                  ::
         :::::::::::::::::::::::::::::::::::::::::::::::::::::
         :: total free energy        -145.076006111111 Eh   ::
         ::.................................................::
         :: total energy             -145.643115364273 Eh   ::
         :: zero point energy           0.638046407950 Eh   ::
         :: G(RRHO) w/o ZPVE           -0.070937154788 Eh   ::
         :: G(RRHO) contrib.            0.567109253161 Eh   ::
         :::::::::::::::::::::::::::::::::::::::::::::::::::::

           -------------------------------------------------
          | TOTAL ENERGY             -145.643115364273 Eh   |
          | TOTAL ENTHALPY           -144.960758091473 Eh   |
          | TOTAL FREE ENERGY        -145.076006111111 Eh   |
          | GRADIENT NORM               0.000056076270 Eh/α |
          | HOMO-LUMO GAP               2.190398545687 eV   |
           -------------------------------------------------

 * finished run on 2025/09/08 at 06:36:35.251
