   * xtb version 6.7.1 (edcfbbe) compiled by 'albert@albert-system' on 2024-07-22

   ID    Z sym.   atoms
    1    6 C      1-9, 11-13, 15-31, 33-35, 37-42
    2    7 N      10, 14, 32, 36
    3    1 H      43-72

          program call               : xtb data2507/gas/DAcIPN/DAcIPN_gas_S0_finalOpt.xtbopt.xyz --gfn 2 --spinpol --tblite --uhf 2 --ohess vtight --parallel 40 --molden --ceasefiles --namespace data2507/gas/DAcIPN/DAcIPN_gas_T1_preOpt
 * total energy  :  -108.2636691 Eh     change        0.1195713E-07 Eh
 * total energy  :  -108.2679513 Eh     change       -0.4282194E-02 Eh
 * total energy  :  -108.2689600 Eh     change       -0.1008653E-02 Eh
 * total energy  :  -108.2691085 Eh     change       -0.1485778E-03 Eh
 * total energy  :  -108.2692350 Eh     change       -0.1264215E-03 Eh
 * total energy  :  -108.2693279 Eh     change       -0.9293654E-04 Eh
 * total energy  :  -108.2693972 Eh     change       -0.6930161E-04 Eh
 * total energy  :  -108.2694865 Eh     change       -0.8926091E-04 Eh
 * total energy  :  -108.2695699 Eh     change       -0.8346976E-04 Eh
 * total energy  :  -108.2696505 Eh     change       -0.8056222E-04 Eh
 * total energy  :  -108.2702984 Eh     change       -0.2938488E-06 Eh
 * total energy  :  -108.2702987 Eh     change       -0.2614380E-06 Eh
 * total energy  :  -108.2702989 Eh     change       -0.2652597E-06 Eh
 * total energy  :  -108.2702992 Eh     change       -0.2957738E-06 Eh
 * total energy  :  -108.2702995 Eh     change       -0.2918713E-06 Eh
 * total energy  :  -108.2702998 Eh     change       -0.2635618E-06 Eh
 * total energy  :  -108.2703001 Eh     change       -0.2506344E-06 Eh
 * total energy  :  -108.2703003 Eh     change       -0.2804887E-06 Eh
 * total energy  :  -108.2703003 Eh     change       -0.3125507E-08 Eh
   *** GEOMETRY OPTIMIZATION CONVERGED AFTER 68 ITERATIONS ***

 final structure:
================
72
 xtb: 6.7.1 (edcfbbe)
C           -6.26104019807749       -0.32110290531076        0.80549619735480
C           -5.30166031420611        0.57097176054107       -0.00607111975268
C           -6.08336077669177        1.67862235063418       -0.73680141608985
C           -4.32126012443914        1.20430249391252        0.95769989810980
C           -4.78358237580339        2.09799124356621        1.91426290434153
C           -3.94704593054669        2.65714042410788        2.86224749948572
C           -2.60901010054754        2.29839661492845        2.88446392962220
C           -2.12346916854836        1.41030791392879        1.95185122298305
C           -2.95911145200466        0.86718316002848        0.96646361226915
N           -2.44181678987640       -0.00783017177655        0.02951714149321
C           -1.15199754940718       -0.56321796926410        0.19609550995593
C            0.00594142040976        0.17352807891951        0.04330039198214
C            1.26431632099901       -0.37651180941338        0.24242507322067
N            2.45273045420709        0.33126958153308        0.14606969059437
C            2.65021898951532        1.56834283432395       -0.48255979038180
C            1.85091473703392        2.67798097729432       -0.21325801249871
C            2.10685744072867        3.88585806971880       -0.83154459429800
C            3.17725781510764        4.00496788505864       -1.70032932868995
C            4.02010944534677        2.92441580333123       -1.91008953712622
C            3.78501372081949        1.70325980380562       -1.30343652441069
C            4.68367478891742        0.49136249651177       -1.46029060757449
C            6.04407829181388        0.83734297504973       -2.06492788148404
C            3.99462684050479       -0.53182059840083       -2.38690646230999
C            4.80771970977402       -0.11585331874548       -0.07621076395799
C            5.97063091720197       -0.62285078700384        0.47155218462037
C            5.96946803994509       -1.20144350521465        1.73346780820809
C            4.80265469865702       -1.26684157354989        2.47542645320989
C            3.62874497894178       -0.76722285193519        1.95251400726613
C            3.62696763346740       -0.20854659569004        0.67229909409634
C            1.34335530444402       -1.83481039722357        0.43961496703120
C            2.51414732720925       -2.57133040604647        0.26482699805247
N            3.40882916353063       -3.27716618894673        0.06320847502502
C            0.17405704634945       -2.55959425232023        0.64498728591058
C           -1.07608395481990       -1.97144086208879        0.56890650731054
C           -2.24781783926719       -2.67118039416687        0.84180035085788
N           -3.24189425525787       -3.21432302078304        1.07026621303141
C           -3.22641264693747       -0.53449629873677       -0.97791453873132
C           -2.61810087323560       -1.30864720674090       -1.97741426949673
C           -3.36886092095684       -1.89334700034376       -2.97103871281351
C           -4.74172887275387       -1.70692184325103       -2.99512700726742
C           -5.33939689057633       -0.90685163407997       -2.03780585582503
C           -4.60687715204988       -0.29797381672189       -1.02986238719864
H           -7.01725919536413       -0.75634801547814        0.15818191951684
H           -5.70302713567357       -1.13006368972373        1.27299948813528
H           -6.75821197247873        0.25303112146291        1.58281983522818
H           -5.39433861070550        2.32242302924606       -1.28045875832368
H           -6.78710650259969        1.25350778643644       -1.44584063539081
H           -6.64386873454177        2.28844262474002       -0.03473695430103
H           -5.82988490430370        2.36073596463600        1.93308378593830
H           -4.33947312890180        3.35282640023088        3.58777003363620
H           -1.94591813669504        2.70587680157387        3.63258018786471
H           -1.08745587917152        1.11451624238841        1.99032361604497
H           -0.10062213722496        1.20264244093268       -0.25639520575968
H            1.06430056595973        2.61684249515188        0.52158584808342
H            1.47845546106882        4.73764723274597       -0.61919511620903
H            3.37619089243200        4.94439988413747       -2.19282604483644
H            4.87181996651180        3.05174774477936       -2.55788598684220
H            5.92052864526717        1.25203410490276       -3.06218207723034
H            6.57675336025275        1.55438406972857       -1.44401587056151
H            6.64413683588648       -0.06335294999993       -2.16251965306141
H            2.99608130761168       -0.78027705282270       -2.03861194601776
H            3.91570838979996       -0.12517405769064       -3.39309454388775
H            4.57579774047283       -1.45027114694821       -2.41815608555462
H            6.89522219126603       -0.58608856949366       -0.08081827179852
H            6.88805953770374       -1.59887613003712        2.13681768213348
H            4.80769796060526       -1.70386632453909        3.46207956075228
H            2.71376187796923       -0.78781349555849        2.52638487031875
H            0.24865487036419       -3.62157824140071        0.83529596209159
H           -1.54677652914983       -1.43737374653044       -1.97059761195534
H           -2.88458613073336       -2.49329406309700       -3.72616814960349
H           -5.34265668729681       -2.17275625185897       -3.76074847506449
H           -6.40833327034134       -0.76530212717618       -2.07900633957760

 projected vibrational frequencies (cm⁻¹)
eigval :       -0.00    -0.00     0.00     0.00     0.00     0.00
eigval :        8.96    15.99    17.05    31.03    38.12    47.73
eigval :       61.00    67.00    77.44    92.10   101.15   109.43
eigval :      118.07   122.44   126.36   133.12   138.45   155.78
eigval :      175.80   179.54   192.26   202.03   205.09   219.53
eigval :      229.92   240.51   243.67   262.50   274.90   284.04
eigval :      301.70   305.68   319.11   329.71   333.73   343.15
eigval :      346.39   347.84   358.10   380.18   384.32   395.16
eigval :      401.80   403.76   411.42   428.34   436.61   449.88
eigval :      454.51   479.95   489.25   493.33   505.42   507.76
eigval :      517.61   534.62   542.42   544.83   554.35   556.82
eigval :      569.31   576.88   582.53   586.96   595.54   612.92
eigval :      636.23   643.29   666.14   675.01   685.14   688.04
eigval :      701.92   712.64   716.37   738.00   768.59   773.51
eigval :      775.21   777.41   810.16   825.50   838.42   852.92
eigval :      867.29   868.08   869.19   871.90   876.05   885.75
eigval :      902.39   905.83   909.95   911.71   912.88   914.36
eigval :      918.61   921.44   922.22   930.06   937.71   942.31
eigval :      960.25   967.07  1009.45  1013.91  1054.37  1071.75
eigval :     1074.84  1076.83  1097.86  1104.99  1107.33  1114.41
eigval :     1124.46  1128.56  1136.59  1139.42  1149.12  1151.46
eigval :     1156.85  1175.21  1179.61  1182.05  1183.72  1185.54
eigval :     1187.78  1198.02  1231.22  1232.00  1241.78  1248.05
eigval :     1252.40  1259.91  1268.38  1270.90  1279.93  1284.07
eigval :     1295.24  1300.01  1306.71  1325.39  1329.17  1330.85
eigval :     1335.69  1337.97  1363.27  1392.91  1398.52  1402.19
eigval :     1414.73  1417.64  1418.00  1419.88  1427.42  1430.58
eigval :     1435.52  1448.21  1451.49  1458.37  1474.92  1479.41
eigval :     1485.62  1487.20  1489.84  1490.16  1499.25  1500.97
eigval :     1504.63  1522.51  1551.32  1554.44  1555.98  1566.83
eigval :     1568.84  1577.91  1582.90  1590.36  2217.00  2286.64
eigval :     3026.79  3028.64  3033.43  3034.53  3035.87  3040.78
eigval :     3041.55  3049.07  3049.57  3051.07  3056.97  3061.07
eigval :     3076.43  3078.43  3083.75  3084.83  3086.47  3089.90
eigval :     3090.60  3091.48  3094.18  3098.54  3100.22  3101.66
eigval :     3104.02  3104.53  3109.99  3114.31  3115.48  3124.34

   temp. (K)  partition function   enthalpy   heat capacity  entropy
                                   cal/mol     cal/K/mol   cal/K/mol   J/K/mol
 298.15  VIB  0.313E+16            21183.171    134.418    130.058
         ROT  0.413E+08              888.752      2.981     37.830
         INT  0.129E+24            22071.924    137.399    167.888
         TR   0.122E+29             1481.254      4.968     44.739
         TOT                       23553.1777   142.3672   212.6270   889.6313

       T/K    H(0)-H(T)+PV         H(T)/Eh          T*S/Eh         G(T)/Eh
   ------------------------------------------------------------------------
    298.15    0.375344E-01    0.598625E+00    0.101026E+00    0.497599E+00
   ------------------------------------------------------------------------

         :::::::::::::::::::::::::::::::::::::::::::::::::::::
         ::                  THERMODYNAMIC                  ::
         :::::::::::::::::::::::::::::::::::::::::::::::::::::
         :: total free energy        -107.772701441574 Eh   ::
         ::.................................................::
         :: total energy             -108.270300334940 Eh   ::
         :: zero point energy           0.561090453691 Eh   ::
         :: G(RRHO) w/o ZPVE           -0.063491560325 Eh   ::
         :: G(RRHO) contrib.            0.497598893366 Eh   ::
         :::::::::::::::::::::::::::::::::::::::::::::::::::::

           -------------------------------------------------
          | TOTAL ENERGY             -108.270300334940 Eh   |
          | TOTAL ENTHALPY           -107.671675503460 Eh   |
          | TOTAL FREE ENERGY        -107.772701441574 Eh   |
          | GRADIENT NORM               0.000054277428 Eh/α |
           -------------------------------------------------

 * finished run on 2025/07/20 at 10:12:52.103
