   * xtb version 6.7.1 (edcfbbe) compiled by 'albert@albert-system' on 2024-07-22

   ID    Z sym.   atoms
    1    6 C      1-9, 11-13, 15-31, 33-35, 37-42
    2    7 N      10, 14, 32, 36
    3    1 H      43-72

          program call               : xtb data2507/gas/DAcIPN/DAcIPN.xyz --gfn 2 --ohess vtight --parallel 40 --molden --ceasefiles --namespace data2507/gas/DAcIPN/DAcIPN_gas_S0_preOpt
          :  Hamiltonian                  GFN2-xTB          :
 * total energy  :  -108.3256848 Eh     change       -0.1802334E-08 Eh
 * total energy  :  -108.3438644 Eh     change       -0.1817954E-01 Eh
 * total energy  :  -108.3502632 Eh     change       -0.6398770E-02 Eh
 * total energy  :  -108.3516223 Eh     change       -0.1359117E-02 Eh
 * total energy  :  -108.3523468 Eh     change       -0.7245010E-03 Eh
 * total energy  :  -108.3525878 Eh     change       -0.2409868E-03 Eh
 * total energy  :  -108.3526728 Eh     change       -0.8501595E-04 Eh
 * total energy  :  -108.3527025 Eh     change       -0.2972076E-04 Eh
 * total energy  :  -108.3527121 Eh     change       -0.9640752E-05 Eh
 * total energy  :  -108.3527578 Eh     change       -0.4563160E-04 Eh
 * total energy  :  -108.3543663 Eh     change       -0.4472671E-05 Eh
 * total energy  :  -108.3543705 Eh     change       -0.4218274E-05 Eh
 * total energy  :  -108.3543735 Eh     change       -0.2974257E-05 Eh
 * total energy  :  -108.3543750 Eh     change       -0.1543031E-05 Eh
 * total energy  :  -108.3543760 Eh     change       -0.9141084E-06 Eh
 * total energy  :  -108.3543767 Eh     change       -0.7136258E-06 Eh
 * total energy  :  -108.3543772 Eh     change       -0.4925697E-06 Eh
 * total energy  :  -108.3543775 Eh     change       -0.3192628E-06 Eh
 * total energy  :  -108.3543775 Eh     change       -0.2909660E-07 Eh
   *** GEOMETRY OPTIMIZATION CONVERGED AFTER 118 ITERATIONS ***

 final structure:
================
72
 xtb: 6.7.1 (edcfbbe)
C           -6.39112684071365       -0.13152821772526       -0.38697085270382
C           -5.24205493666558       -0.23861726766698        0.63208399954627
C           -5.79546064753158       -0.46957809210282        2.04945675236132
C           -4.37500930072755       -1.42033558362629        0.24294449327412
C           -4.91571056168981       -2.69884913442316        0.24080170541181
C           -4.17859205680295       -3.80799994106872       -0.13087955473842
C           -2.86198033434531       -3.64804576580823       -0.52069681736766
C           -2.30058651938013       -2.38832227687731       -0.52996781070416
C           -3.04336343686442       -1.26912165997142       -0.14910986717229
N           -2.43838596470241       -0.01665965370619       -0.14632732742884
C           -1.20400618554173        0.13009857554903       -0.82268018197006
C           -0.00419623382776        0.07445642523107       -0.13307928599629
C            1.20655388619900        0.22455764736467       -0.80227844960852
N            2.43173430417087        0.17356927030814       -0.12099972791217
C            3.25308844279638        1.30129927259649       -0.18615596796037
C            2.68590525372272        2.53312195746728       -0.52192687327372
C            3.46248317177580        3.66763508343127       -0.62001657611688
C            4.82026535949234        3.59120113759678       -0.36866889996538
C            5.37139351830791        2.38443995429059        0.01671801963401
C            4.60837875704496        1.22966471335221        0.13322389288246
C            5.25711892562235       -0.06042578056261        0.58922824516712
C            5.96028413105645        0.18789231358506        1.93598447326804
C            6.27639779271294       -0.49163243827715       -0.48083715201001
C            4.24320470778639       -1.17565178206557        0.75890107121884
C            4.66686891181564       -2.40398647593685        1.25074521912139
C            3.81099921984113       -3.48045698645362        1.38264450000145
C            2.49224914847029       -3.34432438621177        0.99175005390140
C            2.04683727747003       -2.13792879962835        0.49341763789873
C            2.90202557441944       -1.03916169580421        0.38878661674345
C            1.19660838839750        0.44185914219735       -2.19571059493838
C            2.42352948338700        0.56399179588267       -2.89055994790804
N            3.41644549470880        0.63425283780159       -3.45777167733502
C           -0.00312211731019        0.50682324703592       -2.89298195982983
C           -1.20533492979374        0.34806081902591       -2.21199551336380
C           -2.44352292597679        0.40568067395954       -2.89230811438751
N           -3.45855984715384        0.44855900668583       -3.42181359527452
C           -3.13242898967009        1.13341790358024        0.21516966912612
C           -2.47310935797982        2.36397697279408        0.19965166757212
C           -3.12672026156874        3.52171908604267        0.56655007571207
C           -4.45195926889819        3.46600014259075        0.95623354521850
C           -5.10342345319473        2.24667369026850        0.97433167933465
C           -4.46925946991749        1.06601277480628        0.61242470120099
H           -7.04748834601337        0.69963094745815       -0.14391946447809
H           -5.98432072562733        0.03048231968254       -1.38349447754308
H           -6.98223400729076       -1.04319755382874       -0.40056172463855
H           -4.97438100700902       -0.54596410339316        2.76004847802041
H           -6.43793461455057        0.35123173399430        2.35477404853509
H           -6.37573553760565       -1.38656384676059        2.09593575317976
H           -5.94591229286322       -2.83899713351726        0.53027778042973
H           -4.63171388577027       -4.78731635354148       -0.12134870581466
H           -2.26945399060277       -4.49944946548902       -0.82024337584803
H           -1.27292790971548       -2.27181394396836       -0.84243429525481
H           -0.01378245486261       -0.06538310051317        0.93767429833535
H            1.62296398055977        2.60546430784198       -0.70216951566684
H            3.00509436821199        4.60714392276902       -0.89060073416912
H            5.44362121982131        4.46723435668710       -0.45897985162751
H            6.42946193592718        2.34386018932564        0.22416087279422
H            6.69692470950371        0.98101106231516        1.85095650566243
H            5.22851031885536        0.47806168764847        2.68771762088053
H            6.47152658480388       -0.70569561020166        2.28123184587265
H            5.77406927763513       -0.62334385405364       -1.43741933155365
H            7.04745293647372        0.26445371245762       -0.60146605635582
H            6.75199791937252       -1.42987773006110       -0.20768334463851
H            5.70088534808633       -2.53289110886945        1.53063692256159
H            4.17468443969369       -4.41863054810804        1.77231752962134
H            1.80684088863375       -4.17502353070814        1.06570261570775
H            1.02033484260768       -2.06108986089115        0.17218990297735
H           -0.00053471126276        0.67075721774009       -3.96055807975288
H           -1.43686342293064        2.41450695571468       -0.10178206671321
H           -2.59886820363999        4.46331354750207        0.54554450858204
H           -4.97682664157064        4.36453582640548        1.24190596006173
H           -6.13984712780758        2.22121545085036        1.27427211016106

          :  Hamiltonian                  GFN2-xTB          :
         :: gradient norm              0.000187166090 Eh/a0 ::
         :: HOMO-LUMO gap              1.421851681989 eV    ::
         :: SCC energy              -110.374607554590 Eh    ::
         :: -> dispersion             -0.107475806775 Eh    ::
         :: repulsion energy           2.020230038958 Eh    ::

    * Orbital Energies and Occupations

         #    Occupation            Energy/Eh            Energy/eV
      -------------------------------------------------------------
         1        2.0000           -0.7067521             -19.2317
       ...           ...                  ...                  ...
        89        2.0000           -0.4316779             -11.7466
        90        2.0000           -0.4191317             -11.4052
        91        2.0000           -0.4176398             -11.3646
        92        2.0000           -0.4145657             -11.2809
        93        2.0000           -0.4137552             -11.2589
        94        2.0000           -0.4123221             -11.2199
        95        2.0000           -0.4090113             -11.1298
        96        2.0000           -0.4077901             -11.0965
        97        2.0000           -0.4033095             -10.9746
        98        2.0000           -0.4022910             -10.9469
        99        2.0000           -0.3979220             -10.8280
       100        2.0000           -0.3624134              -9.8618
       101        2.0000           -0.3554223              -9.6715 (HOMO)
       102                         -0.3031703              -8.2497 (LUMO)
       103                         -0.2888518              -7.8601
       104                         -0.2354079              -6.4058
       105                         -0.2302991              -6.2668
       106                         -0.2293871              -6.2419
       107                         -0.2290597              -6.2330
       108                         -0.2261915              -6.1550
       109                         -0.2246419              -6.1128
       110                         -0.2243042              -6.1036
       111                         -0.2217475              -6.0341
       112                         -0.2185425              -5.9468
       ...                                ...                  ...
       198                          1.1583207              31.5195
      -------------------------------------------------------------
                  HL-Gap            0.0522521 Eh            1.4219 eV

     #   Z          covCN         q      C6AA      α(0)
     1   6 C        3.762    -0.105    22.550     6.769
     2   6 C        3.909     0.022    20.140     6.379
     3   6 C        3.760    -0.104    22.537     6.768
     4   6 C        2.980    -0.010    28.257     8.720
     5   6 C        2.929    -0.034    28.842     8.807
     6   6 C        2.918    -0.042    29.042     8.837
     7   6 C        2.920    -0.032    28.792     8.799
     8   6 C        2.925    -0.057    29.408     8.893
     9   6 C        2.931     0.059    26.670     8.469
    10   7 N        2.754    -0.084    22.868     7.102
    11   6 C        2.937     0.089    26.011     8.364
    12   6 C        2.920    -0.049    29.211     8.863
    13   6 C        2.934     0.085    26.096     8.378
    14   7 N        2.753    -0.073    22.650     7.068
    15   6 C        2.933     0.058    26.703     8.475
    16   6 C        2.925    -0.053    29.314     8.879
    17   6 C        2.920    -0.030    28.758     8.794
    18   6 C        2.918    -0.038    28.947     8.823
    19   6 C        2.929    -0.033    28.811     8.803
    20   6 C        2.980    -0.007    28.184     8.708
    21   6 C        3.909     0.022    20.140     6.379
    22   6 C        3.761    -0.105    22.558     6.771
    23   6 C        3.762    -0.104    22.538     6.767
    24   6 C        2.980    -0.009    28.236     8.716
    25   6 C        2.929    -0.034    28.854     8.809
    26   6 C        2.917    -0.041    29.011     8.832
    27   6 C        2.920    -0.031    28.783     8.798
    28   6 C        2.924    -0.058    29.432     8.897
    29   6 C        2.925     0.058    26.702     8.474
    30   6 C        2.974     0.006    27.875     8.660
    31   6 C        1.911     0.119    28.182     8.573
    32   7 N        0.911    -0.221    25.825     7.350
    33   6 C        2.930    -0.014    28.360     8.734
    34   6 C        2.973     0.006    27.878     8.661
    35   6 C        1.911     0.119    28.169     8.571
    36   7 N        0.911    -0.221    25.818     7.349
    37   6 C        2.930     0.059    26.673     8.470
    38   6 C        2.925    -0.057    29.417     8.894
    39   6 C        2.920    -0.032    28.792     8.799
    40   6 C        2.918    -0.042    29.041     8.837
    41   6 C        2.929    -0.034    28.842     8.807
    42   6 C        2.980    -0.010    28.256     8.719
    43   1 H        0.925     0.041     2.439     2.442
    44   1 H        0.925     0.041     2.436     2.441
    45   1 H        0.925     0.041     2.439     2.442
    46   1 H        0.925     0.032     2.564     2.504
    47   1 H        0.925     0.041     2.440     2.443
    48   1 H        0.925     0.041     2.439     2.442
    49   1 H        0.926     0.034     2.526     2.485
    50   1 H        0.926     0.030     2.584     2.514
    51   1 H        0.926     0.030     2.592     2.517
    52   1 H        0.926     0.012     2.858     2.643
    53   1 H        0.926     0.066     2.135     2.285
    54   1 H        0.926     0.016     2.800     2.617
    55   1 H        0.926     0.033     2.542     2.493
    56   1 H        0.926     0.034     2.528     2.487
    57   1 H        0.926     0.037     2.485     2.465
    58   1 H        0.925     0.042     2.422     2.433
    59   1 H        0.925     0.033     2.547     2.496
    60   1 H        0.925     0.042     2.423     2.434
    61   1 H        0.925     0.040     2.455     2.450
    62   1 H        0.925     0.043     2.406     2.426
    63   1 H        0.925     0.041     2.436     2.441
    64   1 H        0.926     0.036     2.504     2.475
    65   1 H        0.926     0.032     2.560     2.502
    66   1 H        0.926     0.032     2.551     2.498
    67   1 H        0.926     0.024     2.678     2.559
    68   1 H        0.926     0.058     2.220     2.330
    69   1 H        0.926     0.013     2.845     2.637
    70   1 H        0.926     0.030     2.592     2.517
    71   1 H        0.926     0.030     2.583     2.513
    72   1 H        0.926     0.034     2.525     2.485

molecular dipole:
                 x           y           z       tot (Debye)
 q only:        0.376      -0.148       1.212
   full:        0.382      -0.172       1.459       3.859

 projected vibrational frequencies (cm⁻¹)
eigval :       -0.00     0.00     0.00     0.00     0.00     0.00
eigval :      -12.05    11.11    16.24    18.23    35.67    38.78
eigval :       41.67    52.51    85.15    92.64    94.76    97.45
eigval :      102.81   107.47   121.00   124.63   129.96   131.51
eigval :      132.76   191.90   194.94   197.00   198.43   219.10
eigval :      219.93   229.52   234.59   239.61   263.46   277.49
eigval :      303.31   307.95   322.69   331.34   336.63   339.71
eigval :      345.04   350.05   360.77   377.64   380.18   390.76
eigval :      394.17   407.36   413.39   445.66   453.36   475.05
eigval :      483.21   487.79   500.11   507.23   514.03   515.14
eigval :      523.28   526.39   547.93   548.21   564.15   571.56
eigval :      580.32   589.83   590.18   592.31   629.32   647.23
eigval :      665.35   674.38   681.34   684.77   690.39   694.32
eigval :      696.53   707.60   729.59   742.99   774.83   775.75
eigval :      776.38   779.46   824.84   825.57   860.42   863.12
eigval :      863.76   868.02   872.37   887.31   888.98   900.66
eigval :      912.10   912.86   913.50   913.72   914.37   919.27
eigval :      921.21   921.30   922.82   925.41   939.57   940.01
eigval :      959.42   959.65  1015.07  1015.52  1061.01  1076.78
eigval :     1077.61  1081.18  1112.79  1115.41  1118.80  1120.79
eigval :     1129.25  1141.08  1142.29  1159.19  1160.78  1162.12
eigval :     1164.20  1182.70  1184.21  1186.00  1186.74  1188.77
eigval :     1191.11  1210.88  1229.10  1239.91  1247.99  1251.04
eigval :     1256.17  1265.54  1270.90  1286.87  1293.61  1294.78
eigval :     1296.22  1320.55  1325.76  1329.56  1333.24  1334.99
eigval :     1340.17  1346.88  1403.85  1404.12  1405.53  1421.72
eigval :     1422.14  1433.92  1436.62  1438.03  1442.06  1452.82
eigval :     1476.99  1482.24  1487.44  1488.79  1489.17  1489.49
eigval :     1492.37  1496.43  1500.53  1501.51  1501.82  1503.95
eigval :     1504.83  1558.20  1578.52  1579.50  1593.04  1593.71
eigval :     1594.18  1594.73  1601.76  1603.10  2373.06  2376.69
eigval :     3027.01  3028.32  3031.88  3032.10  3040.19  3040.25
eigval :     3044.74  3047.51  3047.76  3048.07  3055.39  3059.77
eigval :     3073.48  3073.92  3075.18  3083.57  3083.79  3083.97
eigval :     3086.39  3089.47  3089.85  3090.19  3092.69  3095.24
eigval :     3099.62  3099.77  3100.37  3100.57  3102.66  3107.32

   temp. (K)  partition function   enthalpy   heat capacity  entropy
                                   cal/mol     cal/K/mol   cal/K/mol   J/K/mol
 298.15  VIB  0.250E+17            21282.896    132.334    132.152
         ROT  0.419E+08              888.752      2.981     37.857
         INT  0.105E+25            22171.648    135.315    170.008
         TR   0.122E+29             1481.254      4.968     44.739
         TOT                       23652.9019   140.2829   214.7477   898.5042

       T/K    H(0)-H(T)+PV         H(T)/Eh          T*S/Eh         G(T)/Eh
   ------------------------------------------------------------------------
    298.15    0.376933E-01    0.601702E+00    0.102034E+00    0.499668E+00
   ------------------------------------------------------------------------

         :::::::::::::::::::::::::::::::::::::::::::::::::::::
         ::                  THERMODYNAMIC                  ::
         :::::::::::::::::::::::::::::::::::::::::::::::::::::
         :: total free energy        -107.854709372437 Eh   ::
         ::.................................................::
         :: total energy             -108.354377515630 Eh   ::
         :: zero point energy           0.564008389103 Eh   ::
         :: G(RRHO) w/o ZPVE           -0.064340245911 Eh   ::
         :: G(RRHO) contrib.            0.499668143192 Eh   ::
         :::::::::::::::::::::::::::::::::::::::::::::::::::::

           -------------------------------------------------
          | TOTAL ENERGY             -108.354377515630 Eh   |
          | TOTAL ENTHALPY           -107.752675828013 Eh   |
          | TOTAL FREE ENERGY        -107.854709372437 Eh   |
          | GRADIENT NORM               0.000187192534 Eh/α |
          | HOMO-LUMO GAP               1.421850683474 eV   |
           -------------------------------------------------

 * finished run on 2025/07/20 at 10:07:54.085
