   * xtb version 6.7.1 (edcfbbe) compiled by 'albert@albert-system' on 2024-07-22

   ID    Z sym.   atoms
    1    6 C      1-9, 11-13, 15-31, 33-35, 37-42
    2    7 N      10, 14, 32, 36
    3    1 H      43-72

          program call               : xtb data2507/gas/DAcIPN/DAcIPN_gas_T1_crest.xyz --gfn 2 --spinpol --tblite --uhf 2 --ohess vtight --parallel 40 --molden --ceasefiles --namespace data2507/gas/DAcIPN/DAcIPN_gas_T1_finalOpt
 * total energy  :  -108.2803535 Eh     change        0.3676917E-09 Eh
 * total energy  :  -108.2803579 Eh     change       -0.4437547E-05 Eh
 * total energy  :  -108.2803578 Eh     change        0.1140875E-06 Eh
 * total energy  :  -108.2803648 Eh     change       -0.6948463E-05 Eh
 * total energy  :  -108.2803619 Eh     change        0.2870195E-05 Eh
 * total energy  :  -108.2803661 Eh     change       -0.4194330E-05 Eh
 * total energy  :  -108.2803672 Eh     change       -0.1104045E-05 Eh
 * total energy  :  -108.2803666 Eh     change        0.6311118E-06 Eh
 * total energy  :  -108.2803681 Eh     change       -0.1580949E-05 Eh
 * total energy  :  -108.2803689 Eh     change       -0.7821811E-06 Eh
 * total energy  :  -108.2803707 Eh     change       -0.2036307E-06 Eh
 * total energy  :  -108.2803706 Eh     change        0.8083757E-07 Eh
 * total energy  :  -108.2803708 Eh     change       -0.1939130E-06 Eh
 * total energy  :  -108.2803708 Eh     change        0.5403865E-07 Eh
 * total energy  :  -108.2803709 Eh     change       -0.1237556E-06 Eh
 * total energy  :  -108.2803709 Eh     change        0.3452340E-07 Eh
 * total energy  :  -108.2803710 Eh     change       -0.1059301E-06 Eh
 * total energy  :  -108.2803709 Eh     change        0.4980447E-07 Eh
 * total energy  :  -108.2803710 Eh     change       -0.9529310E-07 Eh
   *** GEOMETRY OPTIMIZATION CONVERGED AFTER 21 ITERATIONS ***

 final structure:
================
72
 xtb: 6.7.1 (edcfbbe)
C           -6.23689283451172       -0.60841510444980        0.43008129306237
C           -5.31916427487455       -0.18802667296663       -0.73554611355842
C           -6.14476019733541        0.06110046520811       -2.01100982578145
C           -4.62291037532168        1.09065839357204       -0.32913841263871
C           -5.35099436015626        2.25848011648364       -0.15553869546593
C           -4.75352073111357        3.43998104283253        0.24460864237296
C           -3.38678529707187        3.47387855511546        0.47566205600939
C           -2.64182538171227        2.32816143018434        0.32408011850324
C           -3.24707117284650        1.12207820270081       -0.05974268937046
N           -2.46453846609514       -0.00730921897323       -0.18044275397030
C           -1.20058929453884        0.00897806413278        0.46130642487469
C           -0.00108471559465       -0.00332218245316       -0.22192470645605
C            1.20045728797728       -0.01631374731845        0.45755843542976
N            2.46283522386399        0.00387640081063       -0.18713593797009
C            3.24871379075820       -1.12340072945941       -0.06848128701152
C            2.64596612446539       -2.33264254369908        0.30917050054154
C            3.39394862855160       -3.47664737466493        0.45870081498725
C            4.76131613375385       -3.43752895867694        0.23217748729542
C            5.35646148174349       -2.25267314912261       -0.16151440698310
C            4.62527304881834       -1.08656941994517       -0.33352040480242
C            5.31850666210040        0.19666856579625       -0.73059441596903
C            6.15707125125755       -0.04398137761310       -1.99911402388009
C            6.22340554582093        0.61807446262695        0.44477331178238
C            4.33358373256730        1.31692587464414       -0.98440861416317
C            4.78550534008545        2.53833346838693       -1.46499232323297
C            3.93410331849585        3.61033219076322       -1.65938535894874
C            2.58952438872580        3.48044931547384       -1.34860459460829
C            2.11502285378849        2.28633647801902       -0.85691905318637
C            2.96981006420748        1.18991729360667       -0.67786199280791
C            1.21148213718710       -0.02105426183139        1.91660693285662
C            2.43977734165263        0.01527924405083        2.56746468388432
N            3.48876725171400        0.05101780278310        3.05341764483469
C            0.00314736314601       -0.00521313278744        2.59661697834307
C           -1.20716569030036        0.01170322760109        1.92031292618190
C           -2.43346261846527       -0.02395067159163        2.57510168065528
N           -3.48062504354332       -0.05838701265680        3.06493212222595
C           -2.97469369469079       -1.19101195977343       -0.67329639927235
C           -2.12381245340717       -2.29093575583621       -0.84970016089086
C           -2.60145860197236       -3.48291197362191       -1.34349023481165
C           -3.94539059007286       -3.60713447146742       -1.65939597120911
C           -4.79302535416330       -2.53166151192559       -1.46779301377029
C           -4.33784918223801       -1.31244669366158       -0.98475507370176
H           -6.99886124240619        0.14618603156939        0.60505938354706
H           -6.72556932095746       -1.55472040523262        0.21353323131046
H           -5.64800855682715       -0.71876549166484        1.33884770521101
H           -6.85458324138586        0.86900531339180       -1.86353759841682
H           -5.48500994646209        0.32832937194014       -2.83450044765332
H           -6.70522463386188       -0.82525016518688       -2.29178736749466
H           -6.41682372169800        2.25195737185608       -0.32291976964380
H           -5.35083740788949        4.32908189385388        0.37542382156930
H           -2.90576261413438        4.39172042758544        0.77729787068253
H           -1.57773078392692        2.35140235019629        0.50164041752654
H           -0.00286235344215       -0.00283688082427       -1.30392646845989
H            1.58139566554030       -2.35944534418299        0.48346057433125
H            2.91489893292432       -4.39714923031627        0.75533043677635
H            5.36102990481989       -4.32520249600630        0.36173192071961
H            6.42290705948087       -2.24217635700458       -0.32460965086584
H            6.86867035744013       -0.84967237217170       -1.84830497716128
H            5.50627155722460       -0.31023395143717       -2.83000221175856
H            6.71700878994459        0.84552188179428       -2.27076046367431
H            5.62608272560342        0.72072019125050        1.34896301631966
H            6.98856479733900       -0.13252976105386        0.62306818213125
H            6.70773738088799        1.56842882970168        0.23623284939826
H            5.83373775925770        2.66838642766824       -1.68458452325498
H            4.31959579253286        4.54457512159291       -2.03761700609545
H            1.91447637641372        4.31209698692853       -1.48187596346290
H            1.07317973913274        2.19239122983755       -0.59604490683879
H            0.00481051794198       -0.00588688835528        3.67792713578904
H           -1.08257145573755       -2.20132811175246       -0.58489172300943
H           -1.92938639628078       -4.31731313791199       -1.47456367068905
H           -4.33329265097871       -4.53958201008943       -2.03958209984222
H           -5.84092785105045       -2.65700981597271       -1.69177407947074

 projected vibrational frequencies (cm⁻¹)
eigval :       -0.00    -0.00     0.00     0.00     0.00     0.00
eigval :        8.60    14.92    15.40    16.75    33.90    34.51
eigval :       43.14    54.61    78.51    88.76    90.80    97.53
eigval :       99.89   106.48   120.65   121.45   121.72   123.98
eigval :      131.36   191.85   192.21   208.89   209.42   221.31
eigval :      221.87   232.22   235.89   241.42   254.00   284.18
eigval :      298.13   305.96   324.93   331.38   336.29   337.00
eigval :      342.45   350.48   363.67   371.45   378.27   384.13
eigval :      398.58   403.37   409.80   437.20   444.75   451.91
eigval :      452.05   470.39   496.34   503.81   504.15   509.12
eigval :      527.40   528.60   536.57   543.60   545.19   557.37
eigval :      571.00   582.63   585.51   590.68   606.77   613.33
eigval :      632.18   647.05   662.92   679.98   688.44   688.49
eigval :      704.10   704.34   718.37   738.94   770.92   773.11
eigval :      773.57   774.21   825.00   825.30   853.51   862.63
eigval :      867.04   867.75   868.23   870.40   873.95   890.07
eigval :      906.48   910.12   912.37   912.50   912.99   913.89
eigval :      921.08   921.22   921.67   922.18   937.13   937.60
eigval :      961.64   961.85  1013.49  1013.56  1054.72  1074.26
eigval :     1075.37  1078.31  1103.45  1106.22  1112.75  1113.31
eigval :     1122.59  1137.06  1138.16  1145.51  1146.94  1148.92
eigval :     1149.62  1178.20  1180.24  1180.59  1182.51  1183.59
eigval :     1185.08  1186.39  1230.25  1236.39  1238.95  1240.93
eigval :     1250.78  1251.36  1263.91  1283.97  1291.56  1294.91
eigval :     1295.19  1304.00  1309.90  1320.04  1330.66  1330.86
eigval :     1335.78  1338.83  1340.79  1402.15  1402.21  1407.76
eigval :     1415.08  1415.54  1419.43  1419.52  1429.85  1431.11
eigval :     1448.79  1451.30  1456.82  1457.76  1475.52  1478.86
eigval :     1484.73  1484.85  1486.40  1486.58  1499.27  1499.34
eigval :     1501.64  1501.92  1552.42  1552.49  1566.64  1566.97
eigval :     1577.79  1577.86  1589.56  1590.30  2242.22  2307.71
eigval :     3028.63  3028.78  3034.98  3035.28  3040.91  3041.09
eigval :     3047.76  3048.04  3050.69  3050.80  3062.46  3063.50
eigval :     3063.90  3076.00  3085.96  3086.03  3086.48  3086.52
eigval :     3091.11  3091.26  3092.76  3092.91  3098.90  3098.95
eigval :     3101.80  3102.39  3103.44  3104.39  3110.64  3111.06

   temp. (K)  partition function   enthalpy   heat capacity  entropy
                                   cal/mol     cal/K/mol   cal/K/mol   J/K/mol
 298.15  VIB  0.468E+17            21487.167    133.448    133.642
         ROT  0.209E+08              888.752      2.981     36.473
         INT  0.976E+24            22375.919    136.429    170.115
         TR   0.122E+29             1481.254      4.968     44.739
         TOT                       23857.1732   141.3968   214.8546   898.9518

       T/K    H(0)-H(T)+PV         H(T)/Eh          T*S/Eh         G(T)/Eh
   ------------------------------------------------------------------------
    298.15    0.380188E-01    0.598679E+00    0.102084E+00    0.496595E+00
   ------------------------------------------------------------------------

         :::::::::::::::::::::::::::::::::::::::::::::::::::::
         ::                  THERMODYNAMIC                  ::
         :::::::::::::::::::::::::::::::::::::::::::::::::::::
         :: total free energy        -107.783776217303 Eh   ::
         ::.................................................::
         :: total energy             -108.280371016845 Eh   ::
         :: zero point energy           0.560660343768 Eh   ::
         :: G(RRHO) w/o ZPVE           -0.064065544226 Eh   ::
         :: G(RRHO) contrib.            0.496594799542 Eh   ::
         :::::::::::::::::::::::::::::::::::::::::::::::::::::

           -------------------------------------------------
          | TOTAL ENERGY             -108.280371016845 Eh   |
          | TOTAL ENTHALPY           -107.681691847640 Eh   |
          | TOTAL FREE ENERGY        -107.783776217303 Eh   |
          | GRADIENT NORM               0.000107402127 Eh/α |
           -------------------------------------------------

 * finished run on 2025/07/20 at 10:17:08.682
