   * xtb version 6.7.1 (edcfbbe) compiled by 'albert@albert-system' on 2024-07-22

   ID    Z sym.   atoms
    1    6 C      1-9, 11-13, 15-31, 33-35, 37-42
    2    7 N      10, 14, 32, 36
    3    1 H      43-72

          program call               : xtb data2507/gas/DAcIPN/DAcIPN_gas_S0_crest.xyz --gfn 2 --ohess vtight --parallel 40 --molden --ceasefiles --namespace data2507/gas/DAcIPN/DAcIPN_gas_S0_finalOpt
          :  Hamiltonian                  GFN2-xTB          :
 * total energy  :  -108.3558229 Eh     change       -0.2028912E-08 Eh
 * total energy  :  -108.3558237 Eh     change       -0.7665331E-06 Eh
 * total energy  :  -108.3558249 Eh     change       -0.1230500E-05 Eh
 * total energy  :  -108.3558266 Eh     change       -0.1685741E-05 Eh
 * total energy  :  -108.3558279 Eh     change       -0.1333848E-05 Eh
 * total energy  :  -108.3558292 Eh     change       -0.1218128E-05 Eh
 * total energy  :  -108.3558305 Eh     change       -0.1318914E-05 Eh
 * total energy  :  -108.3558315 Eh     change       -0.9845880E-06 Eh
 * total energy  :  -108.3558326 Eh     change       -0.1118704E-05 Eh
 * total energy  :  -108.3558338 Eh     change       -0.1251173E-05 Eh
 * total energy  :  -108.3558383 Eh     change       -0.5851283E-06 Eh
 * total energy  :  -108.3558388 Eh     change       -0.5167536E-06 Eh
 * total energy  :  -108.3558394 Eh     change       -0.6554924E-06 Eh
 * total energy  :  -108.3558385 Eh     change        0.9873255E-06 Eh
 * total energy  :  -108.3558403 Eh     change       -0.1801244E-05 Eh
 * total energy  :  -108.3558405 Eh     change       -0.2727828E-06 Eh
 * total energy  :  -108.3558407 Eh     change       -0.2014775E-06 Eh
 * total energy  :  -108.3558407 Eh     change        0.7011948E-08 Eh
 * total energy  :  -108.3558408 Eh     change       -0.9140342E-07 Eh
   *** GEOMETRY OPTIMIZATION CONVERGED AFTER 23 ITERATIONS ***

 final structure:
================
72
 xtb: 6.7.1 (edcfbbe)
C           -6.26226012173711       -0.16804178492508        0.57875713088377
C           -5.18512053755675        0.64721283090781       -0.15949132641606
C           -5.82759858493328        1.80525873997139       -0.94445029437587
C           -4.23106334757120        1.21744162511567        0.87243357338299
C           -4.70758130232506        2.12993632416527        1.80433179469012
C           -3.90711133424777        2.64883095709111        2.80433754299195
C           -2.59329646878210        2.23021418245841        2.89999954378653
C           -2.09527767001616        1.32184244801795        1.98963682942961
C           -2.89267806032429        0.82062278657227        0.95767862813327
N           -2.36332394931141       -0.08140195164823        0.03960252617802
C           -1.11133432999873       -0.68154055497793        0.28964132040500
C            0.05358356368354        0.04219193878668        0.15046949184446
C            1.31285679780641       -0.51415557292915        0.42502731306623
N            2.44929328816435        0.23653912345487        0.36580130518198
C            2.54463991960154        1.51170065418525       -0.24006689943468
C            1.76996617416257        2.58359620706455        0.18127756843427
C            1.91773412932107        3.81810214671944       -0.42497870958260
C            2.85742750969238        3.98395314522483       -1.42544789050662
C            3.67426612297136        2.92907306972020       -1.79794400369963
C            3.53929191141864        1.68118657910615       -1.21006419114597
C            4.42454641223075        0.48540902077022       -1.52337410716726
C            5.67427568262722        0.87503597551480       -2.31199926829771
C            3.63149688313104       -0.53521975379082       -2.36352403588777
C            4.76482917479476       -0.13201974506468       -0.17719938843334
C            6.02559332138325       -0.55698297279063        0.20946427793954
C            6.23917712405285       -1.07678703924654        1.47521498186173
C            5.20181059158555       -1.15866496369906        2.38645603600544
C            3.93674855654941       -0.74041109203712        2.02221618803730
C            3.71974899484544       -0.26042781132657        0.73807277063054
C            1.35724076986604       -1.90731763253989        0.69488218641882
C            2.54360860465692       -2.67341557311163        0.70052994171302
N            3.41781654546269       -3.41573890689852        0.63825082425819
C            0.17977442748681       -2.63618820816588        0.84448107588907
C           -1.05980623474910       -2.03383530703049        0.68786072154159
C           -2.25398916930929       -2.75465773016182        0.89180903380379
N           -3.23235619121685       -3.32369242832409        1.07779873731175
C           -3.12702940256967       -0.58851820651003       -1.00882278171386
C           -2.51149974659175       -1.38797888194235       -1.97510449748890
C           -3.23607197231054       -1.92395372366355       -3.01824007647623
C           -4.58896122012109       -1.65766692186949       -3.12135717544897
C           -5.18880761846135       -0.82992515226401       -2.19147580872067
C           -4.48003178072865       -0.27161872407462       -1.13622779780661
H           -6.99100100259954       -0.56558203355333       -0.12244159625831
H           -5.79801734511595       -1.00291298797661        1.10036514969639
H           -6.78410028222961        0.44753508934711        1.30679239948759
H           -5.05594028184555        2.38122242559644       -1.45228047640010
H           -6.52249818116976        1.43141496269881       -1.69057326309533
H           -6.37363963293422        2.47101059289969       -0.28251943711488
H           -5.73988720507213        2.44143480831222        1.75964143122825
H           -4.31056274278474        3.35894817413009        3.50972925544952
H           -1.95389470275987        2.60304999740699        3.68650143869382
H           -1.07528731200189        0.98532924620447        2.09388350345404
H           -0.02176144937693        1.05919351067986       -0.19818611187021
H            1.07578390897180        2.46573220294967        0.99949421809734
H            1.30788278092605        4.64841285673386       -0.10336528959320
H            2.97430122958571        4.94440234445764       -1.90395156385097
H            4.42274240302312        3.09499992085603       -2.55517283840845
H            5.39613550234396        1.30169377103055       -3.27249036381305
H            6.27453693348803        1.59665647834913       -1.76238418430297
H            6.27583899440724       -0.00761668973547       -2.51284866013383
H            2.70738735141710       -0.83488062196166       -1.87762723904305
H            3.38245222917655       -0.10319752705795       -3.33068272095207
H            4.23335799567778       -1.42744390831366       -2.52057476423199
H            6.85753178238274       -0.48811994720242       -0.47206172281193
H            7.22745008084626       -1.40941221824418        1.75342342102473
H            5.37545069917366       -1.54257854276618        3.37952091177144
H            3.11690216697702       -0.78635611209774        2.72455685214529
H            0.24137561618961       -3.68980210609442        1.07554514442838
H           -1.45201427472327       -1.58909421320081       -1.91133887791266
H           -2.74120115994184       -2.54747181617195       -3.74758731401600
H           -5.17143340114493       -2.08249772999670       -3.92436657756884
H           -6.24302403911725       -0.62152132683059       -2.29141328721875

          :  Hamiltonian                  GFN2-xTB          :
         :: gradient norm              0.000049205859 Eh/a0 ::
         :: HOMO-LUMO gap              1.912686003110 eV    ::
         :: SCC energy              -110.373782427865 Eh    ::
         :: -> dispersion             -0.107977917921 Eh    ::
         :: repulsion energy           2.017941608883 Eh    ::

    * Orbital Energies and Occupations

         #    Occupation            Energy/Eh            Energy/eV
      -------------------------------------------------------------
         1        2.0000           -0.6936051             -18.8740
       ...           ...                  ...                  ...
        89        2.0000           -0.4249292             -11.5629
        90        2.0000           -0.4223091             -11.4916
        91        2.0000           -0.4194940             -11.4150
        92        2.0000           -0.4164387             -11.3319
        93        2.0000           -0.4135317             -11.2528
        94        2.0000           -0.4106152             -11.1734
        95        2.0000           -0.4100971             -11.1593
        96        2.0000           -0.4084556             -11.1146
        97        2.0000           -0.4047295             -11.0133
        98        2.0000           -0.3993145             -10.8659
        99        2.0000           -0.3934006             -10.7050
       100        2.0000           -0.3772616             -10.2658
       101        2.0000           -0.3507865              -9.5454 (HOMO)
       102                         -0.2804967              -7.6327 (LUMO)
       103                         -0.2697683              -7.3408
       104                         -0.2440153              -6.6400
       105                         -0.2398254              -6.5260
       106                         -0.2360373              -6.4229
       107                         -0.2340780              -6.3696
       108                         -0.2256700              -6.1408
       109                         -0.2214633              -6.0263
       110                         -0.2188195              -5.9544
       111                         -0.2095785              -5.7029
       112                         -0.2002732              -5.4497
       ...                                ...                  ...
       198                          1.1744403              31.9581
      -------------------------------------------------------------
                  HL-Gap            0.0702898 Eh            1.9127 eV

     #   Z          covCN         q      C6AA      α(0)
     1   6 C        3.762    -0.104    22.527     6.766
     2   6 C        3.909     0.022    20.142     6.379
     3   6 C        3.761    -0.104    22.535     6.767
     4   6 C        2.980    -0.011    28.278     8.723
     5   6 C        2.929    -0.035    28.869     8.812
     6   6 C        2.917    -0.043    29.076     8.842
     7   6 C        2.920    -0.033    28.826     8.804
     8   6 C        2.924    -0.059    29.467     8.902
     9   6 C        2.926     0.059    26.670     8.469
    10   7 N        2.754    -0.076    22.719     7.079
    11   6 C        2.933     0.082    26.169     8.389
    12   6 C        2.924    -0.072    29.783     8.950
    13   6 C        2.910     0.079    26.244     8.400
    14   7 N        2.755    -0.059    22.386     7.027
    15   6 C        2.951     0.054    26.782     8.488
    16   6 C        2.919    -0.045    29.107     8.847
    17   6 C        2.920    -0.032    28.793     8.799
    18   6 C        2.919    -0.034    28.835     8.806
    19   6 C        2.923    -0.036    28.905     8.817
    20   6 C        2.987    -0.004    28.114     8.698
    21   6 C        3.911     0.024    20.119     6.375
    22   6 C        3.759    -0.108    22.622     6.781
    23   6 C        3.761    -0.096    22.378     6.744
    24   6 C        2.987    -0.004    28.110     8.697
    25   6 C        2.924    -0.034    28.843     8.807
    26   6 C        2.920    -0.029    28.722     8.789
    27   6 C        2.921    -0.026    28.655     8.778
    28   6 C        2.920    -0.038    28.938     8.822
    29   6 C        2.958     0.055    26.765     8.486
    30   6 C        2.972    -0.015    28.377     8.738
    31   6 C        1.919     0.111    28.348     8.599
    32   7 N        0.911    -0.253    26.586     7.457
    33   6 C        2.945    -0.016    28.404     8.741
    34   6 C        2.970    -0.008    28.224     8.714
    35   6 C        1.910     0.115    28.262     8.586
    36   7 N        0.911    -0.241    26.298     7.417
    37   6 C        2.932     0.059    26.668     8.469
    38   6 C        2.925    -0.054    29.350     8.884
    39   6 C        2.920    -0.031    28.783     8.798
    40   6 C        2.918    -0.041    29.009     8.832
    41   6 C        2.929    -0.034    28.840     8.807
    42   6 C        2.980    -0.009    28.242     8.717
    43   1 H        0.925     0.041     2.433     2.439
    44   1 H        0.925     0.040     2.448     2.447
    45   1 H        0.925     0.039     2.460     2.453
    46   1 H        0.925     0.031     2.576     2.510
    47   1 H        0.925     0.040     2.443     2.444
    48   1 H        0.925     0.040     2.448     2.447
    49   1 H        0.926     0.033     2.548     2.496
    50   1 H        0.926     0.028     2.618     2.530
    51   1 H        0.926     0.027     2.633     2.538
    52   1 H        0.926     0.019     2.749     2.593
    53   1 H        0.926     0.053     2.282     2.362
    54   1 H        0.926     0.042     2.423     2.434
    55   1 H        0.926     0.039     2.458     2.452
    56   1 H        0.926     0.038     2.472     2.459
    57   1 H        0.926     0.045     2.387     2.416
    58   1 H        0.925     0.042     2.417     2.431
    59   1 H        0.925     0.040     2.450     2.448
    60   1 H        0.925     0.045     2.377     2.411
    61   1 H        0.925     0.030     2.588     2.516
    62   1 H        0.925     0.040     2.444     2.445
    63   1 H        0.925     0.045     2.378     2.411
    64   1 H        0.926     0.046     2.375     2.410
    65   1 H        0.926     0.042     2.419     2.432
    66   1 H        0.926     0.043     2.409     2.427
    67   1 H        0.926     0.034     2.535     2.490
    68   1 H        0.926     0.050     2.320     2.382
    69   1 H        0.926     0.016     2.789     2.612
    70   1 H        0.926     0.030     2.593     2.518
    71   1 H        0.926     0.030     2.585     2.514
    72   1 H        0.926     0.034     2.534     2.489

molecular dipole:
                 x           y           z       tot (Debye)
 q only:        1.187       1.940      -0.623
   full:        1.206       2.320      -0.612       6.827

 projected vibrational frequencies (cm⁻¹)
eigval :       -0.00    -0.00    -0.00    -0.00     0.00     0.00
eigval :       11.32    15.07    17.43    32.09    39.48    45.30
eigval :       61.75    69.18    73.23    93.91   102.01   110.28
eigval :      123.52   124.75   128.82   136.00   139.47   158.85
eigval :      167.74   185.39   194.95   196.49   205.08   221.46
eigval :      230.73   239.50   245.25   265.97   276.88   289.64
eigval :      305.20   310.39   322.03   335.07   338.74   345.88
eigval :      349.29   356.50   378.59   381.00   387.91   401.27
eigval :      406.22   409.84   423.05   451.99   452.58   477.77
eigval :      487.15   491.28   494.15   497.87   508.93   514.64
eigval :      521.00   541.42   548.17   556.67   560.41   571.21
eigval :      575.94   585.58   590.59   593.36   642.63   643.22
eigval :      648.52   671.49   682.08   687.05   691.40   693.89
eigval :      695.68   721.26   724.79   742.73   776.18   776.53
eigval :      778.47   785.87   809.55   825.43   855.89   868.66
eigval :      869.75   874.78   881.30   887.89   892.96   895.23
eigval :      910.40   912.55   913.37   914.92   917.90   920.33
eigval :      921.63   922.89   927.06   939.48   942.38   946.09
eigval :      959.09   967.61  1010.20  1015.17  1062.08  1073.20
eigval :     1077.17  1079.14  1100.11  1106.91  1115.26  1121.23
eigval :     1137.19  1138.85  1141.95  1153.98  1161.13  1165.61
eigval :     1175.79  1182.58  1184.53  1187.53  1188.48  1190.21
eigval :     1190.89  1226.23  1228.74  1236.47  1248.91  1251.22
eigval :     1260.03  1267.36  1269.09  1273.43  1286.89  1295.54
eigval :     1300.97  1319.10  1321.94  1327.45  1329.31  1334.47
eigval :     1337.65  1359.41  1400.48  1403.66  1417.61  1421.55
eigval :     1427.63  1436.83  1439.14  1440.77  1441.48  1453.40
eigval :     1465.05  1480.03  1484.73  1488.65  1489.97  1491.90
eigval :     1493.94  1496.35  1498.28  1501.64  1504.80  1506.90
eigval :     1522.19  1565.98  1577.98  1578.21  1586.96  1590.18
eigval :     1593.35  1594.45  1599.41  1603.14  2349.74  2367.62
eigval :     3026.05  3027.70  3032.31  3033.81  3034.89  3037.44
eigval :     3038.44  3044.97  3046.70  3049.05  3056.99  3057.47
eigval :     3075.96  3077.31  3077.60  3083.30  3085.08  3085.58
eigval :     3089.67  3090.40  3090.51  3092.25  3094.49  3099.31
eigval :     3100.13  3100.62  3103.10  3114.86  3116.27  3121.42

   temp. (K)  partition function   enthalpy   heat capacity  entropy
                                   cal/mol     cal/K/mol   cal/K/mol   J/K/mol
 298.15  VIB  0.175E+16            20897.527    132.775    128.192
         ROT  0.405E+08              888.752      2.981     37.793
         INT  0.710E+23            21786.279    135.756    165.985
         TR   0.122E+29             1481.254      4.968     44.739
         TOT                       23267.5331   140.7244   210.7240   881.6690

       T/K    H(0)-H(T)+PV         H(T)/Eh          T*S/Eh         G(T)/Eh
   ------------------------------------------------------------------------
    298.15    0.370792E-01    0.602163E+00    0.100122E+00    0.502042E+00
   ------------------------------------------------------------------------

         :::::::::::::::::::::::::::::::::::::::::::::::::::::
         ::                  THERMODYNAMIC                  ::
         :::::::::::::::::::::::::::::::::::::::::::::::::::::
         :: total free energy        -107.853799153804 Eh   ::
         ::.................................................::
         :: total energy             -108.355840818978 Eh   ::
         :: zero point energy           0.565084241451 Eh   ::
         :: G(RRHO) w/o ZPVE           -0.063042576277 Eh   ::
         :: G(RRHO) contrib.            0.502041665175 Eh   ::
         :::::::::::::::::::::::::::::::::::::::::::::::::::::

           -------------------------------------------------
          | TOTAL ENERGY             -108.355840818978 Eh   |
          | TOTAL ENTHALPY           -107.753677403308 Eh   |
          | TOTAL FREE ENERGY        -107.853799153804 Eh   |
          | GRADIENT NORM               0.000049371592 Eh/α |
          | HOMO-LUMO GAP               1.912683650610 eV   |
           -------------------------------------------------

 * finished run on 2025/07/20 at 10:12:41.885
