   * xtb version 6.7.1 (edcfbbe) compiled by 'albert@albert-system' on 2024-07-22

   ID    Z sym.   atoms
    1    8 O      1, 3
    2   16 S      2, 20
    3    6 C      4-12, 14-19, 21-29
    4    7 N      13
    5    1 H      30-44

          program call               : xtb data2507/gas/PTZ-DBTO2/PTZ-DBTO2.xyz --gfn 2 --ohess vtight --parallel 40 --molden --ceasefiles --namespace data2507/gas/PTZ-DBTO2/PTZ-DBTO2_gas_S0_preOpt
          :  Hamiltonian                  GFN2-xTB          :
 * total energy  :   -76.5600393 Eh     change       -0.9634817E-09 Eh
 * total energy  :   -76.5712023 Eh     change       -0.1116305E-01 Eh
 * total energy  :   -76.5753732 Eh     change       -0.4170884E-02 Eh
 * total energy  :   -76.5763449 Eh     change       -0.9716688E-03 Eh
 * total energy  :   -76.5769120 Eh     change       -0.5671041E-03 Eh
 * total energy  :   -76.5770371 Eh     change       -0.1251049E-03 Eh
 * total energy  :   -76.5770674 Eh     change       -0.3028939E-04 Eh
 * total energy  :   -76.5770764 Eh     change       -0.8992215E-05 Eh
 * total energy  :   -76.5770786 Eh     change       -0.2262262E-05 Eh
 * total energy  :   -76.5770795 Eh     change       -0.8864704E-06 Eh
 * total energy  :   -76.5770831 Eh     change       -0.1526679E-05 Eh
 * total energy  :   -76.5770855 Eh     change       -0.2368697E-05 Eh
 * total energy  :   -76.5770888 Eh     change       -0.3255708E-05 Eh
 * total energy  :   -76.5770916 Eh     change       -0.2847769E-05 Eh
 * total energy  :   -76.5770933 Eh     change       -0.1738834E-05 Eh
 * total energy  :   -76.5770943 Eh     change       -0.9815987E-06 Eh
 * total energy  :   -76.5770948 Eh     change       -0.5150759E-06 Eh
 * total energy  :   -76.5770952 Eh     change       -0.3149510E-06 Eh
 * total energy  :   -76.5770952 Eh     change       -0.7343104E-08 Eh
   *** GEOMETRY OPTIMIZATION CONVERGED AFTER 22 ITERATIONS ***

 final structure:
================
44
 xtb: 6.7.1 (edcfbbe)
O            4.29640933232111       -1.22821301456317       -2.60833539970739
S            3.90160976762674        0.00059813906003       -1.97760254895031
O            4.29597540139933        1.22988777388491       -2.60767651222920
C            4.33198077340702        0.00022696725939       -0.23318626157724
C            5.58561685617440        0.00022998911067        0.32915191618139
C            5.68677892300551       -0.00007446165737        1.71525454472393
C            4.54248272903179       -0.00037866421760        2.49810104836020
C            3.28225725141995       -0.00038040584802        1.92111900382377
C            3.17059044891268       -0.00006789165416        0.53551303328560
C            1.93631832014187       -0.00000244321648       -0.24963247183112
C            0.63638074998751       -0.00014398596174        0.23986602898446
C           -0.42514886130761       -0.00000990419314       -0.65814296852990
N           -1.75681893993462       -0.00006692649896       -0.15391758394118
C           -2.37207938530829        1.23758734354740        0.02808491804105
C           -1.68419196236842        2.40590291860137       -0.30404320444807
C           -2.25562608932936        3.65514446656502       -0.13658184116304
C           -3.53762181958034        3.77477258611094        0.36430784423924
C           -4.23506804260068        2.62819666597686        0.70059108922733
C           -3.66355173237934        1.37617221300427        0.54222018819383
S           -4.65438096691465       -0.00016908865602        1.05094641492260
C           -3.66348834063162       -1.37643519965546        0.54214040196726
C           -4.23495374011019       -2.62849568973997        0.70040801271658
C           -3.53747256220251       -3.77501365038723        0.36400090514271
C           -2.25550107622600       -3.65529158531341       -0.13692804997549
C           -1.68411517833733       -2.40601432718032       -0.30428133424885
C           -2.37202761413814       -1.23775755352628        0.02799881726643
C           -0.20239633447503        0.00022436714603       -2.03246045190494
C            1.09522845690482        0.00037490663510       -2.52454961265387
C            2.13760535675916        0.00026865182943       -1.62793540772826
H            6.46084354802543        0.00046497884787       -0.30083030684990
H            6.65931163356440       -0.00008530794744        2.18273383872811
H            4.63284045902331       -0.00062299228056        3.57401653138015
H            2.40152458734617       -0.00061612921029        2.54423910340455
H            0.43271159006232       -0.00033552719922        1.29946362605419
H           -0.68238361193718        2.33828158467907       -0.69864198101666
H           -1.68758633489385        4.53304560880442       -0.40338874813934
H           -3.99276065132858        4.74342866147418        0.49617816698078
H           -5.23646954663079        2.68807077604581        1.09900422115664
H           -5.23633686055198       -2.68844339104532        1.09885972754950
H           -3.99255148814279       -4.74370193234759        0.49584839379311
H           -1.68742680699200       -4.53315122671228       -0.40380094180442
H           -0.68232987999365       -2.33831017472528       -0.69892879401269
H           -1.04693193388546        0.00031851679562       -2.70460803661554
H            1.29275457508689        0.00058435835888       -3.58457731879532

          :  Hamiltonian                  GFN2-xTB          :
         :: gradient norm              0.000058699886 Eh/a0 ::
         :: HOMO-LUMO gap              1.312059092692 eV    ::
         :: SCC energy               -77.822512908097 Eh    ::
         :: -> dispersion             -0.064719724219 Eh    ::
         :: repulsion energy           1.245417747901 Eh    ::

    * Orbital Energies and Occupations

         #    Occupation            Energy/Eh            Energy/eV
      -------------------------------------------------------------
         1        2.0000           -0.7792196             -21.2036
       ...           ...                  ...                  ...
        58        2.0000           -0.4435912             -12.0707
        59        2.0000           -0.4414283             -12.0119
        60        2.0000           -0.4405419             -11.9878
        61        2.0000           -0.4395610             -11.9611
        62        2.0000           -0.4394261             -11.9574
        63        2.0000           -0.4304864             -11.7141
        64        2.0000           -0.4284848             -11.6597
        65        2.0000           -0.4227159             -11.5027
        66        2.0000           -0.4210592             -11.4576
        67        2.0000           -0.4175669             -11.3626
        68        2.0000           -0.4140266             -11.2662
        69        2.0000           -0.3868210             -10.5259
        70        2.0000           -0.3449382              -9.3862 (HOMO)
        71                         -0.2967209              -8.0742 (LUMO)
        72                         -0.2721793              -7.4064
        73                         -0.2620842              -7.1317
        74                         -0.2474869              -6.7345
        75                         -0.2366250              -6.4389
        76                         -0.2305330              -6.2731
        77                         -0.2304465              -6.2708
        78                         -0.2054460              -5.5905
        79                         -0.2017601              -5.4902
        80                         -0.1577586              -4.2928
        81                         -0.1440968              -3.9211
       ...                                ...                  ...
       141                          1.2189435              33.1691
      -------------------------------------------------------------
                  HL-Gap            0.0482173 Eh            1.3121 eV

     #   Z          covCN         q      C6AA      α(0)
     1   8 O        0.860    -0.530    24.452     6.630
     2  16 S        3.928     0.967   107.589    17.458
     3   8 O        0.860    -0.530    24.452     6.630
     4   6 C        2.991    -0.075    29.865     8.964
     5   6 C        2.926    -0.016    28.399     8.739
     6   6 C        2.924    -0.022    28.548     8.762
     7   6 C        2.919    -0.024    28.591     8.768
     8   6 C        2.919    -0.025    28.624     8.773
     9   6 C        3.109     0.004    27.788     8.636
    10   6 C        3.109     0.006    27.750     8.631
    11   6 C        2.922    -0.037    28.922     8.819
    12   6 C        2.932     0.078    26.259     8.404
    13   7 N        2.750    -0.075    22.704     7.077
    14   6 C        2.941     0.058    26.689     8.473
    15   6 C        2.928    -0.060    29.485     8.905
    16   6 C        2.919    -0.033    28.834     8.806
    17   6 C        2.918    -0.039    28.958     8.825
    18   6 C        2.991    -0.040    28.978     8.830
    19   6 C        2.970     0.033    27.250     8.563
    20  16 S        2.138    -0.145   147.162    20.417
    21   6 C        2.970     0.033    27.250     8.563
    22   6 C        2.991    -0.040    28.978     8.830
    23   6 C        2.918    -0.039    28.958     8.825
    24   6 C        2.919    -0.033    28.834     8.806
    25   6 C        2.928    -0.060    29.485     8.905
    26   6 C        2.941     0.058    26.689     8.473
    27   6 C        2.925    -0.034    28.841     8.807
    28   6 C        2.926    -0.016    28.413     8.741
    29   6 C        2.990    -0.079    29.971     8.980
    30   1 H        0.926     0.060     2.196     2.318
    31   1 H        0.926     0.057     2.230     2.335
    32   1 H        0.926     0.055     2.262     2.352
    33   1 H        0.926     0.053     2.281     2.362
    34   1 H        0.926     0.060     2.199     2.319
    35   1 H        0.926     0.028     2.617     2.530
    36   1 H        0.926     0.037     2.495     2.470
    37   1 H        0.926     0.038     2.470     2.458
    38   1 H        0.926     0.046     2.374     2.409
    39   1 H        0.926     0.046     2.374     2.409
    40   1 H        0.926     0.038     2.470     2.458
    41   1 H        0.926     0.037     2.495     2.470
    42   1 H        0.926     0.028     2.617     2.530
    43   1 H        0.926     0.064     2.157     2.297
    44   1 H        0.926     0.065     2.142     2.289

molecular dipole:
                 x           y           z       tot (Debye)
 q only:       -0.412      -0.001       1.774
   full:       -0.138      -0.001       1.611       4.109

 projected vibrational frequencies (cm⁻¹)
eigval :       -0.00    -0.00     0.00     0.00     0.00     0.00
eigval :       -6.36     2.70    27.05    27.22    67.44    86.88
eigval :       93.70   101.86   117.52   140.99   164.20   173.76
eigval :      223.75   229.30   233.45   237.78   270.96   287.01
eigval :      325.82   356.82   360.59   380.81   386.11   397.66
eigval :      403.81   411.53   423.98   427.30   447.47   469.40
eigval :      491.98   495.14   504.05   509.36   514.83   536.64
eigval :      569.56   596.32   618.82   636.06   646.40   648.34
eigval :      674.81   675.56   686.94   702.73   705.91   722.67
eigval :      769.46   771.77   779.05   785.27   824.10   859.87
eigval :      860.10   872.50   881.04   900.79   901.23   909.57
eigval :      913.64   914.78   915.28   915.69   928.89   937.23
eigval :     1003.92  1027.04  1042.92  1053.66  1073.78  1102.69
eigval :     1105.34  1106.04  1121.83  1148.52  1152.91  1153.12
eigval :     1158.42  1174.78  1181.00  1181.87  1193.35  1219.06
eigval :     1227.49  1247.58  1249.86  1256.95  1262.71  1299.41
eigval :     1308.83  1313.46  1325.44  1334.50  1344.29  1398.57
eigval :     1407.50  1415.60  1421.12  1447.79  1456.77  1467.97
eigval :     1479.84  1557.29  1566.31  1570.95  1571.75  1575.71
eigval :     1579.87  1593.94  1597.20  3087.55  3088.87  3088.99
eigval :     3092.83  3093.21  3095.90  3097.37  3100.07  3102.23
eigval :     3102.55  3103.62  3108.49  3108.76  3108.83  3109.41

   temp. (K)  partition function   enthalpy   heat capacity  entropy
                                   cal/mol     cal/K/mol   cal/K/mol   J/K/mol
 298.15  VIB  0.513E+11            12925.237     83.239     81.018
         ROT  0.201E+08              888.752      2.981     36.396
         INT  0.103E+19            13813.989     86.220    117.413
         TR   0.814E+28             1481.254      4.968     43.929
         TOT                       15295.2430    91.1878   161.3425   675.0571

       T/K    H(0)-H(T)+PV         H(T)/Eh          T*S/Eh         G(T)/Eh
   ------------------------------------------------------------------------
    298.15    0.243745E-01    0.340646E+00    0.766590E-01    0.263987E+00
   ------------------------------------------------------------------------

         :::::::::::::::::::::::::::::::::::::::::::::::::::::
         ::                  THERMODYNAMIC                  ::
         :::::::::::::::::::::::::::::::::::::::::::::::::::::
         :: total free energy         -76.313107938281 Eh   ::
         ::.................................................::
         :: total energy              -76.577095160202 Eh   ::
         :: zero point energy           0.316271740719 Eh   ::
         :: G(RRHO) w/o ZPVE           -0.052284518798 Eh   ::
         :: G(RRHO) contrib.            0.263987221921 Eh   ::
         :::::::::::::::::::::::::::::::::::::::::::::::::::::

           -------------------------------------------------
          | TOTAL ENERGY              -76.577095160202 Eh   |
          | TOTAL ENTHALPY            -76.236448898211 Eh   |
          | TOTAL FREE ENERGY         -76.313107938281 Eh   |
          | GRADIENT NORM               0.000058701828 Eh/α |
          | HOMO-LUMO GAP               1.312059518189 eV   |
           -------------------------------------------------

 * finished run on 2025/07/17 at 21:38:47.640
