   * xtb version 6.7.1 (edcfbbe) compiled by 'albert@albert-system' on 2024-07-22

   ID    Z sym.   atoms
    1    8 O      1, 3
    2   16 S      2, 20
    3    6 C      4-12, 14-19, 21-29
    4    7 N      13
    5    1 H      30-44

          program call               : xtb data2507/gas/PTZ-DBTO2/PTZ-DBTO2_gas_S0_crest.xyz --gfn 2 --ohess vtight --parallel 40 --molden --ceasefiles --namespace data2507/gas/PTZ-DBTO2/PTZ-DBTO2_gas_S0_finalOpt
          :  Hamiltonian                  GFN2-xTB          :
 * total energy  :   -76.5787635 Eh     change       -0.8113261E-09 Eh
 * total energy  :   -76.5787645 Eh     change       -0.1040566E-05 Eh
 * total energy  :   -76.5787660 Eh     change       -0.1448318E-05 Eh
 * total energy  :   -76.5787679 Eh     change       -0.1921677E-05 Eh
 * total energy  :   -76.5787695 Eh     change       -0.1636723E-05 Eh
 * total energy  :   -76.5787708 Eh     change       -0.1276504E-05 Eh
 * total energy  :   -76.5787720 Eh     change       -0.1181708E-05 Eh
 * total energy  :   -76.5787732 Eh     change       -0.1203027E-05 Eh
 * total energy  :   -76.5787741 Eh     change       -0.9221031E-06 Eh
 * total energy  :   -76.5787746 Eh     change       -0.4591115E-06 Eh
 * total energy  :   -76.5787748 Eh     change       -0.2428622E-06 Eh
 * total energy  :   -76.5787750 Eh     change       -0.1957773E-06 Eh
 * total energy  :   -76.5787752 Eh     change       -0.2067653E-06 Eh
 * total energy  :   -76.5787754 Eh     change       -0.1875119E-06 Eh
 * total energy  :   -76.5787756 Eh     change       -0.1596653E-06 Eh
 * total energy  :   -76.5787757 Eh     change       -0.1041250E-06 Eh
 * total energy  :   -76.5787757 Eh     change       -0.4271737E-07 Eh
   *** GEOMETRY OPTIMIZATION CONVERGED AFTER 17 ITERATIONS ***

 final structure:
================
44
 xtb: 6.7.1 (edcfbbe)
O            4.47575202734911        2.15926734538945       -1.02758590193637
S            3.93568629482864        1.53628118391607        0.15187523049523
O            4.30308734358162        2.10339460667948        1.42160183630461
C            4.23581634280959       -0.23645569466099        0.12633190089667
C            5.44107762684168       -0.89210701464601        0.19902895101539
C            5.44131369671500       -2.28096711221328        0.15577198582560
C            4.24610470244370       -2.97385415263694        0.04053865520322
C            3.03555618565827       -2.30298322113014       -0.03322743908132
C            3.02443688383253       -0.91362628955321        0.01052173074009
C            1.85689988382240       -0.03397183256620       -0.05568681193417
C            0.53721897224246       -0.43233644340778       -0.17757063522144
C           -0.48403743511280        0.52578659734741       -0.24590826677276
N           -1.80216308505028        0.13586038511564       -0.37237440277295
C           -2.87948057359399        1.04829189603652       -0.34737201090423
C           -2.97185660135083        2.09026021240086       -1.26410900066061
C           -4.03329769889796        2.97507281161401       -1.20781294595281
C           -5.02671005896076        2.81567386350019       -0.25450163573384
C           -4.97611737031242        1.74992238290888        0.62465389332746
C           -3.91000694544802        0.86565707707670        0.57226664482951
S           -3.86225211074840       -0.53218052134705        1.66288852021602
C           -3.14882038469263       -1.67438024834949        0.50957613658582
C           -3.54949563683334       -3.00148036424457        0.50888356555156
C           -3.01664152443911       -3.87874062772694       -0.41727388716970
C           -2.11454695794383       -3.42154558643385       -1.36513842741758
C           -1.71830284926061       -2.09641591995843       -1.36894071957662
C           -2.20144650908733       -1.21771733581111       -0.40468528470632
C           -0.14520450633502        1.88075147426162       -0.11422634869427
C            1.17427494273637        2.27625853230968        0.01140788471932
C            2.16503945238249        1.32243455710782        0.01767267076473
H            6.35712614433254       -0.32979729450817        0.28769632096198
H            6.37408571652255       -2.82089174222739        0.21197693564461
H            4.25715595335691       -4.05328477273306        0.00738481093278
H            2.11440929609156       -2.85837922274115       -0.12249309020146
H            0.29569907456741       -1.48222936540208       -0.19527415386644
H           -2.20322141578557        2.20181338933170       -2.01395716863856
H           -4.08593695427448        3.78914811723717       -1.91420934722905
H           -5.85042754754061        3.51076626794830       -0.20699356238701
H           -5.75290461377302        1.59556340619721        1.35727242474350
H           -4.27212673220358       -3.33346307037747        1.23790532705351
H           -3.31966680839062       -4.91418324670241       -0.41087430225970
H           -1.72081744220376       -4.09744236754824       -2.10875695358112
H           -1.02826092695616       -1.73185202655273       -2.11516087954979
H           -0.92021296138005        2.62920290298823       -0.08573851651898
H            1.42780654186060        3.31991221691173        0.10799862075579

          :  Hamiltonian                  GFN2-xTB          :
         :: gradient norm              0.000123343723 Eh/a0 ::
         :: HOMO-LUMO gap              2.373546063408 eV    ::
         :: SCC energy               -77.824139408546 Eh    ::
         :: -> dispersion             -0.065101028411 Eh    ::
         :: repulsion energy           1.245363698931 Eh    ::

    * Orbital Energies and Occupations

         #    Occupation            Energy/Eh            Energy/eV
      -------------------------------------------------------------
         1        2.0000           -0.7628444             -20.7581
       ...           ...                  ...                  ...
        58        2.0000           -0.4445690             -12.0973
        59        2.0000           -0.4427189             -12.0470
        60        2.0000           -0.4363661             -11.8741
        61        2.0000           -0.4324997             -11.7689
        62        2.0000           -0.4295227             -11.6879
        63        2.0000           -0.4287979             -11.6682
        64        2.0000           -0.4261093             -11.5950
        65        2.0000           -0.4253299             -11.5738
        66        2.0000           -0.4237883             -11.5319
        67        2.0000           -0.4082738             -11.1097
        68        2.0000           -0.3983936             -10.8408
        69        2.0000           -0.3894939             -10.5987
        70        2.0000           -0.3656218              -9.9491 (HOMO)
        71                         -0.2783955              -7.5755 (LUMO)
        72                         -0.2569369              -6.9916
        73                         -0.2544711              -6.9245
        74                         -0.2513020              -6.8383
        75                         -0.2500529              -6.8043
        76                         -0.2467074              -6.7132
        77                         -0.2323969              -6.3238
        78                         -0.2115789              -5.7574
        79                         -0.2095512              -5.7022
        80                         -0.1464265              -3.9845
        81                         -0.1377487              -3.7483
       ...                                ...                  ...
       141                          1.2265879              33.3772
      -------------------------------------------------------------
                  HL-Gap            0.0872263 Eh            2.3735 eV

     #   Z          covCN         q      C6AA      α(0)
     1   8 O        0.860    -0.536    24.602     6.650
     2  16 S        3.930     0.955   107.942    17.486
     3   8 O        0.860    -0.535    24.570     6.646
     4   6 C        2.991    -0.075    29.862     8.964
     5   6 C        2.926    -0.017    28.430     8.744
     6   6 C        2.924    -0.025    28.616     8.773
     7   6 C        2.919    -0.026    28.643     8.776
     8   6 C        2.919    -0.027    28.682     8.782
     9   6 C        3.109     0.004    27.796     8.638
    10   6 C        3.111     0.002    27.826     8.642
    11   6 C        2.924    -0.057    29.426     8.896
    12   6 C        2.911     0.073    26.360     8.419
    13   7 N        2.752    -0.067    22.543     7.052
    14   6 C        2.975     0.056    26.732     8.481
    15   6 C        2.922    -0.045    29.105     8.847
    16   6 C        2.919    -0.032    28.797     8.800
    17   6 C        2.921    -0.031    28.784     8.798
    18   6 C        2.959    -0.036    28.893     8.817
    19   6 C        2.972     0.036    27.190     8.553
    20  16 S        2.115    -0.131   146.554    20.375
    21   6 C        2.972     0.036    27.190     8.553
    22   6 C        2.959    -0.036    28.899     8.817
    23   6 C        2.920    -0.032    28.798     8.800
    24   6 C        2.919    -0.033    28.825     8.804
    25   6 C        2.922    -0.045    29.122     8.850
    26   6 C        2.975     0.056    26.730     8.481
    27   6 C        2.926    -0.055    29.365     8.887
    28   6 C        2.925    -0.018    28.454     8.748
    29   6 C        2.988    -0.091    30.287     9.028
    30   1 H        0.926     0.057     2.240     2.341
    31   1 H        0.926     0.052     2.294     2.369
    32   1 H        0.926     0.049     2.336     2.390
    33   1 H        0.926     0.046     2.365     2.405
    34   1 H        0.926     0.047     2.358     2.401
    35   1 H        0.926     0.048     2.350     2.397
    36   1 H        0.926     0.045     2.383     2.414
    37   1 H        0.926     0.046     2.372     2.408
    38   1 H        0.926     0.052     2.297     2.370
    39   1 H        0.926     0.052     2.297     2.370
    40   1 H        0.926     0.045     2.382     2.413
    41   1 H        0.926     0.043     2.407     2.426
    42   1 H        0.926     0.046     2.366     2.405
    43   1 H        0.926     0.050     2.324     2.384
    44   1 H        0.926     0.054     2.269     2.355

molecular dipole:
                 x           y           z       tot (Debye)
 q only:       -2.244      -1.997      -0.659
   full:       -2.131      -1.962      -0.848       7.671

 projected vibrational frequencies (cm⁻¹)
eigval :       -0.00    -0.00    -0.00     0.00     0.00     0.00
eigval :       18.94    28.29    49.09    59.35    71.17    73.83
eigval :       95.18   121.70   142.51   149.84   154.22   171.93
eigval :      202.27   227.15   244.71   265.72   289.48   310.40
eigval :      324.42   344.30   362.02   371.28   376.62   392.76
eigval :      412.71   424.05   425.50   434.81   444.11   482.92
eigval :      496.75   503.48   505.33   513.84   520.82   545.35
eigval :      583.11   587.25   602.57   626.65   658.48   666.63
eigval :      680.08   685.82   691.22   692.83   700.74   720.34
eigval :      777.24   778.83   779.84   792.04   813.25   854.88
eigval :      879.47   883.57   887.35   901.72   906.40   912.27
eigval :      917.03   918.66   927.54   931.66   932.75   940.47
eigval :     1001.40  1026.73  1043.26  1052.69  1075.12  1086.14
eigval :     1086.74  1113.19  1119.90  1149.37  1153.12  1155.26
eigval :     1174.08  1176.01  1177.30  1181.17  1198.52  1227.41
eigval :     1228.60  1240.70  1241.12  1243.25  1266.88  1289.25
eigval :     1313.45  1319.15  1321.97  1335.77  1355.30  1405.32
eigval :     1417.18  1419.96  1424.85  1444.48  1452.88  1461.78
eigval :     1473.36  1562.04  1568.95  1569.09  1571.36  1572.53
eigval :     1577.54  1585.64  1597.56  3082.32  3086.08  3088.21
eigval :     3091.25  3092.93  3093.88  3097.44  3099.21  3100.40
eigval :     3103.23  3106.38  3107.18  3107.64  3114.93  3115.35

   temp. (K)  partition function   enthalpy   heat capacity  entropy
                                   cal/mol     cal/K/mol   cal/K/mol   J/K/mol
 298.15  VIB  0.386E+09            12686.346     83.963     76.544
         ROT  0.197E+08              888.752      2.981     36.359
         INT  0.760E+16            13575.099     86.944    112.903
         TR   0.814E+28             1481.254      4.968     43.929
         TOT                       15056.3528    91.9121   156.8324   656.1868

       T/K    H(0)-H(T)+PV         H(T)/Eh          T*S/Eh         G(T)/Eh
   ------------------------------------------------------------------------
    298.15    0.239938E-01    0.340958E+00    0.745161E-01    0.266442E+00
   ------------------------------------------------------------------------

         :::::::::::::::::::::::::::::::::::::::::::::::::::::
         ::                  THERMODYNAMIC                  ::
         :::::::::::::::::::::::::::::::::::::::::::::::::::::
         :: total free energy         -76.312333479412 Eh   ::
         ::.................................................::
         :: total energy              -76.578775709621 Eh   ::
         :: zero point energy           0.316964537665 Eh   ::
         :: G(RRHO) w/o ZPVE           -0.050522307456 Eh   ::
         :: G(RRHO) contrib.            0.266442230209 Eh   ::
         :::::::::::::::::::::::::::::::::::::::::::::::::::::

           -------------------------------------------------
          | TOTAL ENERGY              -76.578775709621 Eh   |
          | TOTAL ENTHALPY            -76.237817346576 Eh   |
          | TOTAL FREE ENERGY         -76.312333479412 Eh   |
          | GRADIENT NORM               0.000123448363 Eh/α |
          | HOMO-LUMO GAP               2.373549485933 eV   |
           -------------------------------------------------

 * finished run on 2025/07/17 at 21:39:57.535
