   * xtb version 6.7.1 (edcfbbe) compiled by 'albert@albert-system' on 2024-07-22

   ID    Z sym.   atoms
    1    8 O      1, 3
    2   16 S      2, 20
    3    6 C      4-12, 14-19, 21-29
    4    7 N      13
    5    1 H      30-44

          program call               : xtb data2507/gas/PTZ-DBTO2/PTZ-DBTO2_gas_T1_crest.xyz --gfn 2 --spinpol --tblite --uhf 2 --ohess vtight --parallel 40 --molden --ceasefiles --namespace data2507/gas/PTZ-DBTO2/PTZ-DBTO2_gas_T1_finalOpt
 * total energy  :   -76.4957354 Eh     change        0.2023214E-08 Eh
 * total energy  :   -76.4957383 Eh     change       -0.2851958E-05 Eh
 * total energy  :   -76.4957397 Eh     change       -0.1439931E-05 Eh
 * total energy  :   -76.4957405 Eh     change       -0.7490176E-06 Eh
 * total energy  :   -76.4957418 Eh     change       -0.1355050E-05 Eh
 * total energy  :   -76.4957430 Eh     change       -0.1145943E-05 Eh
 * total energy  :   -76.4957443 Eh     change       -0.1319081E-05 Eh
 * total energy  :   -76.4957452 Eh     change       -0.9500847E-06 Eh
 * total energy  :   -76.4957459 Eh     change       -0.6370760E-06 Eh
 * total energy  :   -76.4957466 Eh     change       -0.7095136E-06 Eh
 * total energy  :   -76.4957475 Eh     change       -0.9200224E-06 Eh
 * total energy  :   -76.4957484 Eh     change       -0.8974636E-06 Eh
 * total energy  :   -76.4957495 Eh     change       -0.1084868E-05 Eh
 * total energy  :   -76.4957505 Eh     change       -0.1043921E-05 Eh
 * total energy  :   -76.4957512 Eh     change       -0.6793627E-06 Eh
 * total energy  :   -76.4957515 Eh     change       -0.2938647E-06 Eh
 * total energy  :   -76.4957515 Eh     change       -0.2783939E-07 Eh
   *** GEOMETRY OPTIMIZATION CONVERGED AFTER 17 ITERATIONS ***

 final structure:
================
44
 xtb: 6.7.1 (edcfbbe)
O            4.47980310683803        1.11420943936724        1.90159251741054
S            4.00055024491696       -0.07789033769053        1.25003508156823
O            4.47784613297448       -1.33680741871095        1.76242573805574
C            4.18875087115982        0.02342125628221       -0.52616546971784
C            5.35242187323168        0.06438670290485       -1.25072700242403
C            5.27217637961040        0.14426884505585       -2.63666444137683
C            4.02770786034071        0.18086256941785       -3.25908203021139
C            2.85912233272876        0.13956879383483       -2.52602896082731
C            2.92251586461840        0.05934793977409       -1.13050339268205
C            1.82344595770220        0.00748650875726       -0.20077011485872
C            0.45488103268773        0.02671747629684       -0.49360936217820
C           -0.45398388861945       -0.03079848276747        0.54407245760964
N           -1.85565908830696       -0.00934068997044        0.24333009264603
C           -2.45591179138849        1.21934931618104        0.16291982399550
C           -1.72023892237859        2.39020378706509        0.42543316334988
C           -2.29114846845318        3.63242017958830        0.34665086190653
C           -3.64994426890702        3.77642648215502       -0.01344611164897
C           -4.39481878126831        2.66073510911674       -0.28219381693561
C           -3.83403551753137        1.38128913651010       -0.19682540482010
S           -4.85919614014184        0.04554204587689       -0.59507642245188
C           -3.85243840811757       -1.33210687555653       -0.30807920584061
C           -4.43064288450161       -2.59248170741882       -0.49773363509942
C           -3.70016800343046       -3.73642204309632       -0.32574765589475
C           -2.33805293948735       -3.64089882349980        0.03757298634271
C           -1.75022219842196       -2.41716473221413        0.21742378983822
C           -2.47170385842518       -1.21906420983855        0.05996430241427
C           -0.05388254196109       -0.10854865888501        1.88300522224797
C            1.30645276577855       -0.12815224596775        2.17843954400275
C            2.21053325580189       -0.07064229973433        1.15197632452836
H            6.30404110832352        0.03454004080728       -0.74347052141491
H            6.17302121486807        0.17760643110688       -3.22912328899113
H            3.97694749116660        0.24258058380511       -4.33645052975070
H            1.90325233283411        0.16920672757961       -3.02683355852170
H            0.10440913415179        0.08616727352206       -1.51264676506633
H           -0.68170656337122        2.29967254444787        0.70088122623235
H           -1.69993769542037        4.50790771068553        0.56018656907383
H           -4.09057356306514        4.75789264930972       -0.07494043996295
H           -5.43428605713491        2.73966452782185       -0.56322731845531
H           -5.47177373123097       -2.63392415918062       -0.78057355815259
H           -4.15429388736231       -4.70347006081161       -0.46659815996539
H           -1.75747525859040       -4.53881945005442        0.17265610214426
H           -0.70898125167301       -2.36365240643191        0.49226272884294
H           -0.79687463131147       -0.15184279409479        2.66291551805587
H            1.64985528776645       -0.18724115684634        3.19895099208263

 projected vibrational frequencies (cm⁻¹)
eigval :       -0.00    -0.00     0.00     0.00     0.00     0.00
eigval :       11.15    17.19    26.94    43.61    64.91    82.57
eigval :       91.48   101.18   102.42   140.78   151.13   159.52
eigval :      210.43   220.16   235.14   238.03   274.51   287.95
eigval :      338.26   358.29   358.98   364.06   371.70   379.65
eigval :      388.85   395.43   408.69   424.40   428.24   437.38
eigval :      465.04   487.53   500.06   507.37   523.84   535.31
eigval :      561.30   590.82   600.93   607.80   610.79   631.88
eigval :      655.62   672.92   680.84   685.80   716.65   721.02
eigval :      743.75   744.33   763.37   782.63   783.62   839.18
eigval :      843.94   845.49   862.04   887.70   891.42   892.70
eigval :      892.91   897.58   897.62   901.76   915.76   926.77
eigval :      996.02  1017.33  1027.65  1047.76  1059.78  1067.05
eigval :     1069.54  1084.22  1108.79  1143.08  1144.15  1148.34
eigval :     1154.25  1168.06  1168.54  1176.58  1185.37  1207.05
eigval :     1215.85  1218.93  1229.63  1232.90  1271.15  1294.73
eigval :     1316.93  1326.77  1328.05  1334.14  1348.93  1369.87
eigval :     1379.91  1388.53  1406.58  1427.65  1431.60  1434.86
eigval :     1442.96  1446.59  1461.30  1475.78  1497.26  1502.62
eigval :     1527.22  1570.80  1584.72  3076.77  3087.22  3088.82
eigval :     3089.46  3092.96  3095.27  3100.29  3103.77  3103.87
eigval :     3103.92  3108.90  3111.55  3111.58  3117.70  3118.06

   temp. (K)  partition function   enthalpy   heat capacity  entropy
                                   cal/mol     cal/K/mol   cal/K/mol   J/K/mol
 298.15  VIB  0.543E+10            13170.565     85.126     80.555
         ROT  0.200E+08              888.752      2.981     36.386
         INT  0.108E+18            14059.317     88.107    116.941
         TR   0.814E+28             1481.254      4.968     43.929
         TOT                       15540.5709    93.0752   160.8705   673.0822

       T/K    H(0)-H(T)+PV         H(T)/Eh          T*S/Eh         G(T)/Eh
   ------------------------------------------------------------------------
    298.15    0.247655E-01    0.337173E+00    0.764348E-01    0.260738E+00
   ------------------------------------------------------------------------

         :::::::::::::::::::::::::::::::::::::::::::::::::::::
         ::                  THERMODYNAMIC                  ::
         :::::::::::::::::::::::::::::::::::::::::::::::::::::
         :: total free energy         -76.235013323271 Eh   ::
         ::.................................................::
         :: total energy              -76.495751543064 Eh   ::
         :: zero point energy           0.312407516270 Eh   ::
         :: G(RRHO) w/o ZPVE           -0.051669296477 Eh   ::
         :: G(RRHO) contrib.            0.260738219793 Eh   ::
         :::::::::::::::::::::::::::::::::::::::::::::::::::::

           -------------------------------------------------
          | TOTAL ENERGY              -76.495751543064 Eh   |
          | TOTAL ENTHALPY            -76.158578550684 Eh   |
          | TOTAL FREE ENERGY         -76.235013323271 Eh   |
          | GRADIENT NORM               0.000165384752 Eh/α |
           -------------------------------------------------

 * finished run on 2025/07/17 at 21:41:23.975
