   * xtb version 6.7.1 (edcfbbe) compiled by 'albert@albert-system' on 2024-07-22

   ID    Z sym.   atoms
    1    8 O      1, 3
    2   16 S      2, 20
    3    6 C      4-12, 14-19, 21-29
    4    7 N      13
    5    1 H      30-44

          program call               : xtb data2507/gas/PTZ-DBTO2/PTZ-DBTO2_gas_S0_finalOpt.xtbopt.xyz --gfn 2 --spinpol --tblite --uhf 2 --ohess vtight --parallel 40 --molden --ceasefiles --namespace data2507/gas/PTZ-DBTO2/PTZ-DBTO2_gas_T1_preOpt
 * total energy  :   -76.4761645 Eh     change        0.4535281E-08 Eh
 * total energy  :   -76.4809183 Eh     change       -0.4753735E-02 Eh
 * total energy  :   -76.4827493 Eh     change       -0.1831003E-02 Eh
 * total energy  :   -76.4830032 Eh     change       -0.2539440E-03 Eh
 * total energy  :   -76.4831607 Eh     change       -0.1574857E-03 Eh
 * total energy  :   -76.4832143 Eh     change       -0.5363025E-04 Eh
 * total energy  :   -76.4832683 Eh     change       -0.5398440E-04 Eh
 * total energy  :   -76.4833090 Eh     change       -0.4063007E-04 Eh
 * total energy  :   -76.4833483 Eh     change       -0.3931285E-04 Eh
 * total energy  :   -76.4833878 Eh     change       -0.3952738E-04 Eh
 * total energy  :   -76.4835629 Eh     change       -0.4644439E-06 Eh
 * total energy  :   -76.4835633 Eh     change       -0.4366842E-06 Eh
 * total energy  :   -76.4835636 Eh     change       -0.3344511E-06 Eh
 * total energy  :   -76.4835638 Eh     change       -0.2164483E-06 Eh
 * total energy  :   -76.4835639 Eh     change       -0.1055234E-06 Eh
 * total energy  :   -76.4835641 Eh     change       -0.1700700E-06 Eh
 * total energy  :   -76.4835643 Eh     change       -0.1620204E-06 Eh
 * total energy  :   -76.4835643 Eh     change        0.1688102E-07 Eh
 * total energy  :   -76.4835643 Eh     change       -0.1868179E-07 Eh
   *** GEOMETRY OPTIMIZATION CONVERGED AFTER 45 ITERATIONS ***

 final structure:
================
44
 xtb: 6.7.1 (edcfbbe)
O            4.36971815487462        2.21759811823141       -1.11457350398167
S            3.91306029207164        1.56584605935828        0.08967224493912
O            4.31290624735095        2.17038213693020        1.33610136264468
C            4.24377890334353       -0.18494127432867        0.05549738493945
C            5.46186374982602       -0.80641316726868        0.07773056295250
C            5.51052866376074       -2.19828906983623        0.04731009577636
C            4.31940536065492       -2.93502044622509       -0.00869009981627
C            3.09606221883134       -2.31716559321801       -0.03372737197424
C            3.01880938521622       -0.90354387886387       -0.00270769180581
C            1.86408355839292       -0.09557703780945       -0.02922917793952
C            0.52474503988659       -0.49628184021394       -0.09911472033585
C           -0.49270264873893        0.43730836849403       -0.12422865094326
N           -1.81953144881610        0.07378653400155       -0.23245227440864
C           -2.85918127635429        1.00968482231458       -0.29537369073189
C           -2.81518502573484        2.08622289976360       -1.18895338574149
C           -3.84011972639457        3.00826750862925       -1.21817185934671
C           -4.93538593424884        2.87077137305109       -0.37496154673068
C           -5.01981570263516        1.78084525506785        0.47445071380144
C           -3.99622602347279        0.84801607742744        0.50516226520282
S           -4.11273174020302       -0.55468730446640        1.57318538920764
C           -3.30244570913197       -1.69881575868818        0.49861764792109
C           -3.72355691130060       -3.01945617196551        0.45766052110068
C           -3.12928385240143       -3.90664258879109       -0.41925785359291
C           -2.14041594540894       -3.46059755165015       -1.28795416337449
C           -1.70920711783202       -2.15124118708237       -1.24291594766028
C           -2.25172160619827       -1.25915647042087       -0.31527471515326
C           -0.17719471315514        1.84563143708954        0.05875831692259
C            1.14592050203816        2.25550389148781        0.09440153608867
C            2.14801478623006        1.32696715778548        0.02712297709488
H            6.36454032919280       -0.21684300950478        0.12288301451008
H            6.45976650612875       -2.70924139396400        0.06963590573420
H            4.37319183038776       -4.01400779829302       -0.03274756287250
H            2.18904565075342       -2.90113501681756       -0.07827698902794
H            0.30413844629678       -1.55080531387740       -0.12051234529372
H           -1.97123997958745        2.17548411106426       -1.85580162451448
H           -3.78977512908879        3.83710022980778       -1.90696358799447
H           -5.73153511696955        3.59759925270897       -0.39473303945631
H           -5.87526808847027        1.64320718487845        1.11674132473170
H           -4.52045775185147       -3.33541628065511        1.11242162991063
H           -3.45304150188218       -4.93488094205704       -0.44556474547660
H           -1.70817702024520       -4.13791542297456       -2.00794959896275
H           -0.96380417463146       -1.79628130194744       -1.93762878496235
H           -0.96611240827785        2.55403282082944        0.23942125462921
H            1.38904083088978        3.30117322037357        0.20442823752073

 projected vibrational frequencies (cm⁻¹)
eigval :       -0.00    -0.00    -0.00    -0.00    -0.00     0.00
eigval :       16.88    27.28    44.68    59.52    65.83    80.42
eigval :       99.31   121.87   131.60   144.65   156.28   160.60
eigval :      202.66   227.78   238.49   267.81   279.28   303.44
eigval :      307.30   335.88   347.12   357.63   367.12   374.26
eigval :      407.25   409.02   421.44   426.65   440.22   470.26
eigval :      478.60   484.98   501.86   506.87   512.20   534.82
eigval :      546.68   571.79   593.09   602.79   619.88   649.92
eigval :      657.55   671.71   677.91   681.16   689.04   693.09
eigval :      709.39   740.00   770.95   773.12   778.43   827.60
eigval :      832.75   872.73   881.80   888.29   891.55   892.10
eigval :      903.15   908.35   910.78   919.21   920.65   935.06
eigval :      964.75   990.37  1023.59  1036.83  1041.30  1051.24
eigval :     1080.72  1083.70  1101.02  1118.68  1144.76  1146.37
eigval :     1153.87  1163.15  1171.05  1171.85  1181.87  1204.88
eigval :     1214.96  1222.94  1230.50  1234.87  1270.40  1285.92
eigval :     1302.51  1304.92  1317.48  1326.47  1334.47  1341.41
eigval :     1367.71  1386.41  1401.62  1407.56  1411.76  1414.38
eigval :     1445.67  1468.21  1482.02  1494.58  1500.46  1517.87
eigval :     1532.39  1552.96  1571.84  3072.77  3084.68  3090.66
eigval :     3092.63  3093.01  3093.33  3098.54  3098.92  3103.42
eigval :     3104.07  3104.29  3110.05  3111.07  3111.99  3126.01

   temp. (K)  partition function   enthalpy   heat capacity  entropy
                                   cal/mol     cal/K/mol   cal/K/mol   J/K/mol
 298.15  VIB  0.699E+09            13023.350     86.018     78.487
         ROT  0.199E+08              888.752      2.981     36.379
         INT  0.139E+17            13912.103     88.999    114.866
         TR   0.814E+28             1481.254      4.968     43.929
         TOT                       15393.3568    93.9675   158.7950   664.3983

       T/K    H(0)-H(T)+PV         H(T)/Eh          T*S/Eh         G(T)/Eh
   ------------------------------------------------------------------------
    298.15    0.245309E-01    0.336617E+00    0.754486E-01    0.261169E+00
   ------------------------------------------------------------------------

         :::::::::::::::::::::::::::::::::::::::::::::::::::::
         ::                  THERMODYNAMIC                  ::
         :::::::::::::::::::::::::::::::::::::::::::::::::::::
         :: total free energy         -76.222395678854 Eh   ::
         ::.................................................::
         :: total energy              -76.483564262917 Eh   ::
         :: zero point energy           0.312086337371 Eh   ::
         :: G(RRHO) w/o ZPVE           -0.050917753308 Eh   ::
         :: G(RRHO) contrib.            0.261168584063 Eh   ::
         :::::::::::::::::::::::::::::::::::::::::::::::::::::

           -------------------------------------------------
          | TOTAL ENERGY              -76.483564262917 Eh   |
          | TOTAL ENTHALPY            -76.146947050082 Eh   |
          | TOTAL FREE ENERGY         -76.222395678854 Eh   |
          | GRADIENT NORM               0.000038426257 Eh/α |
           -------------------------------------------------

 * finished run on 2025/07/17 at 21:40:01.399
