   * xtb version 6.7.1 (edcfbbe) compiled by 'albert@albert-system' on 2024-07-22

   ID    Z sym.   atoms
    1    6 C      1-26, 28-39, 41-46
    2   16 S      27, 40
    3    1 H      47-72

          program call               : xtb data2507/gas/thio-ether/thio-ether_gas_S0_crest.xyz --gfn 2 --ohess vtight --parallel 40 --molden --ceasefiles --namespace data2507/gas/thio-ether/thio-ether_gas_S0_finalOpt
          :  Hamiltonian                  GFN2-xTB          :
 * total energy  :  -113.9135297 Eh     change       -0.5451056E-08 Eh
 * total energy  :  -113.9135307 Eh     change       -0.9644346E-06 Eh
 * total energy  :  -113.9135317 Eh     change       -0.1011682E-05 Eh
 * total energy  :  -113.9135334 Eh     change       -0.1716783E-05 Eh
 * total energy  :  -113.9135340 Eh     change       -0.5495399E-06 Eh
 * total energy  :  -113.9135346 Eh     change       -0.6147649E-06 Eh
 * total energy  :  -113.9135355 Eh     change       -0.8760076E-06 Eh
 * total energy  :  -113.9135361 Eh     change       -0.6680064E-06 Eh
 * total energy  :  -113.9135363 Eh     change       -0.1488150E-06 Eh
 * total energy  :  -113.9135366 Eh     change       -0.2704759E-06 Eh
 * total energy  :  -113.9135379 Eh     change       -0.3776628E-06 Eh
 * total energy  :  -113.9135383 Eh     change       -0.3772633E-06 Eh
 * total energy  :  -113.9135386 Eh     change       -0.2738423E-06 Eh
 * total energy  :  -113.9135388 Eh     change       -0.2664774E-06 Eh
 * total energy  :  -113.9135392 Eh     change       -0.3333270E-06 Eh
 * total energy  :  -113.9135395 Eh     change       -0.3524401E-06 Eh
 * total energy  :  -113.9135398 Eh     change       -0.2890051E-06 Eh
 * total energy  :  -113.9135400 Eh     change       -0.1711903E-06 Eh
 * total energy  :  -113.9135400 Eh     change       -0.6268806E-08 Eh
   *** GEOMETRY OPTIMIZATION CONVERGED AFTER 22 ITERATIONS ***

 final structure:
================
72
 xtb: 6.7.1 (edcfbbe)
C           -2.22412719034250        0.05073309004283       -3.19482311296641
C           -3.12929732056125        0.03384581057871       -2.20974290263011
C           -2.77723440723002        0.01136194612995       -0.74123521579611
C           -1.30748262077430        0.00493305837490       -0.48607197795214
C           -0.41589138586182        0.02262546294159       -1.48683709893282
C           -0.82635041412907        0.04736677678090       -2.89780842629831
C            0.29272878882781        0.06312831792201       -3.66583744041173
C            1.45217068677418        0.04977227649445       -2.79297163603073
C            1.02073765099286        0.02467979126324       -1.47875586172761
C            1.91300252217716        0.00392450792620       -0.27832726254869
C            3.34744969720918        0.01932932152512       -0.71398222914202
C            4.48869922944087        0.01078227817457        0.04110133914287
C            4.70913907636571       -0.01388040139325        1.44347700112415
C            5.98219211871564       -0.01624342583896        1.90967926354861
C            7.10032232569504        0.00556606637737        1.02339616341921
C            6.94379667667197        0.02943132467638       -0.32497303220996
C            5.63573622036226        0.03284370442778       -0.87074497315857
C            5.17765442324934        0.05398769498327       -2.16646348199096
C            3.75055301054965        0.04653718473476       -2.12128362873464
C            2.82824049918917        0.06067158279045       -3.13008457938725
C            1.63686625027700       -1.30684621512742        0.44059218483406
C            1.93980249833194       -2.47416352273027       -0.25675452684363
C            1.69805167299264       -3.72263396098892        0.27915666610201
C            1.14145240212253       -3.83195764466946        1.54457498977354
C            0.83886295538333       -2.68979196159780        2.25306163329261
C            1.08238582540638       -1.43136578411546        1.70550628009249
S            0.62363307703781       -0.06655240272991        2.72603776912083
C            1.07052247055340        1.34499018734344        1.76549131214719
C            0.81610566268460        2.57646751515685        2.36666228294188
C            1.10747637016812        3.75066635959575        1.70753705232505
C            1.66357486728564        3.70079039330926        0.43817208028011
C            1.91652471836126        2.47867741663927       -0.15078860190080
C            1.62514874105314        1.27984234092034        0.49616327617065
C           -3.38392269582923       -1.25150359634676       -0.14113233025169
C           -2.58778864334419       -2.36532186089596        0.10127411513272
C           -3.13115094197082       -3.53933152460819        0.58946428384218
C           -4.49107109424006       -3.62386405340774        0.83844719143580
C           -5.29688852208656       -2.52737152805919        0.60647390943699
C           -4.74545770469269       -1.34771784151864        0.12167621998025
S           -5.84522134692016        0.01086409958660       -0.14537109960601
C           -4.73882612614256        1.35619937261631        0.15860078740732
C           -5.28466788701730        2.52501568542891        0.67497496462391
C           -4.47359880239957        3.61081079963826        0.93700082290314
C           -3.11393293433578        3.52616243548103        0.68674515884202
C           -2.57610088973670        2.36315781453403        0.16711625051831
C           -3.37763482232803        1.26041622440922       -0.10619033065049
H           -2.53564402155661        0.06725988787065       -4.22959331222098
H           -4.18634567421202        0.03656067422239       -2.43021059891865
H           -1.01465358355420       -0.01293721070424        0.55362640294216
H            0.34502060774499        0.08265962200478       -4.73900668570246
H            3.86453344963931       -0.03035990458281        2.11742251750199
H            6.17465207545209       -0.03490174005231        2.97285698427847
H            8.09083023036562        0.00265308370209        1.45623250347964
H            7.79588115013739        0.04587485217100       -0.98965454642324
H            5.76626643832848        0.07309978340709       -3.06403023714330
H            3.12914834472784        0.08043791981356       -4.16863400751658
H            2.37428462267760       -2.38761548179558       -1.24180265695460
H            1.94160659268724       -4.60780270411165       -0.28825438491269
H            0.94610854210891       -4.80169866647314        1.97647704526480
H            0.40549863711987       -2.74863422563401        3.24039819876438
H            0.38321445202412        2.58900264427616        3.35587197049919
H            0.90370459388984        4.69913848183098        2.18079346716251
H            1.89806532988930        4.61168787072145       -0.09106415714307
H            2.35074729381226        2.43824837672519       -1.13894481011788
H           -1.52917182340651       -2.31927394151348       -0.10950247975730
H           -2.48864841863273       -4.38796644640088        0.76760997282855
H           -4.92300040431236       -4.53864192823946        1.21449741113410
H           -6.35865382677745       -2.56879918872792        0.79592335195315
H           -6.34634503946064        2.56657571925131        0.86489204013644
H           -4.90123894248275        4.51725158092929        1.33735399554601
H           -2.46719529762563        4.36628819064965        0.88832836369656
H           -1.51754241122013        2.31766465178201       -0.04386708474603

          :  Hamiltonian                  GFN2-xTB          :
         :: gradient norm              0.000028784982 Eh/a0 ::
         :: HOMO-LUMO gap              0.529047890472 eV    ::
         :: SCC energy              -116.016572937723 Eh    ::
         :: -> dispersion             -0.125305525681 Eh    ::
         :: repulsion energy           2.103032956066 Eh    ::

    * Orbital Energies and Occupations

         #    Occupation            Energy/Eh            Energy/eV
      -------------------------------------------------------------
         1        2.0000           -0.7248490             -19.7241
       ...           ...                  ...                  ...
        95        2.0000           -0.4186807             -11.3929
        96        2.0000           -0.4157369             -11.3128
        97        2.0000           -0.4139857             -11.2651
        98        2.0000           -0.4118320             -11.2065
        99        2.0000           -0.4105049             -11.1704
       100        2.0000           -0.4077235             -11.0947
       101        2.0000           -0.4030233             -10.9668
       102        2.0000           -0.3984861             -10.8434
       103        2.0000           -0.3871960             -10.5361
       104        2.0000           -0.3681701             -10.0184
       105        2.0000           -0.3652138              -9.9380
       106        2.0000           -0.3627044              -9.8697
       107        1.9999           -0.3358508              -9.1390 (HOMO)
       108        0.0001           -0.3164088              -8.6099 (LUMO)
       109                         -0.2848232              -7.7504
       110                         -0.2476791              -6.7397
       111                         -0.2433277              -6.6213
       112                         -0.2406157              -6.5475
       113                         -0.2394001              -6.5144
       114                         -0.2368923              -6.4462
       115                         -0.2346731              -6.3858
       116                         -0.2338923              -6.3645
       117                         -0.2240170              -6.0958
       118                         -0.2204389              -5.9984
       ...                                ...                  ...
       220                          0.7446762              20.2637
      -------------------------------------------------------------
                  HL-Gap            0.0194420 Eh            0.5290 eV

     #   Z          covCN         q      C6AA      α(0)
     1   6 C        2.895    -0.035    28.861     8.808
     2   6 C        2.919    -0.034    28.844     8.807
     3   6 C        3.922     0.029    20.018     6.359
     4   6 C        2.913    -0.009    28.240     8.714
     5   6 C        3.077     0.001    27.928     8.664
     6   6 C        3.068    -0.002    28.017     8.679
     7   6 C        2.999    -0.054    29.339     8.885
     8   6 C        3.093     0.004    27.822     8.645
     9   6 C        3.074    -0.006    28.081     8.688
    10   6 C        3.921     0.029    20.031     6.361
    11   6 C        3.063    -0.031    28.701     8.785
    12   6 C        3.075    -0.009    28.162     8.701
    13   6 C        2.903    -0.033    28.817     8.802
    14   6 C        2.915    -0.034    28.843     8.807
    15   6 C        2.915    -0.029    28.729     8.789
    16   6 C        2.903    -0.037    28.918     8.817
    17   6 C        3.100     0.006    27.760     8.634
    18   6 C        2.974    -0.080    29.998     8.984
    19   6 C        3.102     0.008    27.712     8.626
    20   6 C        2.903    -0.014    28.356     8.731
    21   6 C        3.010     0.009    27.810     8.650
    22   6 C        2.931    -0.033    28.824     8.805
    23   6 C        2.918    -0.035    28.869     8.811
    24   6 C        2.920    -0.030    28.757     8.794
    25   6 C        2.996    -0.039    28.959     8.827
    26   6 C        2.971     0.046    26.971     8.519
    27  16 S        2.151    -0.143   147.058    20.410
    28   6 C        2.971     0.046    26.971     8.519
    29   6 C        2.996    -0.039    28.959     8.827
    30   6 C        2.920    -0.030    28.756     8.794
    31   6 C        2.918    -0.035    28.869     8.811
    32   6 C        2.931    -0.033    28.824     8.805
    33   6 C        3.010     0.009    27.811     8.651
    34   6 C        3.015     0.007    27.854     8.657
    35   6 C        2.926    -0.034    28.840     8.807
    36   6 C        2.919    -0.032    28.800     8.800
    37   6 C        2.920    -0.029    28.721     8.788
    38   6 C        2.978    -0.037    28.915     8.820
    39   6 C        2.972     0.047    26.941     8.514
    40  16 S        2.132    -0.140   146.926    20.401
    41   6 C        2.972     0.047    26.941     8.514
    42   6 C        2.978    -0.037    28.915     8.820
    43   6 C        2.920    -0.029    28.721     8.788
    44   6 C        2.919    -0.032    28.801     8.801
    45   6 C        2.926    -0.034    28.842     8.807
    46   6 C        3.016     0.007    27.853     8.657
    47   1 H        0.926     0.037     2.490     2.468
    48   1 H        0.926     0.039     2.459     2.452
    49   1 H        0.926     0.049     2.327     2.385
    50   1 H        0.926     0.031     2.578     2.511
    51   1 H        0.926     0.017     2.775     2.605
    52   1 H        0.926     0.021     2.711     2.575
    53   1 H        0.926     0.023     2.691     2.565
    54   1 H        0.926     0.024     2.671     2.556
    55   1 H        0.926     0.018     2.756     2.596
    56   1 H        0.925     0.041     2.432     2.439
    57   1 H        0.926     0.038     2.480     2.462
    58   1 H        0.926     0.036     2.504     2.475
    59   1 H        0.926     0.037     2.490     2.467
    60   1 H        0.926     0.042     2.416     2.431
    61   1 H        0.926     0.042     2.417     2.431
    62   1 H        0.926     0.037     2.490     2.468
    63   1 H        0.926     0.036     2.505     2.475
    64   1 H        0.926     0.038     2.481     2.463
    65   1 H        0.926     0.035     2.520     2.482
    66   1 H        0.926     0.039     2.463     2.454
    67   1 H        0.926     0.042     2.425     2.435
    68   1 H        0.926     0.048     2.347     2.396
    69   1 H        0.926     0.048     2.347     2.396
    70   1 H        0.926     0.042     2.424     2.435
    71   1 H        0.926     0.039     2.463     2.454
    72   1 H        0.926     0.035     2.520     2.483

molecular dipole:
                 x           y           z       tot (Debye)
 q only:       -1.094       0.001      -0.176
   full:       -0.667       0.005      -0.310       1.870

 projected vibrational frequencies (cm⁻¹)
eigval :       -0.00    -0.00     0.00     0.00     0.00     0.00
eigval :       11.44    18.12    26.99    28.18    34.28    38.24
eigval :       43.03    59.66    61.56    74.16    95.80   103.03
eigval :      110.79   112.39   139.88   142.74   151.81   166.00
eigval :      188.44   196.60   207.46   231.32   235.45   245.83
eigval :      263.34   270.87   277.99   302.96   308.65   326.25
eigval :      328.45   342.11   351.59   361.05   363.03   366.87
eigval :      403.78   415.89   417.57   420.07   423.37   427.73
eigval :      436.29   444.76   451.51   471.12   473.57   485.37
eigval :      486.55   490.02   496.11   502.68   513.62   517.83
eigval :      530.08   561.16   582.52   588.95   590.14   613.24
eigval :      629.66   638.76   646.21   649.02   659.70   662.06
eigval :      669.41   680.77   683.14   683.69   697.05   701.71
eigval :      702.85   713.70   714.68   735.20   736.81   767.68
eigval :      772.44   775.33   777.80   778.18   793.08   810.86
eigval :      820.79   830.63   849.15   853.00   858.20   864.97
eigval :      876.06   876.53   879.24   880.13   880.80   901.59
eigval :      902.54   905.64   913.05   913.23   914.79   915.68
eigval :      916.78   920.88   923.06   923.21   926.08   927.91
eigval :      943.72   957.64   998.98  1033.97  1034.23  1035.24
eigval :     1045.11  1049.42  1085.34  1097.43  1098.08  1098.86
eigval :     1099.94  1124.49  1125.97  1135.68  1143.15  1149.21
eigval :     1151.03  1157.91  1160.79  1166.75  1177.71  1177.87
eigval :     1179.10  1179.87  1180.41  1193.25  1196.27  1201.00
eigval :     1209.77  1216.69  1223.97  1225.91  1248.99  1250.30
eigval :     1253.31  1255.35  1257.28  1271.84  1315.19  1317.94
eigval :     1322.33  1323.80  1327.66  1328.19  1343.62  1348.00
eigval :     1356.83  1397.18  1400.87  1407.55  1409.61  1413.49
eigval :     1417.35  1429.82  1446.49  1457.63  1459.57  1464.27
eigval :     1502.18  1542.08  1566.92  1567.52  1569.91  1576.14
eigval :     1578.32  1579.54  1583.20  1583.59  1587.05  1590.42
eigval :     1602.86  1613.93  1625.06  1664.82  3063.77  3068.01
eigval :     3069.07  3069.53  3076.18  3080.21  3080.69  3082.29
eigval :     3082.55  3083.80  3085.13  3085.47  3085.71  3087.37
eigval :     3087.54  3090.52  3092.85  3093.29  3095.44  3096.03
eigval :     3100.56  3100.95  3102.60  3102.95  3139.05  3144.70

   temp. (K)  partition function   enthalpy   heat capacity  entropy
                                   cal/mol     cal/K/mol   cal/K/mol   J/K/mol
 298.15  VIB  0.103E+16            20551.687    134.202    124.879
         ROT  0.464E+08              888.752      2.981     38.060
         INT  0.477E+23            21440.439    137.182    162.939
         TR   0.149E+29             1481.254      4.968     45.130
         TOT                       22921.6931   142.1506   208.0698   870.5640

       T/K    H(0)-H(T)+PV         H(T)/Eh          T*S/Eh         G(T)/Eh
   ------------------------------------------------------------------------
    298.15    0.365280E-01    0.574046E+00    0.988607E-01    0.475185E+00
   ------------------------------------------------------------------------

         :::::::::::::::::::::::::::::::::::::::::::::::::::::
         ::                  THERMODYNAMIC                  ::
         :::::::::::::::::::::::::::::::::::::::::::::::::::::
         :: total free energy        -113.438354756998 Eh   ::
         ::.................................................::
         :: total energy             -113.913539981652 Eh   ::
         :: zero point energy           0.537517857263 Eh   ::
         :: G(RRHO) w/o ZPVE           -0.062332632610 Eh   ::
         :: G(RRHO) contrib.            0.475185224654 Eh   ::
         :::::::::::::::::::::::::::::::::::::::::::::::::::::

           -------------------------------------------------
          | TOTAL ENERGY             -113.913539981652 Eh   |
          | TOTAL ENTHALPY           -113.339494081376 Eh   |
          | TOTAL FREE ENERGY        -113.438354756998 Eh   |
          | GRADIENT NORM               0.000028911188 Eh/α |
          | HOMO-LUMO GAP               0.529044389981 eV   |
           -------------------------------------------------

 * finished run on 2025/09/08 at 21:54:28.216
