   * xtb version 6.7.1 (edcfbbe) compiled by 'albert@albert-system' on 2024-07-22

   ID    Z sym.   atoms
    1    6 C      1-26, 28-39, 41-46
    2   16 S      27, 40
    3    1 H      47-72

          program call               : xtb data2507/gas/thio-ether/thio-ether_gas_S0_finalOpt.xtbopt.xyz --gfn 2 --spinpol --tblite --uhf 2 --ohess vtight --parallel 40 --molden --ceasefiles --namespace data2507/gas/thio-ether/thio-ether_gas_T1_preOpt
 * total energy  :  -113.8849617 Eh     change       -0.2806800E-08 Eh
 * total energy  :  -113.8937238 Eh     change       -0.8762067E-02 Eh
 * total energy  :  -113.8965888 Eh     change       -0.2865014E-02 Eh
 * total energy  :  -113.8967106 Eh     change       -0.1218574E-03 Eh
 * total energy  :  -113.8967487 Eh     change       -0.3802555E-04 Eh
 * total energy  :  -113.8967548 Eh     change       -0.6154751E-05 Eh
 * total energy  :  -113.8967583 Eh     change       -0.3489797E-05 Eh
 * total energy  :  -113.8967608 Eh     change       -0.2520606E-05 Eh
 * total energy  :  -113.8967628 Eh     change       -0.2017539E-05 Eh
 * total energy  :  -113.8967646 Eh     change       -0.1741170E-05 Eh
 * total energy  :  -113.8967703 Eh     change       -0.9213169E-06 Eh
 * total energy  :  -113.8967709 Eh     change       -0.6599664E-06 Eh
 * total energy  :  -113.8967715 Eh     change       -0.5784363E-06 Eh
 * total energy  :  -113.8967722 Eh     change       -0.6847169E-06 Eh
 * total energy  :  -113.8967729 Eh     change       -0.6947458E-06 Eh
 * total energy  :  -113.8967737 Eh     change       -0.7851330E-06 Eh
 * total energy  :  -113.8967745 Eh     change       -0.8107089E-06 Eh
 * total energy  :  -113.8967754 Eh     change       -0.8979219E-06 Eh
 * total energy  :  -113.8967754 Eh     change       -0.1285859E-07 Eh
   *** GEOMETRY OPTIMIZATION CONVERGED AFTER 22 ITERATIONS ***

 final structure:
================
72
 xtb: 6.7.1 (edcfbbe)
C           -2.22632349390986        0.05468657111300       -3.18859081552978
C           -3.12819630003622        0.03684188394894       -2.20175113317536
C           -2.77549897131551        0.01185963832915       -0.73246114941136
C           -1.30261556980397        0.00586872868508       -0.48142635908780
C           -0.40672241034104        0.02486090778055       -1.48992593508527
C           -0.82619178095748        0.05065124585277       -2.89744135255946
C            0.28187968995834        0.06658139000548       -3.67985633991662
C            1.45447899964814        0.05242233534486       -2.82615746422850
C            1.01388819479398        0.02646505282526       -1.48928811202335
C            1.91270063966386        0.00559013529292       -0.28508725082623
C            3.33667220679297        0.01862493273165       -0.74672085582154
C            4.51171564150328        0.00714259232754        0.06546101041674
C            4.69750941566492       -0.01775166948913        1.43570463759364
C            6.00029027172332       -0.02288011108587        1.93067260220906
C            7.09105203435740       -0.00357575537920        1.07710456150965
C            6.92224099594296        0.02158405240872       -0.30629744967717
C            5.63678296459246        0.02702646385073       -0.81763323033068
C            5.14152402917725        0.05027532960756       -2.15598963252308
C            3.73669855086065        0.04508835284797       -2.11005054083684
C            2.79825182264199        0.06203524793572       -3.16543184972337
C            1.65397511293322       -1.30237413311094        0.44546684122007
C            1.92381002332760       -2.47037697670536       -0.26402595835309
C            1.67894461779050       -3.71825170945896        0.27289992116657
C            1.14616994996870       -3.82500733948061        1.54836461739205
C            0.87506752408611       -2.68171679115304        2.26867384292910
C            1.12998346365892       -1.42479978506942        1.72393987417928
S            0.73340741538836       -0.05761899591650        2.76678999763921
C            1.12195642486185        1.35165038446382        1.77834062583454
C            0.85958544273558        2.58476366070899        2.37174260059929
C            1.12342666836963        3.75692079318237        1.69654652919697
C            1.65639256704318        3.70327005891699        0.41782948051545
C            1.90882490180647        2.47880636381618       -0.16735428231274
C            1.64637463101743        1.28238586306928        0.49604961187222
C           -3.38568108441677       -1.25346495824702       -0.14219259470455
C           -2.59115410040798       -2.37112257223485        0.08699095804793
C           -3.13346818284511       -3.54963665986749        0.56515343976730
C           -4.49229595628126       -3.63514476783765        0.81959393252453
C           -5.29740762072956       -2.53530552677207        0.60139257684780
C           -4.74634159406886       -1.35232794711201        0.12453497076306
S           -5.84834588947324        0.00719158616505       -0.12945944017075
C           -4.74191315327557        1.35411328338903        0.16847555928024
C           -5.28917229059305        2.52280820720693        0.68343286944643
C           -4.48050768663198        3.61232324595615        0.93736396553813
C           -3.12190526035260        3.53058265037946        0.68053600384488
C           -2.58338223541926        2.36645402426196        0.16437445956775
C           -3.38153471993105        1.25948212086916       -0.10121804958713
H           -2.54133113907551        0.07256552481595       -4.22272155624960
H           -4.18602174870339        0.04005830294894       -2.42070840034291
H           -1.00499736262437       -0.01309090074091        0.55637158760619
H            0.31868872719872        0.08674013823671       -4.75389460779938
H            3.85713762337034       -0.03295586463832        2.11346643098725
H            6.16042947010955       -0.04222387815158        2.99856783490961
H            8.08936101180865       -0.00809849122829        1.48935249605597
H            7.77974189056160        0.03646654224964       -0.96326613581293
H            5.74264522367424        0.06868429038319       -3.04665225428124
H            3.12595343357739        0.08216006308219       -4.19313087517411
H            2.32830298965601       -2.38472365638069       -1.26197913263206
H            1.89838982708109       -4.60435698559028       -0.30294932212575
H            0.94337314354963       -4.79371413690203        1.97921808341213
H            0.45888959858917       -2.73977401358389        3.26342195028946
H            0.44335849838266        2.60143241438699        3.36801993318983
H            0.91483248189933        4.70680325598341        2.16490914667234
H            1.87009140351425        4.61248785914740       -0.12309474588147
H            2.31348168262967        2.43459170762976       -1.16794265136102
H           -1.53340452955665       -2.32123250873143       -0.12753631135903
H           -2.49156357493824       -4.40143313527698        0.73132020715613
H           -4.92400020971501       -4.55312457253638        1.18853418133630
H           -6.35859832625273       -2.57722047897156        0.79468170052391
H           -6.35026778120297        2.56192963728195        0.87782823247157
H           -4.90927697877572        4.51926549109017        1.33584231021208
H           -2.47713043255293        4.37430562702291        0.87445153054713
H           -1.52573315072327        2.32017317996330       -0.05131963686727

 projected vibrational frequencies (cm⁻¹)
eigval :       -0.00    -0.00     0.00     0.00     0.00     0.00
eigval :       11.11    17.82    22.71    28.12    33.49    36.76
eigval :       41.73    58.91    59.98    77.08    94.65   102.44
eigval :      110.42   112.02   137.74   141.72   151.87   165.59
eigval :      188.15   197.13   207.19   231.77   243.96   246.29
eigval :      271.38   275.67   278.08   300.42   307.85   325.81
eigval :      333.21   348.52   349.80   352.41   362.85   366.36
eigval :      399.07   415.20   417.21   417.41   423.21   423.50
eigval :      436.88   445.42   450.72   469.82   471.61   487.03
eigval :      489.03   495.37   499.95   504.36   510.28   519.93
eigval :      531.37   565.39   581.22   589.03   592.04   613.31
eigval :      619.50   635.87   638.95   643.16   657.90   658.65
eigval :      669.76   677.33   680.92   682.78   690.24   701.29
eigval :      701.48   709.26   713.98   732.92   737.16   762.15
eigval :      771.38   775.05   777.75   778.04   785.27   792.71
eigval :      809.24   820.83   823.30   838.03   852.01   853.45
eigval :      876.74   876.79   879.61   880.53   881.96   894.13
eigval :      897.55   901.07   911.63   913.10   913.47   914.57
eigval :      915.29   919.40   923.25   923.41   925.65   926.67
eigval :      955.06   959.09  1011.46  1034.73  1037.65  1043.33
eigval :     1050.18  1068.61  1097.03  1097.28  1098.02  1099.31
eigval :     1100.34  1103.91  1122.97  1131.30  1145.63  1148.97
eigval :     1150.67  1157.88  1161.09  1162.73  1177.47  1177.49
eigval :     1178.99  1179.25  1180.26  1192.10  1194.85  1197.41
eigval :     1210.58  1211.52  1222.50  1224.37  1243.93  1248.51
eigval :     1252.51  1254.58  1255.36  1267.72  1272.92  1293.39
eigval :     1318.32  1322.33  1322.83  1326.93  1329.28  1350.18
eigval :     1361.18  1385.39  1389.19  1401.08  1408.19  1412.61
eigval :     1417.79  1441.33  1446.82  1450.47  1457.59  1457.87
eigval :     1460.57  1464.12  1489.56  1544.53  1566.01  1567.49
eigval :     1575.73  1578.16  1579.94  1580.28  1582.75  1587.95
eigval :     1589.36  1593.00  1608.43  1634.02  3063.14  3074.47
eigval :     3078.73  3079.04  3079.94  3081.56  3081.80  3084.06
eigval :     3084.65  3084.77  3084.85  3085.00  3087.42  3088.14
eigval :     3091.95  3092.27  3092.76  3092.84  3093.45  3095.08
eigval :     3099.59  3099.81  3100.30  3100.63  3134.35  3135.64

   temp. (K)  partition function   enthalpy   heat capacity  entropy
                                   cal/mol     cal/K/mol   cal/K/mol   J/K/mol
 298.15  VIB  0.141E+16            20592.987    134.450    125.156
         ROT  0.465E+08              888.752      2.981     38.067
         INT  0.657E+23            21481.740    137.431    163.223
         TR   0.149E+29             1481.254      4.968     45.130
         TOT                       22962.9935   142.3994   208.3532   871.7500

       T/K    H(0)-H(T)+PV         H(T)/Eh          T*S/Eh         G(T)/Eh
   ------------------------------------------------------------------------
    298.15    0.365939E-01    0.572749E+00    0.989954E-01    0.473754E+00
   ------------------------------------------------------------------------

         :::::::::::::::::::::::::::::::::::::::::::::::::::::
         ::                  THERMODYNAMIC                  ::
         :::::::::::::::::::::::::::::::::::::::::::::::::::::
         :: total free energy        -113.423021586478 Eh   ::
         ::.................................................::
         :: total energy             -113.896775350137 Eh   ::
         :: zero point energy           0.536155254474 Eh   ::
         :: G(RRHO) w/o ZPVE           -0.062401490814 Eh   ::
         :: G(RRHO) contrib.            0.473753763660 Eh   ::
         :::::::::::::::::::::::::::::::::::::::::::::::::::::

           -------------------------------------------------
          | TOTAL ENERGY             -113.896775350137 Eh   |
          | TOTAL ENTHALPY           -113.324026236158 Eh   |
          | TOTAL FREE ENERGY        -113.423021586478 Eh   |
          | GRADIENT NORM               0.000053414313 Eh/α |
           -------------------------------------------------

 * finished run on 2025/09/08 at 21:54:35.224
