   * xtb version 6.7.1 (edcfbbe) compiled by 'albert@albert-system' on 2024-07-22

   ID    Z sym.   atoms
    1    6 C      1-26, 28-39, 41-46
    2   16 S      27, 40
    3    1 H      47-72

          program call               : xtb data2507/gas/thio-ether/thio-ether_gas_T1_crest.xyz --gfn 2 --spinpol --tblite --uhf 2 --ohess vtight --parallel 40 --molden --ceasefiles --namespace data2507/gas/thio-ether/thio-ether_gas_T1_finalOpt
 * total energy  :  -113.8967283 Eh     change       -0.1981562E-08 Eh
 * total energy  :  -113.8967589 Eh     change       -0.3059350E-04 Eh
 * total energy  :  -113.8967669 Eh     change       -0.8005897E-05 Eh
 * total energy  :  -113.8967681 Eh     change       -0.1289941E-05 Eh
 * total energy  :  -113.8967699 Eh     change       -0.1755558E-05 Eh
 * total energy  :  -113.8967711 Eh     change       -0.1200545E-05 Eh
 * total energy  :  -113.8967719 Eh     change       -0.8270704E-06 Eh
 * total energy  :  -113.8967723 Eh     change       -0.3741837E-06 Eh
 * total energy  :  -113.8967727 Eh     change       -0.4141728E-06 Eh
 * total energy  :  -113.8967734 Eh     change       -0.7080360E-06 Eh
 * total energy  :  -113.8967755 Eh     change       -0.3085742E-06 Eh
 * total energy  :  -113.8967758 Eh     change       -0.2748318E-06 Eh
 * total energy  :  -113.8967761 Eh     change       -0.2880795E-06 Eh
 * total energy  :  -113.8967764 Eh     change       -0.2683860E-06 Eh
 * total energy  :  -113.8967766 Eh     change       -0.1715019E-06 Eh
 * total energy  :  -113.8967767 Eh     change       -0.1264960E-06 Eh
 * total energy  :  -113.8967769 Eh     change       -0.1871451E-06 Eh
 * total energy  :  -113.8967770 Eh     change       -0.1219726E-06 Eh
 * total energy  :  -113.8967770 Eh     change       -0.1075767E-07 Eh
   *** GEOMETRY OPTIMIZATION CONVERGED AFTER 22 ITERATIONS ***

 final structure:
================
72
 xtb: 6.7.1 (edcfbbe)
C           -2.24756533702828       -0.01995173494781       -3.18568597163197
C           -3.14430455935231       -0.01458948331435       -2.19397453267175
C           -2.78449384081991       -0.00365062621852       -0.72615850337746
C           -1.31044052753226        0.00278840045257       -0.48256930123829
C           -0.42009276978892       -0.00457102203597       -1.49604728866377
C           -0.84594757423210       -0.01614734221274       -2.90173403557322
C            0.25868269087705       -0.02213146564230       -3.68927049937815
C            1.43521129358671       -0.01617953280100       -2.84067468277390
C            1.00027426480484       -0.00480261883900       -1.50187775528043
C            1.90269895120121        0.00338814491622       -0.30054548588575
C            3.32500236038123       -0.00812344691808       -0.76697299090126
C            4.50295768620056       -0.01001525603617        0.04099223919199
C            4.69378069628357       -0.00229397351170        1.41076141438916
C            5.99828624893066       -0.00831925740083        1.90108779353443
C            7.08588510265681       -0.02170122014749        1.04339658041501
C            6.91200101676667       -0.02909882229620       -0.33959347670311
C            5.62473281028909       -0.02313363914759       -0.84638137082963
C            5.12451901379010       -0.02837937032487       -2.18309972520919
C            3.71987443050147       -0.01953629313269       -2.13203896923955
C            2.77788703873562       -0.02263836874459       -3.18453167325878
C            1.63557401148958       -1.27987380088597        0.46960469245015
C            1.87661211245394       -2.47066286335239       -0.21180956000075
C            1.62132875236748       -3.69962697763238        0.36260855518224
C            1.10752360758909       -3.76356663149061        1.64868363810184
C            0.86542021154743       -2.59716576121071        2.34174789421754
C            1.13032942529857       -1.35954657401571        1.75893861786233
S            0.77146306322934        0.04147885609445        2.77002062429271
C            1.14448612952341        1.41714114191153        1.72972986573419
C            0.89308269951636        2.66938874547143        2.28675232791673
C            1.14744160760870        3.81851059405759        1.56964440052952
C            1.65983230946908        3.72239368193670        0.28500342915140
C            1.90165936343889        2.47913195468888       -0.26383659227146
C            1.64840142164809        1.30537428364351        0.44228583247831
C           -3.38486217800741       -1.25839998208050       -0.10368007021999
C           -2.58296924912871       -2.36563617514177        0.14921383865634
C           -3.11649894755312       -3.53513081130776        0.65838859463344
C           -4.47373987455288       -3.62209578045789        0.92060903564998
C           -5.28611524048326       -2.53252725691739        0.67892813758757
C           -4.74383631845473       -1.35840140417862        0.17113737776624
S           -5.85437381627594       -0.01134087798459       -0.11082018768396
C           -4.75426982631094        1.34804324400183        0.15233162502126
C           -5.30569475953849        2.52511845806283        0.64312879568400
C           -4.50159710575902        3.62392843882962        0.87015033271381
C           -3.14343729287984        3.54327169533741        0.61061134570424
C           -2.60084410671199        2.37081652652766        0.11808871707140
C           -3.39440964850278        1.25441249782629       -0.12031013293169
H           -2.56807578785036       -0.02781346581393       -4.21825233675081
H           -4.20320541407400       -0.01808585322009       -2.40767265216726
H           -1.00663540903316        0.01175796752979        0.55367829157160
H            0.29057948412048       -0.03080665225920       -4.76361531188146
H            3.85611509456313        0.00798497910129        2.09187281113441
H            6.16215575606055       -0.00255846288616        2.96857345519804
H            8.08568755119526       -0.02644874981707        1.45198359105491
H            7.76713928328945       -0.03948136795543       -0.99969512834056
H            5.72230241412357       -0.03785920739325       -3.07613888740625
H            3.10243868908207       -0.03140739849864       -4.21338586780914
H            2.26667553693806       -2.41821027126254       -1.21778872714676
H            1.81791618510958       -4.60425672862734       -0.19231666370001
H            0.89698838355572       -4.71696730600596        2.10895764589013
H            0.46461486241657       -2.62187344033605        3.34415560756539
H            0.49312717777386        2.71918596082802        3.28857594893060
H            0.94753821284471        4.78348350566703        2.01012209304925
H            1.86593288706807        4.61315324659456       -0.28859096627283
H            2.29073085607836        2.40176632783590       -1.26856299526113
H           -1.52641246007707       -2.31519221429865       -0.07081901339582
H           -2.46887700245150       -4.37880532230149        0.84278153823732
H           -4.89853242297430       -4.53316936254231        1.31387589695298
H           -6.34623613530640       -2.57574390764566        0.87769526387283
H           -6.36629655877472        2.56330154726167        0.84035667478221
H           -4.93354864197225        4.53731291283189        1.25003087378278
H           -2.50230157054042        4.39422157407401        0.78393956310486
H           -1.54373332633705        2.32490399171201       -0.10046614260712

 projected vibrational frequencies (cm⁻¹)
eigval :       -0.00    -0.00    -0.00     0.00     0.00     0.00
eigval :       11.22    17.91    21.57    28.26    33.71    36.55
eigval :       41.76    58.83    59.94    77.19    94.51   102.47
eigval :      110.57   112.20   137.37   141.72   151.81   165.62
eigval :      188.23   197.20   207.17   231.79   244.02   245.99
eigval :      271.47   275.70   278.24   300.40   307.82   325.77
eigval :      333.23   348.49   349.96   352.41   362.80   366.30
eigval :      399.21   415.20   417.20   417.29   423.26   423.58
eigval :      437.02   445.24   450.64   469.86   471.69   486.90
eigval :      488.91   495.33   500.04   504.30   510.25   519.83
eigval :      531.15   565.33   581.12   588.99   591.88   613.43
eigval :      619.49   635.89   638.97   643.17   657.95   658.42
eigval :      669.77   677.27   680.98   682.81   690.28   701.17
eigval :      701.35   709.08   713.69   732.89   737.19   762.16
eigval :      771.35   775.01   777.75   778.09   785.31   792.72
eigval :      809.30   820.75   823.55   837.99   851.96   853.41
eigval :      876.71   876.78   879.61   880.55   881.99   894.15
eigval :      897.63   901.15   911.65   913.13   913.50   914.59
eigval :      915.30   919.43   923.20   923.38   925.63   926.68
eigval :      955.33   958.54  1011.74  1034.71  1037.43  1043.41
eigval :     1050.09  1068.66  1096.99  1097.37  1098.18  1099.42
eigval :     1100.52  1103.97  1122.73  1131.37  1145.58  1148.88
eigval :     1150.58  1157.78  1161.13  1162.74  1177.21  1177.25
eigval :     1178.77  1179.07  1180.00  1191.94  1194.72  1197.34
eigval :     1210.53  1211.42  1222.49  1224.36  1243.90  1248.50
eigval :     1252.44  1254.61  1255.35  1267.83  1272.73  1293.67
eigval :     1318.33  1322.37  1322.86  1326.90  1328.94  1350.11
eigval :     1361.02  1385.28  1389.47  1400.86  1407.90  1412.41
eigval :     1417.49  1441.20  1446.44  1450.30  1457.30  1457.62
eigval :     1460.31  1463.93  1489.33  1544.58  1566.01  1567.45
eigval :     1575.68  1578.17  1579.85  1580.22  1582.67  1587.91
eigval :     1589.31  1592.52  1608.54  1633.95  3063.14  3074.39
eigval :     3078.62  3079.09  3080.03  3081.51  3081.75  3084.04
eigval :     3084.68  3084.76  3084.82  3084.97  3087.02  3087.65
eigval :     3092.04  3092.35  3092.88  3092.95  3093.64  3095.33
eigval :     3099.45  3099.81  3100.28  3100.69  3134.25  3135.73

   temp. (K)  partition function   enthalpy   heat capacity  entropy
                                   cal/mol     cal/K/mol   cal/K/mol   J/K/mol
 298.15  VIB  0.145E+16            20594.623    134.449    125.179
         ROT  0.465E+08              888.752      2.981     38.067
         INT  0.676E+23            21483.375    137.430    163.245
         TR   0.149E+29             1481.254      4.968     45.130
         TOT                       22964.6289   142.3983   208.3758   871.8443

       T/K    H(0)-H(T)+PV         H(T)/Eh          T*S/Eh         G(T)/Eh
   ------------------------------------------------------------------------
    298.15    0.365965E-01    0.572734E+00    0.990061E-01    0.473728E+00
   ------------------------------------------------------------------------

         :::::::::::::::::::::::::::::::::::::::::::::::::::::
         ::                  THERMODYNAMIC                  ::
         :::::::::::::::::::::::::::::::::::::::::::::::::::::
         :: total free energy        -113.423049296852 Eh   ::
         ::.................................................::
         :: total energy             -113.896776999874 Eh   ::
         :: zero point energy           0.536137299102 Eh   ::
         :: G(RRHO) w/o ZPVE           -0.062409596081 Eh   ::
         :: G(RRHO) contrib.            0.473727703022 Eh   ::
         :::::::::::::::::::::::::::::::::::::::::::::::::::::

           -------------------------------------------------
          | TOTAL ENERGY             -113.896776999874 Eh   |
          | TOTAL ENTHALPY           -113.324043235232 Eh   |
          | TOTAL FREE ENERGY        -113.423049296852 Eh   |
          | GRADIENT NORM               0.000044629655 Eh/α |
           -------------------------------------------------

 * finished run on 2025/09/08 at 21:58:40.410
