   * xtb version 6.7.1 (edcfbbe) compiled by 'albert@albert-system' on 2024-07-22

   ID    Z sym.   atoms
    1    7 N      1, 21
    2    6 C      2-20, 22-35, 37-45
    3    8 O      36
    4    1 H      46-69

          program call               : xtb data2507/toluene/PO-ABN/PO-ABN_toluene_S0_finalOpt.xtbopt.xyz --gfn 2 --uhf 2 --gbsa toluene --ohess vtight --parallel 40 --molden --ceasefiles --namespace data2507/toluene/PO-ABN/PO-ABN_toluene_T1_preOpt
      * Solvation model:               GBSA
        Solvent                        toluene
        Solvent mass                       9.2140E+01 g/mol
          :  Hamiltonian                  GFN2-xTB          :
 * total energy  :  -112.0667406 Eh     change       -0.1522679E-08 Eh
 * total energy  :  -112.0725456 Eh     change       -0.5804997E-02 Eh
 * total energy  :  -112.0739823 Eh     change       -0.1436729E-02 Eh
 * total energy  :  -112.0741637 Eh     change       -0.1813632E-03 Eh
 * total energy  :  -112.0743968 Eh     change       -0.2331311E-03 Eh
 * total energy  :  -112.0745351 Eh     change       -0.1383369E-03 Eh
 * total energy  :  -112.0747266 Eh     change       -0.1914383E-03 Eh
 * total energy  :  -112.0749831 Eh     change       -0.2564861E-03 Eh
 * total energy  :  -112.0752078 Eh     change       -0.2247438E-03 Eh
 * total energy  :  -112.0753662 Eh     change       -0.1583946E-03 Eh
 * total energy  :  -112.0764496 Eh     change       -0.8991007E-06 Eh
 * total energy  :  -112.0764503 Eh     change       -0.6538503E-06 Eh
 * total energy  :  -112.0764509 Eh     change       -0.5989534E-06 Eh
 * total energy  :  -112.0764515 Eh     change       -0.6041728E-06 Eh
 * total energy  :  -112.0764520 Eh     change       -0.4906077E-06 Eh
 * total energy  :  -112.0764524 Eh     change       -0.4090762E-06 Eh
 * total energy  :  -112.0764527 Eh     change       -0.3767339E-06 Eh
 * total energy  :  -112.0764531 Eh     change       -0.4037755E-06 Eh
 * total energy  :  -112.0764532 Eh     change       -0.2470131E-08 Eh
   *** GEOMETRY OPTIMIZATION CONVERGED AFTER 94 ITERATIONS ***

 final structure:
================
69
 xtb: 6.7.1 (edcfbbe)
N          -10.64284240303431       -2.69405803975964        0.29705907381021
C           -9.59507208866600       -2.22116785322818        0.23900022597783
C           -8.31701462271408       -1.64221542872183        0.16949212186502
C           -7.78205111369134       -1.25369434414673       -1.06688465659254
C           -6.52814310016490       -0.69541769818732       -1.13019784610788
C           -5.76590545204180       -0.48019285735260        0.03166562529618
C           -4.44925511381450        0.12353294444031       -0.04132984286526
C           -4.12808960182870        1.24889688722448        0.78489465960941
C           -5.08190874017851        1.86179598402264        1.60242842362195
C           -4.74318548142799        2.89979339007334        2.46772476180642
C           -3.43808941521990        3.34220665533826        2.52951435622787
C           -2.48388635570170        2.80092544284374        1.67306833049547
C           -2.81197418148393        1.80103754132689        0.75017124140573
C           -1.86467313385165        1.32255094173130       -0.20333553038322
C           -0.54584594253101        1.94667411730867       -0.29785275265596
C           -0.41775395291714        3.32306619588808       -0.52588379031060
C            0.82957159797300        3.90984946711855       -0.63145490705674
C            1.97807011618483        3.14859237470506       -0.50871265811715
C            1.86964639122008        1.77600432227711       -0.27412467058917
C            3.04997025019076        0.95285474323958       -0.13417237751837
N            3.06540547167396       -0.32325578713469        0.12858399900745
C            4.38842042788538       -0.66527514462713        0.16694414442601
C            5.00890925879631       -1.92137313827682        0.42079032269992
C            4.25636286613693       -3.06903944742435        0.69069771922073
C            4.88191451952636       -4.26605756727013        0.93938152754532
C            6.27398526811333       -4.32790216406288        0.91950928711423
C            7.02462768818001       -3.20605106615896        0.65367239127522
C            6.42505494204889       -1.96337015367305        0.39434052329106
C            7.20071694609164       -0.76650756390326        0.11202313027501
C            8.60296912332772       -0.76482818720917        0.06546414882385
C            9.31709177630006        0.38016628989685       -0.20390807565205
C            8.66497646900376        1.58887062111686       -0.44210008424254
C            7.29369849239396        1.63359478448863       -0.40623579659518
C            6.55605056002325        0.47402708527285       -0.13382160400781
C            5.14130734772320        0.46839092375470       -0.08941205044141
O            4.28543048324225        1.50187891509737       -0.28020922489375
C            0.61375799569456        1.18388057694206       -0.17323271065081
C           -2.20096801072344        0.24017811019956       -1.07016532939272
C           -1.32283994896324       -0.20822344731251       -2.06357712785844
C           -1.60946451073631       -1.32996178847965       -2.83595958827422
C           -2.77737773814882       -2.03110669994884       -2.61902720829818
C           -3.69753975748685       -1.56873216586742       -1.68082724886270
C           -3.46873671770805       -0.40388641386386       -0.94278008993350
C           -6.32017288920780       -0.86764827669625        1.26442761469308
C           -7.56438722804741       -1.44657459834061        1.33605588743169
H           -8.36748255345906       -1.39235789894282       -1.96449932051610
H           -6.13492339644331       -0.37272427388518       -2.08294123950527
H           -6.10895044501447        1.53371749179848        1.56195866742653
H           -5.50451178621715        3.34186182782461        3.09278127908944
H           -3.15330735030593        4.11838408089890        3.22403333077446
H           -1.46760361265966        3.15956938688344        1.72521380389880
H           -1.30824244470259        3.92200544955899       -0.64689862133790
H            0.90787925091900        4.97099822458689       -0.81684003773530
H            2.95415917836887        3.60183248321129       -0.58966872002060
H            3.18064334492114       -2.98014746384237        0.69792587451283
H            4.30321290995084       -5.15325530404116        1.14916914327958
H            6.77013462401260       -5.26732091642351        1.11547662194862
H            8.09852736342599       -3.29979938953476        0.64897045483459
H            9.14909322047044       -1.67704075904507        0.24245796003230
H           10.39615864438865        0.34209241175776       -0.23186127447086
H            9.23590000951871        2.48079953392649       -0.65263920844735
H            6.75886815760934        2.55458653844981       -0.58715524700883
H            0.55695196941873        0.12625422951813        0.03189807227309
H           -0.40112118466836        0.32505297543644       -2.23676045064234
H           -0.90516944377867       -1.65362170081061       -3.58768962120344
H           -2.99228477710388       -2.92911055265822       -3.17861439240270
H           -4.60245975490685       -2.13347368733034       -1.51858281591230
H           -5.73449019206651       -0.74791264563279        2.16386715252812
H           -7.97053156104321       -1.76033491285076        2.28704682383111

          :  Hamiltonian                  GFN2-xTB          :
         :: gradient norm              0.000061747134 Eh/a0 ::
         :: HOMO-LUMO gap              0.564868234815 eV    ::
         :: SCC energy              -114.177648991910 Eh    ::
         :: -> dispersion             -0.097231569457 Eh    ::
         :: -> Gsolv                  -0.051990153184 Eh    ::
         :: repulsion energy           2.101195839495 Eh    ::

    * Orbital Energies and Occupations

         #    Occupation            Energy/Eh            Energy/eV
      -------------------------------------------------------------
         1        2.0000           -0.7564895             -20.5851
       ...           ...                  ...                  ...
        93        2.0000           -0.4204904             -11.4421
        94        2.0000           -0.4199612             -11.4277
        95        2.0000           -0.4148568             -11.2888
        96        2.0000           -0.4125245             -11.2254
        97        2.0000           -0.4106734             -11.1750
        98        2.0000           -0.4082207             -11.1083
        99        2.0000           -0.4055433             -11.0354
       100        2.0000           -0.4047710             -11.0144
       101        2.0000           -0.4011002             -10.9145
       102        2.0000           -0.3931510             -10.6982
       103        2.0000           -0.3782130             -10.2917
       104        1.0000           -0.3587966              -9.7634
       105        1.0000           -0.2992774              -8.1438 (HOMO)
       106        0.0000           -0.2785188              -7.5789 (LUMO)
       107                         -0.2669389              -7.2638
       108                         -0.2598129              -7.0699
       109                         -0.2528260              -6.8797
       110                         -0.2368572              -6.4452
       111                         -0.2365656              -6.4373
       112                         -0.2343736              -6.3776
       113                         -0.2298830              -6.2554
       114                         -0.2177543              -5.9254
       115                         -0.2064409              -5.6175
       116                         -0.1987182              -5.4074
       ...                                ...                  ...
       204                          1.1614836              31.6056
      -------------------------------------------------------------
                  HL-Gap            0.0207586 Eh            0.5649 eV

     #   Z          covCN         q      C6AA      α(0)
     1   7 N        0.911    -0.296    27.625     7.602
     2   6 C        1.911     0.113    28.304     8.592
     3   6 C        2.972     0.006    27.872     8.660
     4   6 C        2.921    -0.022    28.559     8.764
     5   6 C        2.921    -0.030    28.745     8.792
     6   6 C        2.972     0.021    27.537     8.608
     7   6 C        2.971    -0.003    28.098     8.695
     8   6 C        2.976     0.011    27.771     8.644
     9   6 C        2.921    -0.033    28.831     8.805
    10   6 C        2.914    -0.029    28.725     8.789
    11   6 C        2.913    -0.027    28.682     8.782
    12   6 C        2.921    -0.034    28.847     8.808
    13   6 C        2.977     0.012    27.746     8.640
    14   6 C        2.973    -0.005    28.150     8.703
    15   6 C        2.972     0.021    27.525     8.606
    16   6 C        2.923    -0.029    28.726     8.789
    17   6 C        2.915    -0.027    28.682     8.782
    18   6 C        2.922    -0.031    28.778     8.797
    19   6 C        2.972    -0.007    28.196     8.710
    20   6 C        3.226     0.217    22.785     7.756
    21   7 N        1.882    -0.316    29.054     7.991
    22   6 C        3.163     0.056    26.418     8.401
    23   6 C        2.985    -0.003    28.096     8.695
    24   6 C        2.920    -0.030    28.753     8.793
    25   6 C        2.917    -0.029    28.721     8.788
    26   6 C        2.917    -0.030    28.757     8.794
    27   6 C        2.921    -0.034    28.835     8.806
    28   6 C        2.978    -0.002    28.069     8.691
    29   6 C        2.980     0.001    27.996     8.679
    30   6 C        2.921    -0.032    28.804     8.801
    31   6 C        2.917    -0.030    28.746     8.792
    32   6 C        2.917    -0.029    28.721     8.788
    33   6 C        2.919    -0.032    28.787     8.798
    34   6 C        2.982    -0.010    28.249     8.718
    35   6 C        3.111     0.103    25.577     8.285
    36   8 O        1.724    -0.231    17.825     5.700
    37   6 C        2.930    -0.031    28.783     8.798
    38   6 C        2.977     0.012    27.745     8.640
    39   6 C        2.921    -0.033    28.823     8.804
    40   6 C        2.913    -0.027    28.664     8.779
    41   6 C        2.914    -0.029    28.715     8.787
    42   6 C        2.921    -0.033    28.823     8.804
    43   6 C        2.977     0.011    27.768     8.644
    44   6 C        2.921    -0.030    28.746     8.792
    45   6 C        2.921    -0.022    28.557     8.763
    46   1 H        0.926     0.037     2.485     2.465
    47   1 H        0.926     0.046     2.376     2.411
    48   1 H        0.926     0.041     2.440     2.442
    49   1 H        0.926     0.037     2.487     2.466
    50   1 H        0.926     0.038     2.480     2.463
    51   1 H        0.926     0.040     2.445     2.445
    52   1 H        0.926     0.048     2.340     2.392
    53   1 H        0.926     0.046     2.372     2.408
    54   1 H        0.926     0.043     2.411     2.428
    55   1 H        0.926     0.047     2.356     2.400
    56   1 H        0.926     0.039     2.455     2.450
    57   1 H        0.926     0.040     2.454     2.450
    58   1 H        0.926     0.043     2.412     2.429
    59   1 H        0.926     0.045     2.379     2.412
    60   1 H        0.926     0.041     2.434     2.440
    61   1 H        0.926     0.040     2.452     2.449
    62   1 H        0.926     0.038     2.473     2.459
    63   1 H        0.926     0.056     2.252     2.347
    64   1 H        0.926     0.039     2.466     2.456
    65   1 H        0.926     0.037     2.490     2.467
    66   1 H        0.926     0.038     2.479     2.462
    67   1 H        0.926     0.041     2.433     2.439
    68   1 H        0.926     0.046     2.375     2.410
    69   1 H        0.926     0.037     2.485     2.465

molecular dipole:
                 x           y           z       tot (Debye)
 q only:        2.304       1.110      -0.151
   full:        2.961       1.525      -0.230       8.485

 projected vibrational frequencies (cm⁻¹)
eigval :       -0.00    -0.00    -0.00     0.00     0.00     0.00
eigval :        7.67    10.78    14.36    28.03    36.83    47.68
eigval :       54.78    63.08    71.32    79.68    81.43    89.83
eigval :      114.97   119.79   125.33   131.93   141.12   179.38
eigval :      179.56   190.24   207.67   217.94   229.96   239.73
eigval :      248.94   250.11   272.65   278.86   287.00   340.83
eigval :      352.18   360.53   370.72   388.10   392.52   394.22
eigval :      398.78   400.57   417.05   419.57   429.11   438.01
eigval :      439.76   449.30   467.34   471.77   502.38   511.81
eigval :      527.65   532.07   534.79   539.91   570.95   582.14
eigval :      582.93   589.42   599.41   603.57   608.97   621.65
eigval :      640.06   655.12   661.91   665.97   669.50   674.84
eigval :      680.41   684.80   694.37   703.53   719.91   736.88
eigval :      738.47   746.47   760.13   766.76   770.13   783.37
eigval :      785.32   795.38   817.07   844.78   848.19   864.65
eigval :      867.48   875.80   886.80   891.41   892.99   899.47
eigval :      904.84   906.19   908.31   908.97   915.40   915.45
eigval :      920.34   925.45   927.71   928.29   929.18   937.76
eigval :      940.11   944.97   975.67   990.85  1008.98  1017.17
eigval :     1051.94  1080.20  1092.72  1098.57  1101.51  1103.62
eigval :     1114.16  1122.92  1128.21  1133.93  1140.85  1156.39
eigval :     1174.75  1178.91  1179.61  1180.49  1181.80  1183.06
eigval :     1186.59  1194.11  1207.85  1229.02  1242.34  1244.41
eigval :     1251.14  1252.44  1255.83  1262.20  1272.94  1276.30
eigval :     1279.82  1299.90  1303.07  1309.03  1310.26  1320.55
eigval :     1334.25  1341.11  1342.03  1357.31  1366.26  1375.81
eigval :     1400.32  1404.60  1406.48  1407.54  1417.16  1418.80
eigval :     1428.79  1431.55  1443.21  1457.22  1475.93  1488.40
eigval :     1497.47  1513.37  1515.45  1522.21  1526.19  1539.82
eigval :     1547.59  1550.99  1561.38  1562.50  1568.13  1574.52
eigval :     1592.76  1603.55  2324.01  3075.09  3075.91  3076.51
eigval :     3077.41  3078.33  3078.62  3078.99  3081.04  3084.70
eigval :     3086.41  3086.99  3088.88  3089.04  3090.62  3092.19
eigval :     3096.68  3097.24  3097.87  3098.89  3099.89  3101.17
eigval :     3102.84  3105.81  3112.68

   temp. (K)  partition function   enthalpy   heat capacity  entropy
                                   cal/mol     cal/K/mol   cal/K/mol   J/K/mol
 298.15  VIB  0.225E+16            19958.756    128.462    123.888
         ROT  0.808E+08              888.752      2.981     39.165
         INT  0.182E+24            20847.508    131.443    163.053
         TR   0.133E+29             1481.254      4.968     44.899
         TOT                       22328.7623   136.4114   207.9524   870.0728

       T/K    H(0)-H(T)+PV         H(T)/Eh          T*S/Eh         G(T)/Eh
   ------------------------------------------------------------------------
    298.15    0.355831E-01    0.548896E+00    0.988049E-01    0.450091E+00
   ------------------------------------------------------------------------

         :::::::::::::::::::::::::::::::::::::::::::::::::::::
         ::                  THERMODYNAMIC                  ::
         :::::::::::::::::::::::::::::::::::::::::::::::::::::
         :: total free energy        -111.626362274593 Eh   ::
         ::.................................................::
         :: total energy             -112.076453153349 Eh   ::
         :: zero point energy           0.513312619984 Eh   ::
         :: G(RRHO) w/o ZPVE           -0.063221741228 Eh   ::
         :: G(RRHO) contrib.            0.450090878756 Eh   ::
         :::::::::::::::::::::::::::::::::::::::::::::::::::::

           -------------------------------------------------
          | TOTAL ENERGY             -112.076453153349 Eh   |
          | TOTAL ENTHALPY           -111.527557385721 Eh   |
          | TOTAL FREE ENERGY        -111.626362274593 Eh   |
          | GRADIENT NORM               0.000061805531 Eh/α |
          | HOMO-LUMO GAP               0.564869176503 eV   |
           -------------------------------------------------

 * finished run on 2025/09/02 at 19:24:06.057
