   * xtb version 6.7.1 (edcfbbe) compiled by 'albert@albert-system' on 2024-07-22

   ID    Z sym.   atoms
    1    7 N      1, 21
    2    6 C      2-20, 22-35, 37-45
    3    8 O      36
    4    1 H      46-69

          program call               : xtb data2507/toluene/PO-ABN/PO-ABN_toluene_T1_crest.xyz --gfn 2 --uhf 2 --gbsa toluene --ohess vtight --parallel 40 --molden --ceasefiles --namespace data2507/toluene/PO-ABN/PO-ABN_toluene_T1_finalOpt
      * Solvation model:               GBSA
        Solvent                        toluene
        Solvent mass                       9.2140E+01 g/mol
          :  Hamiltonian                  GFN2-xTB          :
 * total energy  :  -112.0765023 Eh     change       -0.9427765E-08 Eh
 * total energy  :  -112.0765365 Eh     change       -0.3415179E-04 Eh
 * total energy  :  -112.0765453 Eh     change       -0.8822080E-05 Eh
 * total energy  :  -112.0765487 Eh     change       -0.3394144E-05 Eh
 * total energy  :  -112.0765490 Eh     change       -0.3368500E-06 Eh
 * total energy  :  -112.0765531 Eh     change       -0.4109058E-05 Eh
 * total energy  :  -112.0765551 Eh     change       -0.1945733E-05 Eh
 * total energy  :  -112.0765577 Eh     change       -0.2631471E-05 Eh
 * total energy  :  -112.0765590 Eh     change       -0.1256912E-05 Eh
 * total energy  :  -112.0765598 Eh     change       -0.8929065E-06 Eh
 * total energy  :  -112.0765636 Eh     change       -0.1157911E-05 Eh
 * total energy  :  -112.0765647 Eh     change       -0.1105778E-05 Eh
 * total energy  :  -112.0765654 Eh     change       -0.6877571E-06 Eh
 * total energy  :  -112.0765659 Eh     change       -0.4857953E-06 Eh
 * total energy  :  -112.0765662 Eh     change       -0.3716531E-06 Eh
 * total energy  :  -112.0765666 Eh     change       -0.3317114E-06 Eh
 * total energy  :  -112.0765668 Eh     change       -0.2408155E-06 Eh
 * total energy  :  -112.0765671 Eh     change       -0.2441066E-06 Eh
 * total energy  :  -112.0765671 Eh     change       -0.9061210E-08 Eh
   *** GEOMETRY OPTIMIZATION CONVERGED AFTER 22 ITERATIONS ***

 final structure:
================
69
 xtb: 6.7.1 (edcfbbe)
N          -10.67120150403672       -2.63947744957008        0.58573001374838
C           -9.61952200415237       -2.18489848303180        0.47551910917500
C           -8.33659042756068       -1.62804779277122        0.34272310999021
C           -7.77404769748807       -1.44079050365286       -0.92773251468065
C           -6.51580574998087       -0.90271493780002       -1.05126482790618
C           -5.77682202842011       -0.50868091896124        0.07816491953710
C           -4.45687081454265        0.07603061131684       -0.06340439568795
C           -4.15029687744107        1.32098304752984        0.57490795289681
C           -5.11846062206590        2.05578075900327        1.26544154270605
C           -4.79538271942731        3.22260013048461        1.95457863773043
C           -3.49139443979271        3.67234737813645        1.96668354957068
C           -2.52222924058311        3.00119488826954        1.22685864495961
C           -2.83410911214714        1.86437492564074        0.47229027510234
C           -1.87083422713414        1.24188462064592       -0.37713346267500
C           -0.55779809456607        1.85744763365548       -0.56024214834067
C           -0.44508207641965        3.18385444786880       -0.99828420872808
C            0.79485134101348        3.76584801931050       -1.18399151654890
C            1.95209904755373        3.05010620906495       -0.93489955076447
C            1.85961557667824        1.72737933267432       -0.49615978416673
C            3.04981211940575        0.94909749139125       -0.23576689637469
N            3.08120845353570       -0.30706328096562        0.10899114981183
C            4.40821234508474       -0.61298914432632        0.22779246914534
C            5.04400990314208       -1.83909579820118        0.57343079591644
C            4.30544768040115       -2.99097101578795        0.86318625539624
C            4.94542577939749       -4.16127424149747        1.18999018212152
C            6.33810782253244       -4.19131913441548        1.23123707237709
C            7.07507783362716       -3.06451144417955        0.94851363600981
C            6.46051107798275       -1.84847722782716        0.61000487987823
C            7.22145065478059       -0.64723734506706        0.30691307802291
C            8.62369740109658       -0.61055262458711        0.33478457876734
C            9.32379329807023        0.53782496944731        0.04386333449854
C            8.65690016960726        1.71510770020998       -0.29107932475642
C            7.28501017699400        1.72499415063801       -0.33067064268089
C            6.56157298708673        0.56188790492805       -0.03609667958700
C            5.14693572624202        0.52179498116504       -0.06267081199447
O            4.27827045200351        1.51909315283663       -0.35902763469742
C            0.61101786794529        1.13941830958564       -0.31337428024187
C           -2.19026156020599        0.02897184623524       -1.05791954010046
C           -1.29532935488261       -0.57535282623777       -1.94834818495964
C           -1.56715821935132       -1.81194787765269       -2.52637536131116
C           -2.73842139567950       -2.47125167831868       -2.21636140833151
C           -3.67539657592563       -1.86169108160068       -1.38511388622262
C           -3.45952055277572       -0.58982512210721       -0.84687671078201
C           -6.35814960647665       -0.69574685151009        1.34446722731559
C           -7.60682266019369       -1.25355495830306        1.47967925383629
H           -8.34163138588471       -1.71818625285957       -1.80444592289249
H           -6.10040895132519       -0.73557173684699       -2.03407188466784
H           -6.14443344862878        1.72201705847328        1.26153509465722
H           -5.56773833909071        3.75911200084090        2.48500385937478
H           -3.21862814051105        4.55192349961018        2.53050029452370
H           -1.50678748891193        3.36579113591641        1.23907431377420
H           -1.34216441628766        3.74298077754388       -1.21952465741167
H            0.86094202953972        4.78641759162559       -1.53126109792975
H            2.92274251161607        3.49932502650466       -1.07869572478255
H            3.22878519258858       -2.92727893229691        0.81994623099883
H            4.37742704024430       -5.05199779372729        1.41362902298104
H            6.84553668785686       -5.11000810405047        1.48741214772374
H            8.14998922234278       -3.13336043627085        0.99181774683735
H            9.18103534703378       -1.49732722465609        0.58911301476032
H           10.40335716237622        0.52729894025487        0.07583702766689
H            9.21708608496376        2.60999727541129       -0.51731196104178
H            6.73898797092504        2.62134345113182       -0.58642203813252
H            0.56736161112852        0.12543747883081        0.05246749463562
H           -0.37163297909777       -0.07514285192652       -2.19405400009925
H           -0.84912346514954       -2.25405971051199       -3.20076977692370
H           -2.94257111679014       -3.45089852296508       -2.62166829734555
H           -4.58418661298637       -2.39308212074460       -1.14855332556320
H           -5.79074750463872       -0.43654583745319        2.22611345329136
H           -8.03450043354503       -1.41282577670078        2.45923331578916

          :  Hamiltonian                  GFN2-xTB          :
         :: gradient norm              0.000071324796 Eh/a0 ::
         :: HOMO-LUMO gap              0.563384953265 eV    ::
         :: SCC energy              -114.177742295103 Eh    ::
         :: -> dispersion             -0.097288246902 Eh    ::
         :: -> Gsolv                  -0.052029209716 Eh    ::
         :: repulsion energy           2.101175229846 Eh    ::

    * Orbital Energies and Occupations

         #    Occupation            Energy/Eh            Energy/eV
      -------------------------------------------------------------
         1        2.0000           -0.7564884             -20.5851
       ...           ...                  ...                  ...
        93        2.0000           -0.4204735             -11.4417
        94        2.0000           -0.4199851             -11.4284
        95        2.0000           -0.4148482             -11.2886
        96        2.0000           -0.4124706             -11.2239
        97        2.0000           -0.4106896             -11.1754
        98        2.0000           -0.4081414             -11.1061
        99        2.0000           -0.4055006             -11.0342
       100        2.0000           -0.4047171             -11.0129
       101        2.0000           -0.4011536             -10.9159
       102        2.0000           -0.3931585             -10.6984
       103        2.0000           -0.3782054             -10.2915
       104        1.0000           -0.3587010              -9.7608
       105        1.0000           -0.2992187              -8.1422 (HOMO)
       106        0.0000           -0.2785147              -7.5788 (LUMO)
       107                         -0.2669706              -7.2646
       108                         -0.2598218              -7.0701
       109                         -0.2528299              -6.8799
       110                         -0.2368502              -6.4450
       111                         -0.2365698              -6.4374
       112                         -0.2342903              -6.3754
       113                         -0.2298156              -6.2536
       114                         -0.2177673              -5.9257
       115                         -0.2064685              -5.6183
       116                         -0.1987307              -5.4077
       ...                                ...                  ...
       204                          1.1613828              31.6028
      -------------------------------------------------------------
                  HL-Gap            0.0207040 Eh            0.5634 eV

     #   Z          covCN         q      C6AA      α(0)
     1   7 N        0.911    -0.296    27.624     7.601
     2   6 C        1.911     0.113    28.303     8.592
     3   6 C        2.972     0.006    27.873     8.660
     4   6 C        2.921    -0.022    28.558     8.764
     5   6 C        2.921    -0.030    28.744     8.792
     6   6 C        2.972     0.021    27.536     8.607
     7   6 C        2.971    -0.003    28.100     8.695
     8   6 C        2.976     0.011    27.771     8.644
     9   6 C        2.921    -0.033    28.834     8.806
    10   6 C        2.914    -0.029    28.725     8.789
    11   6 C        2.913    -0.027    28.684     8.782
    12   6 C        2.921    -0.034    28.849     8.808
    13   6 C        2.977     0.012    27.748     8.641
    14   6 C        2.973    -0.005    28.153     8.703
    15   6 C        2.972     0.021    27.527     8.606
    16   6 C        2.924    -0.029    28.724     8.789
    17   6 C        2.915    -0.027    28.683     8.782
    18   6 C        2.922    -0.031    28.777     8.797
    19   6 C        2.972    -0.007    28.196     8.710
    20   6 C        3.226     0.217    22.785     7.755
    21   7 N        1.882    -0.316    29.053     7.990
    22   6 C        3.163     0.056    26.417     8.401
    23   6 C        2.985    -0.003    28.096     8.695
    24   6 C        2.920    -0.030    28.754     8.793
    25   6 C        2.917    -0.029    28.721     8.788
    26   6 C        2.917    -0.030    28.757     8.794
    27   6 C        2.921    -0.033    28.834     8.806
    28   6 C        2.978    -0.002    28.069     8.691
    29   6 C        2.980     0.001    27.996     8.679
    30   6 C        2.921    -0.032    28.804     8.801
    31   6 C        2.917    -0.030    28.746     8.792
    32   6 C        2.917    -0.029    28.721     8.788
    33   6 C        2.919    -0.032    28.787     8.798
    34   6 C        2.982    -0.010    28.249     8.718
    35   6 C        3.111     0.103    25.577     8.285
    36   8 O        1.724    -0.231    17.825     5.701
    37   6 C        2.930    -0.032    28.787     8.799
    38   6 C        2.977     0.012    27.744     8.640
    39   6 C        2.921    -0.033    28.823     8.804
    40   6 C        2.914    -0.026    28.662     8.779
    41   6 C        2.914    -0.029    28.716     8.787
    42   6 C        2.921    -0.033    28.822     8.804
    43   6 C        2.977     0.011    27.770     8.644
    44   6 C        2.921    -0.030    28.746     8.792
    45   6 C        2.921    -0.022    28.557     8.763
    46   1 H        0.926     0.037     2.485     2.465
    47   1 H        0.926     0.045     2.378     2.411
    48   1 H        0.926     0.041     2.441     2.443
    49   1 H        0.926     0.037     2.488     2.467
    50   1 H        0.926     0.038     2.481     2.463
    51   1 H        0.926     0.040     2.446     2.446
    52   1 H        0.926     0.048     2.340     2.392
    53   1 H        0.926     0.046     2.372     2.409
    54   1 H        0.926     0.043     2.412     2.429
    55   1 H        0.926     0.047     2.355     2.400
    56   1 H        0.926     0.040     2.455     2.450
    57   1 H        0.926     0.040     2.454     2.450
    58   1 H        0.926     0.043     2.413     2.429
    59   1 H        0.926     0.045     2.379     2.412
    60   1 H        0.926     0.041     2.434     2.440
    61   1 H        0.926     0.040     2.452     2.449
    62   1 H        0.926     0.038     2.473     2.459
    63   1 H        0.926     0.056     2.250     2.346
    64   1 H        0.926     0.039     2.457     2.451
    65   1 H        0.926     0.037     2.486     2.466
    66   1 H        0.926     0.038     2.479     2.462
    67   1 H        0.926     0.041     2.436     2.441
    68   1 H        0.926     0.046     2.376     2.410
    69   1 H        0.926     0.037     2.485     2.465

molecular dipole:
                 x           y           z       tot (Debye)
 q only:        2.317       1.064      -0.280
   full:        2.971       1.478      -0.380       8.488

 projected vibrational frequencies (cm⁻¹)
eigval :       -0.00    -0.00    -0.00     0.00     0.00     0.00
eigval :       10.50    11.63    16.30    26.92    38.27    48.07
eigval :       56.82    64.11    71.20    76.27    82.08    88.55
eigval :      114.86   119.05   127.66   134.95   141.18   179.86
eigval :      180.92   191.31   207.41   217.89   229.58   239.58
eigval :      248.89   251.22   273.63   279.02   287.92   339.69
eigval :      352.33   360.43   370.51   388.09   392.30   394.53
eigval :      398.77   400.20   417.25   419.17   428.35   438.44
eigval :      439.53   449.49   467.12   471.59   502.57   512.28
eigval :      527.81   533.55   534.59   540.10   570.83   581.92
eigval :      582.98   589.40   599.65   602.65   609.12   622.00
eigval :      640.23   655.03   661.79   665.56   668.57   674.84
eigval :      680.65   684.21   694.27   703.58   719.83   737.17
eigval :      738.36   746.99   760.67   765.80   770.08   782.84
eigval :      785.34   791.59   816.07   845.76   848.23   862.93
eigval :      866.86   875.35   885.28   891.33   892.84   898.96
eigval :      902.33   907.16   907.27   909.14   913.90   915.53
eigval :      920.56   923.53   925.21   926.30   927.37   934.46
eigval :      940.05   944.83   976.05   990.57  1009.54  1017.20
eigval :     1051.91  1080.15  1093.28  1098.54  1101.07  1103.37
eigval :     1113.90  1122.79  1129.04  1134.00  1140.98  1156.08
eigval :     1175.21  1178.50  1179.56  1180.10  1181.85  1182.77
eigval :     1188.39  1194.32  1207.94  1229.02  1241.94  1244.39
eigval :     1250.97  1252.40  1256.19  1262.82  1273.23  1276.41
eigval :     1279.99  1299.35  1303.36  1309.04  1310.21  1320.92
eigval :     1334.27  1341.07  1342.06  1357.21  1366.08  1375.77
eigval :     1400.37  1404.62  1406.47  1407.42  1417.00  1418.91
eigval :     1428.74  1431.61  1443.19  1457.56  1475.84  1488.40
eigval :     1497.85  1513.44  1515.41  1522.21  1526.17  1539.66
eigval :     1547.64  1550.85  1561.39  1562.44  1567.88  1574.52
eigval :     1592.79  1603.61  2324.18  3074.34  3075.66  3076.71
eigval :     3077.38  3078.20  3078.51  3078.74  3081.17  3084.48
eigval :     3086.41  3086.78  3088.57  3089.65  3090.37  3092.30
eigval :     3097.03  3097.31  3098.66  3099.04  3100.43  3102.16
eigval :     3102.97  3105.44  3112.84

   temp. (K)  partition function   enthalpy   heat capacity  entropy
                                   cal/mol     cal/K/mol   cal/K/mol   J/K/mol
 298.15  VIB  0.131E+16            19945.670    128.544    123.365
         ROT  0.807E+08              888.752      2.981     39.162
         INT  0.105E+24            20834.423    131.525    162.527
         TR   0.133E+29             1481.254      4.968     44.899
         TOT                       22315.6767   136.4935   207.4267   867.8733

       T/K    H(0)-H(T)+PV         H(T)/Eh          T*S/Eh         G(T)/Eh
   ------------------------------------------------------------------------
    298.15    0.355623E-01    0.548858E+00    0.985551E-01    0.450303E+00
   ------------------------------------------------------------------------

         :::::::::::::::::::::::::::::::::::::::::::::::::::::
         ::                  THERMODYNAMIC                  ::
         :::::::::::::::::::::::::::::::::::::::::::::::::::::
         :: total free energy        -111.626264558229 Eh   ::
         ::.................................................::
         :: total energy             -112.076567066053 Eh   ::
         :: zero point energy           0.513295332403 Eh   ::
         :: G(RRHO) w/o ZPVE           -0.062992824578 Eh   ::
         :: G(RRHO) contrib.            0.450302507825 Eh   ::
         :::::::::::::::::::::::::::::::::::::::::::::::::::::

           -------------------------------------------------
          | TOTAL ENERGY             -112.076567066053 Eh   |
          | TOTAL ENTHALPY           -111.527709439125 Eh   |
          | TOTAL FREE ENERGY        -111.626264558229 Eh   |
          | GRADIENT NORM               0.000071354623 Eh/α |
          | HOMO-LUMO GAP               0.563384616977 eV   |
           -------------------------------------------------

 * finished run on 2025/09/02 at 19:27:33.709
