   * xtb version 6.7.1 (edcfbbe) compiled by 'albert@albert-system' on 2024-07-22

   ID    Z sym.   atoms
    1    7 N      1, 21
    2    6 C      2-20, 22-35, 37-45
    3    8 O      36
    4    1 H      46-69

          program call               : xtb data2507/toluene/PO-ABN/PO-ABN_toluene_S0_crest.xyz --gfn 2 --gbsa toluene --ohess vtight --parallel 40 --molden --ceasefiles --namespace data2507/toluene/PO-ABN/PO-ABN_toluene_S0_finalOpt
      * Solvation model:               GBSA
        Solvent                        toluene
        Solvent mass                       9.2140E+01 g/mol
          :  Hamiltonian                  GFN2-xTB          :
 * total energy  :  -112.1441509 Eh     change       -0.7439809E-09 Eh
 * total energy  :  -112.1441789 Eh     change       -0.2801864E-04 Eh
 * total energy  :  -112.1441575 Eh     change        0.2138380E-04 Eh
 * total energy  :  -112.1441907 Eh     change       -0.3318330E-04 Eh
 * total energy  :  -112.1441942 Eh     change       -0.3497083E-05 Eh
 * total energy  :  -112.1442001 Eh     change       -0.5902287E-05 Eh
 * total energy  :  -112.1442049 Eh     change       -0.4842725E-05 Eh
 * total energy  :  -112.1442118 Eh     change       -0.6820048E-05 Eh
 * total energy  :  -112.1442174 Eh     change       -0.5615015E-05 Eh
 * total energy  :  -112.1442228 Eh     change       -0.5442344E-05 Eh
 * total energy  :  -112.1442632 Eh     change       -0.3561785E-06 Eh
 * total energy  :  -112.1442637 Eh     change       -0.4545365E-06 Eh
 * total energy  :  -112.1442640 Eh     change       -0.3658743E-06 Eh
 * total energy  :  -112.1442643 Eh     change       -0.2277241E-06 Eh
 * total energy  :  -112.1442644 Eh     change       -0.1693176E-06 Eh
 * total energy  :  -112.1442646 Eh     change       -0.1747381E-06 Eh
 * total energy  :  -112.1442648 Eh     change       -0.1799453E-06 Eh
 * total energy  :  -112.1442649 Eh     change       -0.1433818E-06 Eh
 * total energy  :  -112.1442650 Eh     change       -0.9421368E-07 Eh
   *** GEOMETRY OPTIMIZATION CONVERGED AFTER 33 ITERATIONS ***

 final structure:
================
69
 xtb: 6.7.1 (edcfbbe)
N          -10.64731825709461       -2.61649676123905        0.66065523262613
C           -9.60266595002847       -2.15611450813217        0.53622059481822
C           -8.31938004797455       -1.58902834627695        0.38271069080216
C           -8.04971915061179       -0.75661740933193       -0.70623681307439
C           -6.79259049770098       -0.20650581533373       -0.85171014941891
C           -5.78915014867556       -0.46867992759924        0.07998659080164
C           -4.44380250450103        0.12305802231630       -0.08206157012632
C           -4.01875703124596        1.13557112888413        0.78987960658922
C           -4.85924357709740        1.64140161263429        1.81719818769164
C           -4.42755371855567        2.61038783168117        2.66984234669777
C           -3.12328999543392        3.13181238090637        2.55125142186373
C           -2.29433314842841        2.69006946067022        1.56637436677452
C           -2.71259712576461        1.69823233682605        0.63959411541628
C           -1.87651439957915        1.25402626471917       -0.39501120959319
C           -0.53975900432093        1.86352236698137       -0.57171904882790
C           -0.42290184630614        3.18314019545785       -1.00683745457841
C            0.82442604367388        3.75881914812818       -1.17918656997801
C            1.97111583469048        3.03132657052497       -0.92221088498910
C            1.86758415283585        1.70903288646112       -0.48910157825010
C            3.05201238716725        0.92185563057222       -0.22894804512664
N            3.07619430237112       -0.33168931348716        0.12510486993145
C            4.40162780465666       -0.64593190640785        0.24132958387567
C            5.03079391295916       -1.87367297453737        0.59351653662552
C            4.28603645291264       -3.01873058501577        0.89422867644106
C            4.91969579440108       -4.19092231287478        1.22656508031078
C            6.31229638520224       -4.22984964132799        1.26235832744917
C            7.05539003456324       -3.10982614411490        0.96900119999971
C            6.44738630417545       -1.89216355669893        0.62456574479890
C            7.21513990366623       -0.69814911532203        0.31025125325539
C            8.61771528980412       -0.67043977512045        0.33251503488429
C            9.32409265363543        0.47137528645698        0.03113291556229
C            8.66359717389972        1.65062806508734       -0.30946362136656
C            7.29164865985237        1.66914168664141       -0.34399717571470
C            6.56188326351687        0.51279043085397       -0.03871519286303
C            5.14689204478659        0.48167533755437       -0.05990106023692
O            4.28403180455116        1.48253096134411       -0.36044163546760
C            0.61034812761246        1.13133573274656       -0.31480114870571
C           -2.30481959237775        0.24591273513833       -1.27094518307695
C           -1.49090647008212       -0.21349575061160       -2.34045745682806
C           -1.90947380344437       -1.20733574255716       -3.17082005527865
C           -3.17077724246835       -1.80754975164457       -2.98220757846829
C           -3.99014723541437       -1.38265285603639       -1.98211382420276
C           -3.60103431065382       -0.33541405682234       -1.10495687402149
C           -6.06794337223778       -1.29822239021489        1.16541504195503
C           -7.31922727626982       -1.85911322421906        1.31979040289568
H           -8.82802075744623       -0.55088826086353       -1.42666433367153
H           -6.58010959405589        0.43851073716104       -1.69149723646478
H           -5.85811426887527        1.24201208221583        1.91215439264997
H           -5.07887993622106        2.98425079640427        3.44644008024534
H           -2.78967664632996        3.88704898978468        3.24792197108066
H           -1.29525301510125        3.08959986214414        1.47699626755797
H           -1.31693692860257        3.75279763758211       -1.21428917584438
H            0.90226769330356        4.78146054080418       -1.51753074396231
H            2.94673733250483        3.47350631161619       -1.05622419517613
H            3.20965917119861       -2.94833221830857        0.85473785376797
H            4.34679073743708       -5.07636786950585        1.45850942774776
H            6.81478276304482       -5.15003416810232        1.52283508077582
H            8.12999614312112       -3.18543638176834        1.00838435762235
H            9.17024868406962       -1.55903806948114        0.59092586846185
H           10.40367819214181        0.45408690919877        0.05912981135954
H            9.22865392158910        2.54032734144945       -0.54390212003589
H            6.75041754050348        2.56715100663460       -0.60406894735660
H            0.55038893303230        0.10902651419529        0.02497062145165
H           -0.52261082035857        0.24191396195525       -2.48409099275352
H           -1.27702577419097       -1.54632352008646       -3.97836861988429
H           -3.48151153680611       -2.60593178623911       -3.64031071142181
H           -4.95583532828796       -1.84472611937107       -1.84012061113348
H           -5.29113154422014       -1.50551287248011        1.88661682126819
H           -7.53331080502225       -2.50582577889482        2.15817947684315

          :  Hamiltonian                  GFN2-xTB          :
         :: gradient norm              0.000044904914 Eh/a0 ::
         :: HOMO-LUMO gap              2.094227285856 eV    ::
         :: SCC energy              -114.265162494444 Eh    ::
         :: -> dispersion             -0.097023681030 Eh    ::
         :: -> Gsolv                  -0.051481568104 Eh    ::
         :: repulsion energy           2.120897466378 Eh    ::

    * Orbital Energies and Occupations

         #    Occupation            Energy/Eh            Energy/eV
      -------------------------------------------------------------
         1        2.0000           -0.7563529             -20.5814
       ...           ...                  ...                  ...
        92        2.0000           -0.4253593             -11.5746
        93        2.0000           -0.4206996             -11.4478
        94        2.0000           -0.4198634             -11.4251
        95        2.0000           -0.4139302             -11.2636
        96        2.0000           -0.4113422             -11.1932
        97        2.0000           -0.4106183             -11.1735
        98        2.0000           -0.4069429             -11.0735
        99        2.0000           -0.4062669             -11.0551
       100        2.0000           -0.4030472             -10.9675
       101        2.0000           -0.4009122             -10.9094
       102        2.0000           -0.3930402             -10.6952
       103        2.0000           -0.3780697             -10.2878
       104        2.0000           -0.3635243              -9.8920 (HOMO)
       105                         -0.2865628              -7.7978 (LUMO)
       106                         -0.2784257              -7.5763
       107                         -0.2724013              -7.4124
       108                         -0.2597045              -7.0669
       109                         -0.2527019              -6.8764
       110                         -0.2423117              -6.5936
       111                         -0.2353491              -6.4042
       112                         -0.2341951              -6.3728
       113                         -0.2238529              -6.0913
       114                         -0.2175138              -5.9189
       115                         -0.2129421              -5.7945
       ...                                ...                  ...
       204                          1.1587502              31.5312
      -------------------------------------------------------------
                  HL-Gap            0.0769614 Eh            2.0942 eV

     #   Z          covCN         q      C6AA      α(0)
     1   7 N        0.911    -0.276    27.133     7.534
     2   6 C        1.912     0.118    28.190     8.575
     3   6 C        2.973     0.014    27.703     8.634
     4   6 C        2.924    -0.019    28.475     8.751
     5   6 C        2.922    -0.027    28.671     8.781
     6   6 C        2.976     0.030    27.337     8.576
     7   6 C        2.977    -0.007    28.182     8.708
     8   6 C        2.983     0.008    27.828     8.653
     9   6 C        2.917    -0.035    28.873     8.811
    10   6 C        2.914    -0.029    28.727     8.789
    11   6 C        2.914    -0.029    28.733     8.790
    12   6 C        2.917    -0.034    28.850     8.808
    13   6 C        2.983     0.008    27.835     8.654
    14   6 C        2.977    -0.004    28.111     8.697
    15   6 C        2.975     0.022    27.501     8.602
    16   6 C        2.924    -0.028    28.702     8.786
    17   6 C        2.917    -0.027    28.684     8.782
    18   6 C        2.923    -0.031    28.762     8.795
    19   6 C        2.973    -0.007    28.195     8.710
    20   6 C        3.225     0.217    22.784     7.756
    21   7 N        1.882    -0.316    29.046     7.989
    22   6 C        3.163     0.056    26.418     8.401
    23   6 C        2.985    -0.003    28.095     8.695
    24   6 C        2.920    -0.030    28.752     8.793
    25   6 C        2.917    -0.029    28.720     8.788
    26   6 C        2.917    -0.030    28.757     8.794
    27   6 C        2.921    -0.033    28.835     8.806
    28   6 C        2.978    -0.002    28.069     8.691
    29   6 C        2.980     0.001    27.995     8.679
    30   6 C        2.921    -0.032    28.804     8.801
    31   6 C        2.917    -0.030    28.745     8.792
    32   6 C        2.917    -0.029    28.721     8.788
    33   6 C        2.919    -0.031    28.786     8.798
    34   6 C        2.982    -0.010    28.248     8.718
    35   6 C        3.111     0.103    25.575     8.285
    36   8 O        1.724    -0.231    17.826     5.701
    37   6 C        2.929    -0.031    28.782     8.798
    38   6 C        2.983     0.008    27.829     8.653
    39   6 C        2.917    -0.034    28.838     8.806
    40   6 C        2.914    -0.029    28.724     8.788
    41   6 C        2.914    -0.029    28.721     8.788
    42   6 C        2.917    -0.035    28.876     8.812
    43   6 C        2.983     0.008    27.823     8.652
    44   6 C        2.922    -0.027    28.669     8.781
    45   6 C        2.924    -0.019    28.474     8.751
    46   1 H        0.926     0.044     2.402     2.424
    47   1 H        0.926     0.048     2.347     2.396
    48   1 H        0.926     0.033     2.551     2.498
    49   1 H        0.926     0.033     2.541     2.493
    50   1 H        0.926     0.033     2.543     2.494
    51   1 H        0.926     0.034     2.535     2.490
    52   1 H        0.926     0.046     2.367     2.406
    53   1 H        0.926     0.046     2.375     2.410
    54   1 H        0.926     0.043     2.407     2.426
    55   1 H        0.926     0.047     2.358     2.401
    56   1 H        0.926     0.040     2.455     2.450
    57   1 H        0.926     0.040     2.452     2.449
    58   1 H        0.926     0.043     2.410     2.428
    59   1 H        0.926     0.045     2.377     2.411
    60   1 H        0.926     0.041     2.432     2.439
    61   1 H        0.926     0.040     2.451     2.448
    62   1 H        0.926     0.038     2.473     2.459
    63   1 H        0.926     0.053     2.282     2.363
    64   1 H        0.926     0.033     2.550     2.497
    65   1 H        0.926     0.033     2.550     2.497
    66   1 H        0.926     0.034     2.537     2.491
    67   1 H        0.926     0.033     2.547     2.496
    68   1 H        0.926     0.048     2.349     2.397
    69   1 H        0.926     0.044     2.402     2.424

molecular dipole:
                 x           y           z       tot (Debye)
 q only:        1.652       0.785      -0.225
   full:        2.302       1.201      -0.335       6.655

 projected vibrational frequencies (cm⁻¹)
eigval :       -0.00    -0.00    -0.00     0.00     0.00     0.00
eigval :       10.34    11.64    12.75    31.22    34.54    39.02
eigval :       44.95    60.80    67.65    74.17    76.33    88.09
eigval :      106.47   119.73   121.74   124.60   136.74   179.02
eigval :      180.74   191.81   206.38   211.28   218.74   228.29
eigval :      240.34   249.74   265.89   278.47   284.74   338.18
eigval :      353.78   364.22   382.03   394.34   397.94   398.62
eigval :      400.08   408.03   423.48   429.12   438.89   445.28
eigval :      448.66   458.18   458.94   471.67   504.48   514.32
eigval :      529.78   534.44   535.58   550.29   581.57   583.40
eigval :      586.28   598.25   604.36   609.93   610.87   634.10
eigval :      646.97   655.20   663.47   666.86   669.00   680.47
eigval :      692.42   693.25   695.50   706.07   736.85   737.10
eigval :      743.09   765.90   770.97   773.84   775.46   782.80
eigval :      791.01   793.87   812.81   863.26   866.45   872.08
eigval :      874.03   875.18   882.78   897.31   901.92   907.45
eigval :      913.56   913.84   916.40   917.09   919.37   922.66
eigval :      923.90   925.58   925.64   926.86   927.01   930.30
eigval :      931.69   940.08   975.72   994.80  1017.01  1019.13
eigval :     1051.97  1080.05  1080.16  1081.14  1092.70  1098.55
eigval :     1127.05  1130.49  1134.08  1137.68  1143.37  1156.22
eigval :     1179.97  1180.05  1182.34  1182.79  1183.20  1184.44
eigval :     1195.88  1206.13  1210.81  1227.01  1240.82  1248.97
eigval :     1251.07  1256.05  1257.58  1260.41  1265.02  1275.44
eigval :     1280.97  1306.04  1309.01  1318.69  1324.13  1340.91
eigval :     1341.97  1348.19  1367.52  1382.08  1390.80  1400.88
eigval :     1404.68  1414.77  1423.22  1427.04  1429.04  1431.84
eigval :     1439.38  1455.76  1476.75  1489.85  1514.21  1515.56
eigval :     1525.28  1527.92  1539.88  1544.36  1546.14  1558.73
eigval :     1569.87  1575.96  1584.38  1584.86  1592.93  1603.61
eigval :     1606.65  1620.95  2360.80  3071.48  3071.64  3074.42
eigval :     3076.73  3077.73  3077.99  3078.92  3080.64  3081.27
eigval :     3082.05  3084.51  3087.50  3087.82  3088.33  3091.82
eigval :     3092.24  3092.60  3093.26  3094.46  3096.68  3099.11
eigval :     3103.01  3105.14  3112.82

   temp. (K)  partition function   enthalpy   heat capacity  entropy
                                   cal/mol     cal/K/mol   cal/K/mol   J/K/mol
 298.15  VIB  0.337E+16            19948.510    127.157    124.040
         ROT  0.811E+08              888.752      2.981     39.170
         INT  0.273E+24            20837.263    130.138    163.210
         TR   0.133E+29             1481.254      4.968     44.899
         TOT                       22318.5165   135.1063   208.1095   870.7303

       T/K    H(0)-H(T)+PV         H(T)/Eh          T*S/Eh         G(T)/Eh
   ------------------------------------------------------------------------
    298.15    0.355668E-01    0.551113E+00    0.988796E-01    0.452233E+00
   ------------------------------------------------------------------------

         :::::::::::::::::::::::::::::::::::::::::::::::::::::
         ::                  THERMODYNAMIC                  ::
         :::::::::::::::::::::::::::::::::::::::::::::::::::::
         :: total free energy        -111.692031870881 Eh   ::
         ::.................................................::
         :: total energy             -112.144265027642 Eh   ::
         :: zero point energy           0.515545896098 Eh   ::
         :: G(RRHO) w/o ZPVE           -0.063312739336 Eh   ::
         :: G(RRHO) contrib.            0.452233156762 Eh   ::
         :::::::::::::::::::::::::::::::::::::::::::::::::::::

           -------------------------------------------------
          | TOTAL ENERGY             -112.144265027642 Eh   |
          | TOTAL ENTHALPY           -111.593152311640 Eh   |
          | TOTAL FREE ENERGY        -111.692031870881 Eh   |
          | GRADIENT NORM               0.000044867124 Eh/α |
          | HOMO-LUMO GAP               2.094227299436 eV   |
           -------------------------------------------------

 * finished run on 2025/09/02 at 19:23:58.060
