   * xtb version 6.7.1 (edcfbbe) compiled by 'albert@albert-system' on 2024-07-22

   ID    Z sym.   atoms
    1    7 N      1, 13, 18, 26, 46, 63
    2    6 C      2-12, 14-17, 19-25, 27-45, 47-62, 64
    3    1 H      65-100

          program call               : xtb data2507/gas/TPA-PZCN/TPA-PZCN.xyz --gfn 2 --ohess vtight --parallel 40 --molden --ceasefiles --namespace data2507/gas/TPA-PZCN/TPA-PZCN_gas_S0_preOpt
          :  Hamiltonian                  GFN2-xTB          :
 * total energy  :  -160.0263694 Eh     change       -0.2243837E-08 Eh
 * total energy  :  -160.0501267 Eh     change       -0.2375730E-01 Eh
 * total energy  :  -160.0585214 Eh     change       -0.8394663E-02 Eh
 * total energy  :  -160.0606683 Eh     change       -0.2146913E-02 Eh
 * total energy  :  -160.0617646 Eh     change       -0.1096327E-02 Eh
 * total energy  :  -160.0627745 Eh     change       -0.1009876E-02 Eh
 * total energy  :  -160.0626268 Eh     change        0.1476653E-03 Eh
 * total energy  :  -160.0633071 Eh     change       -0.6802817E-03 Eh
 * total energy  :  -160.0634606 Eh     change       -0.1534576E-03 Eh
 * total energy  :  -160.0637108 Eh     change       -0.2502333E-03 Eh
 * total energy  :  -160.0706272 Eh     change        0.8593532E-06 Eh
 * total energy  :  -160.0706282 Eh     change       -0.1025602E-05 Eh
 * total energy  :  -160.0706256 Eh     change        0.2630491E-05 Eh
 * total energy  :  -160.0706288 Eh     change       -0.3225167E-05 Eh
 * total energy  :  -160.0706284 Eh     change        0.4319819E-06 Eh
 * total energy  :  -160.0706289 Eh     change       -0.5170304E-06 Eh
 * total energy  :  -160.0706285 Eh     change        0.4302350E-06 Eh
 * total energy  :  -160.0706290 Eh     change       -0.4948997E-06 Eh
 * total energy  :  -160.0706290 Eh     change       -0.3511659E-07 Eh
   *** GEOMETRY OPTIMIZATION CONVERGED AFTER 131 ITERATIONS ***

 final structure:
================
100
 xtb: 6.7.1 (edcfbbe)
N           12.22687897519516        4.02960018521230        0.94977339746424
C           11.24090420681479        3.46052859351356        0.81643632133017
C           10.02361963869839        2.75913142902782        0.65197027174656
C            8.80530634288272        3.43569280640200        0.79338618599741
C            7.63552340735954        2.73745322569716        0.63073901027909
C            7.64837578756749        1.37125368900619        0.32814864438638
C            8.86888075232786        0.68006581772716        0.18226827648701
C           10.05097416563048        1.40421442005127        0.35135924104857
C            8.86463954295134       -0.74274230872425       -0.13434337657291
C           10.04242088479740       -1.47536649598950       -0.29686373814477
C           10.00701040226362       -2.83010107066344       -0.59746268540953
C           11.22008268616464       -3.54021168976248       -0.75554679992729
N           12.20253442275863       -4.11646146554198       -0.88398670393083
C            8.78467078436024       -3.49796275776081       -0.74531017182107
C            7.61904154257887       -2.79130031808948       -0.58930639128014
C            7.64001635378780       -1.42514063699906       -0.28699711837620
C            6.38758826498587       -0.71849492694848       -0.13390098667583
N            5.25624122524659       -1.38528881953783       -0.27852225168421
C            4.10814078544561       -0.71377206214278       -0.13696683784394
C            2.87621239147213       -1.39123649425603       -0.26688393401055
C            1.70233129719259       -0.70858135584540       -0.12407164815748
C            0.37255983682337       -1.35214183747052       -0.18819910445792
C           -0.23389127040589       -1.65491173912625       -1.40092990281767
C           -1.55210472347346       -2.06145292159898       -1.44308433829120
C           -2.29545171987643       -2.18126411684884       -0.26853219915991
N           -3.65836064587125       -2.48422192055828       -0.32234053896630
C           -4.24453589298434       -3.27274130059636        0.67417495347075
C           -3.55600012346208       -4.36722243298366        1.19694965580398
C           -4.12946910603764       -5.14257298521434        2.18581774571964
C           -5.39602182492359       -4.84721007631675        2.66317375438621
C           -6.08548107031680       -3.76360680258927        2.14397480018960
C           -5.51783832480843       -2.97725215313273        1.16022956845483
C           -4.45536449904064       -1.89575822233422       -1.31304129545650
C           -5.52624858827317       -2.59687769707962       -1.86571835697552
C           -6.31609799645337       -2.00868577529692       -2.83453024863853
C           -6.04835783448286       -0.72245186583601       -3.27389528921954
C           -4.98026813456939       -0.02489329670053       -2.73416689340184
C           -4.19121029409014       -0.60087727290987       -1.75801513491176
C           -1.65985925884446       -1.95963817764774        0.95398606301881
C           -0.34755534473920       -1.53993468866227        0.98743970253727
C            1.70666272039399        0.69800477574714        0.13094742321107
C            0.38105757302691        1.35079280823455        0.18827344221977
C           -0.22948944204663        1.65723511465643        1.39804067332277
C           -1.54522755584293        2.07233019813750        1.43373606018436
C           -2.28185035833533        2.19724188710930        0.25550643355399
N           -3.64313825316183        2.50886262638332        0.30233897156810
C           -4.44932729897999        1.92423038099453        1.28774926010942
C           -5.52005892477005        2.63052781589825        1.83415234811525
C           -6.31865195940169        2.04606021287501        2.79803249228434
C           -6.05992589207797        0.75847351597768        3.23883402985398
C           -4.99210029742344        0.05573860399084        2.70536658659664
C           -4.19443626034947        0.62791998387388        1.73399693485556
C           -4.21810658803250        3.30378370274516       -0.69564048487461
C           -5.49019319083099        3.01779557393848       -1.19047937076685
C           -6.04686146941388        3.81091306637270       -2.17506693870353
C           -5.34748366928972        4.89190213571142       -2.68641813126750
C           -4.08194640127487        5.17759464706184       -2.20057615698651
C           -3.51937220397794        4.39536552030344       -1.21086333451866
C           -1.64158037610253        1.97196134070142       -0.96387989849291
C           -0.33187969583824        1.54369372578291       -0.99091536864331
C            2.88466471963692        1.37213047704276        0.28020351351871
C            4.11235780442548        0.68569267662643        0.15726165403435
N            5.26448526879444        1.34880337252678        0.30556415964437
C            6.39176450439399        0.67374591175200        0.16764934956912
H            8.80127397205079        4.48957462464540        1.02717922010654
H            6.67617539399439        3.21980420443972        0.73149357555079
H           11.01420564460027        0.92898325152588        0.25328553876640
H           11.00847299896435       -1.00701068457836       -0.19359200358081
H            8.77437122804336       -4.55186312187553       -0.97882703213899
H            6.65685051962163       -3.26681718617832       -0.69530510792390
H            2.88954451190487       -2.45202113144203       -0.46564720150561
H            0.32470160873414       -1.54544113064366       -2.31909578259407
H           -2.02608770566912       -2.26607322755682       -2.39166294402006
H           -2.57181376591164       -4.60420692179589        0.81965427252226
H           -3.58628768561499       -5.98848250700221        2.58080561917210
H           -5.84210314008579       -5.45706157056826        3.43395490108685
H           -7.07057951358373       -3.52074674089291        2.51446054590249
H           -6.05222851174423       -2.12407436902580        0.76890202894436
H           -5.73184395763006       -3.60323327472966       -1.53128768005382
H           -7.14227325695692       -2.56288528887397       -3.25519431691241
H           -6.66638527839251       -0.26723105539653       -4.03273367362311
H           -4.76747098277235        0.98082381357803       -3.06662003827131
H           -3.36430594747161       -0.05132804056105       -1.33379474038336
H           -2.20993531756065       -2.08636130528041        1.87486026077261
H            0.12277694714764       -1.33179238848850        1.93729293932207
H            0.32376437710963        1.54384841550817        2.31896156343496
H           -2.02265077224161        2.27970722149969        2.37998803681195
H           -5.71864025800669        3.63800036710351        1.49885621984829
H           -7.14460568822328        2.60427489673526        3.21379808410958
H           -6.68466285414126        0.30623318793005        3.99394828506066
H           -4.78621575386282       -0.95102998606070        3.03896960252527
H           -3.36782247793009        0.07424854353936        1.31461175330990
H           -6.03230618266320        2.16676855090963       -0.80512036354442
H           -7.03118762478130        3.57551784823624       -2.55236864503859
H           -5.78515697347752        5.50724375505321       -3.45765742261281
H           -3.53106656929779        6.02135469447155       -2.58945029528020
H           -2.53595193353694        4.62475871959880       -0.82693131062204
H           -2.18628113173355        2.10261669924958       -1.88740803436858
H            0.14183243114529        1.33275426491608       -1.93846894085724
H            2.90469585175946        2.43278331597143        0.47911779152376

          :  Hamiltonian                  GFN2-xTB          :
         :: gradient norm              0.000073279904 Eh/a0 ::
         :: HOMO-LUMO gap              1.015179086467 eV    ::
         :: SCC energy              -163.138639082463 Eh    ::
         :: -> dispersion             -0.158206765345 Eh    ::
         :: repulsion energy           3.068010060176 Eh    ::

    * Orbital Energies and Occupations

         #    Occupation            Energy/Eh            Energy/eV
      -------------------------------------------------------------
         1        2.0000           -0.6891192             -18.7519
       ...           ...                  ...                  ...
       137        2.0000           -0.4138806             -11.2623
       138        2.0000           -0.4133169             -11.2469
       139        2.0000           -0.4114672             -11.1966
       140        2.0000           -0.4108972             -11.1811
       141        2.0000           -0.4098348             -11.1522
       142        2.0000           -0.4098097             -11.1515
       143        2.0000           -0.4087284             -11.1221
       144        2.0000           -0.4079760             -11.1016
       145        2.0000           -0.4054232             -11.0321
       146        2.0000           -0.4045644             -11.0088
       147        2.0000           -0.3638097              -9.8998
       148        2.0000           -0.3561569              -9.6915
       149        2.0000           -0.3547245              -9.6525 (HOMO)
       150                         -0.3174174              -8.6374 (LUMO)
       151                         -0.2979479              -8.1076
       152                         -0.2765492              -7.5253
       153                         -0.2658506              -7.2342
       154                         -0.2490346              -6.7766
       155                         -0.2401867              -6.5358
       156                         -0.2387011              -6.4954
       157                         -0.2368981              -6.4463
       158                         -0.2353907              -6.4053
       159                         -0.2347140              -6.3869
       160                         -0.2322055              -6.3186
       ...                                ...                  ...
       292                          1.1654340              31.7131
      -------------------------------------------------------------
                  HL-Gap            0.0373072 Eh            1.0152 eV

     #   Z          covCN         q      C6AA      α(0)
     1   7 N        0.911    -0.226    25.933     7.365
     2   6 C        1.913     0.112    28.329     8.596
     3   6 C        2.972     0.022    27.508     8.603
     4   6 C        2.923    -0.020    28.508     8.756
     5   6 C        2.923    -0.024    28.613     8.772
     6   6 C        2.988     0.006    27.882     8.662
     7   6 C        2.975     0.009    27.820     8.652
     8   6 C        2.931    -0.025    28.626     8.774
     9   6 C        2.975     0.009    27.820     8.652
    10   6 C        2.931    -0.025    28.626     8.774
    11   6 C        2.972     0.022    27.508     8.603
    12   6 C        1.913     0.112    28.329     8.596
    13   7 N        0.911    -0.226    25.933     7.365
    14   6 C        2.923    -0.020    28.508     8.756
    15   6 C        2.923    -0.024    28.613     8.772
    16   6 C        2.988     0.006    27.882     8.662
    17   6 C        2.962     0.082    26.177     8.392
    18   7 N        1.849    -0.237    27.037     7.706
    19   6 C        2.967     0.083    26.157     8.389
    20   6 C        2.917    -0.046    29.141     8.852
    21   6 C        2.981     0.015    27.672     8.629
    22   6 C        2.979     0.002    27.971     8.675
    23   6 C        2.922    -0.032    28.788     8.799
    24   6 C        2.922    -0.048    29.185     8.859
    25   6 C        2.925     0.065    26.539     8.448
    26   7 N        2.752    -0.076    22.715     7.079
    27   6 C        2.924     0.065    26.544     8.449
    28   6 C        2.923    -0.048    29.194     8.861
    29   6 C        2.919    -0.029    28.733     8.790
    30   6 C        2.919    -0.038    28.955     8.824
    31   6 C        2.920    -0.029    28.723     8.789
    32   6 C        2.922    -0.046    29.149     8.854
    33   6 C        2.925     0.065    26.550     8.450
    34   6 C        2.922    -0.047    29.174     8.858
    35   6 C        2.920    -0.029    28.730     8.790
    36   6 C        2.919    -0.038    28.944     8.822
    37   6 C        2.919    -0.028    28.700     8.785
    38   6 C        2.923    -0.048    29.180     8.858
    39   6 C        2.921    -0.048    29.188     8.860
    40   6 C        2.926    -0.032    28.797     8.800
    41   6 C        2.981     0.015    27.672     8.629
    42   6 C        2.979     0.002    27.970     8.675
    43   6 C        2.922    -0.032    28.788     8.799
    44   6 C        2.922    -0.048    29.184     8.859
    45   6 C        2.925     0.065    26.539     8.448
    46   7 N        2.752    -0.076    22.715     7.079
    47   6 C        2.925     0.065    26.550     8.450
    48   6 C        2.922    -0.047    29.175     8.858
    49   6 C        2.920    -0.029    28.730     8.790
    50   6 C        2.919    -0.038    28.945     8.822
    51   6 C        2.919    -0.028    28.700     8.785
    52   6 C        2.923    -0.048    29.181     8.859
    53   6 C        2.924     0.065    26.544     8.449
    54   6 C        2.922    -0.046    29.150     8.854
    55   6 C        2.920    -0.029    28.723     8.789
    56   6 C        2.919    -0.038    28.955     8.824
    57   6 C        2.919    -0.029    28.733     8.790
    58   6 C        2.923    -0.048    29.193     8.860
    59   6 C        2.921    -0.048    29.188     8.860
    60   6 C        2.926    -0.032    28.797     8.800
    61   6 C        2.917    -0.046    29.141     8.852
    62   6 C        2.967     0.083    26.157     8.389
    63   7 N        1.849    -0.237    27.037     7.706
    64   6 C        2.962     0.082    26.177     8.392
    65   1 H        0.926     0.048     2.344     2.394
    66   1 H        0.926     0.068     2.103     2.268
    67   1 H        0.926     0.047     2.362     2.403
    68   1 H        0.926     0.047     2.362     2.403
    69   1 H        0.926     0.048     2.344     2.394
    70   1 H        0.926     0.068     2.104     2.268
    71   1 H        0.926     0.055     2.262     2.352
    72   1 H        0.926     0.033     2.545     2.494
    73   1 H        0.926     0.036     2.496     2.471
    74   1 H        0.926     0.031     2.573     2.509
    75   1 H        0.926     0.032     2.558     2.501
    76   1 H        0.926     0.031     2.574     2.509
    77   1 H        0.926     0.032     2.560     2.502
    78   1 H        0.926     0.032     2.560     2.502
    79   1 H        0.926     0.033     2.547     2.496
    80   1 H        0.926     0.033     2.549     2.497
    81   1 H        0.926     0.031     2.574     2.509
    82   1 H        0.926     0.030     2.584     2.514
    83   1 H        0.926     0.030     2.589     2.516
    84   1 H        0.926     0.036     2.504     2.475
    85   1 H        0.926     0.031     2.567     2.505
    86   1 H        0.926     0.033     2.544     2.494
    87   1 H        0.926     0.037     2.496     2.470
    88   1 H        0.926     0.033     2.548     2.496
    89   1 H        0.926     0.033     2.550     2.497
    90   1 H        0.926     0.031     2.574     2.509
    91   1 H        0.926     0.030     2.585     2.514
    92   1 H        0.926     0.030     2.590     2.516
    93   1 H        0.926     0.032     2.559     2.502
    94   1 H        0.926     0.032     2.560     2.502
    95   1 H        0.926     0.031     2.573     2.509
    96   1 H        0.926     0.032     2.558     2.501
    97   1 H        0.926     0.031     2.574     2.509
    98   1 H        0.926     0.036     2.505     2.475
    99   1 H        0.926     0.031     2.567     2.505
   100   1 H        0.926     0.055     2.262     2.352

molecular dipole:
                 x           y           z       tot (Debye)
 q only:       -3.116       0.011      -0.009
   full:       -3.845       0.014      -0.011       9.773

 projected vibrational frequencies (cm⁻¹)
eigval :       -0.00    -0.00    -0.00    -0.00    -0.00     0.00
eigval :        7.25    11.44    15.91    20.58    23.99    30.73
eigval :       33.61    35.63    42.59    46.73    51.92    57.40
eigval :       58.56    61.55    65.67    75.28    75.48    77.68
eigval :       80.43    82.30    84.62    94.04   106.38   114.03
eigval :      116.45   127.46   137.07   140.78   143.02   171.14
eigval :      174.96   181.67   210.06   218.22   223.31   233.05
eigval :      235.51   246.12   250.03   275.62   281.83   294.59
eigval :      307.30   312.90   320.48   324.17   338.79   352.18
eigval :      358.33   361.31   370.39   377.60   378.68   378.87
eigval :      380.89   382.69   387.82   389.92   390.73   398.23
eigval :      407.18   419.54   428.55   437.73   448.74   466.85
eigval :      478.03   479.14   481.34   492.41   493.80   503.58
eigval :      507.68   516.29   534.50   535.46   552.66   553.47
eigval :      575.34   580.22   581.70   584.45   585.84   589.45
eigval :      592.06   595.29   596.09   602.77   613.16   618.06
eigval :      626.51   635.74   643.96   651.05   659.78   660.66
eigval :      662.23   663.64   675.46   682.89   685.28   690.92
eigval :      698.46   707.84   714.61   733.93   738.26   747.90
eigval :      756.82   759.86   762.98   763.45   770.77   802.71
eigval :      816.00   817.49   829.50   831.92   844.00   852.77
eigval :      860.26   868.45   871.82   872.05   875.69   876.53
eigval :      877.62   879.50   879.90   892.32   893.07   893.99
eigval :      896.20   901.13   910.00   910.48   914.62   918.34
eigval :      918.80   924.53   924.76   925.29   927.41   928.00
eigval :      928.13   929.59   929.98   930.44   931.12   933.71
eigval :      935.34   952.11   953.56   966.52   982.91   990.42
eigval :     1005.47  1005.90  1011.69  1031.24  1048.31  1061.21
eigval :     1071.66  1083.57  1083.69  1085.55  1086.32  1122.63
eigval :     1122.94  1124.75  1126.40  1136.70  1139.16  1145.83
eigval :     1145.85  1180.47  1180.57  1181.02  1181.30  1183.90
eigval :     1186.21  1186.82  1186.96  1192.58  1195.21  1197.28
eigval :     1200.00  1200.38  1212.00  1213.04  1228.34  1234.73
eigval :     1240.71  1247.35  1261.49  1267.38  1269.11  1277.04
eigval :     1279.29  1279.55  1284.00  1285.21  1294.51  1295.24
eigval :     1311.33  1312.62  1316.70  1319.21  1321.28  1324.28
eigval :     1324.46  1326.34  1326.79  1328.01  1328.65  1335.71
eigval :     1351.39  1375.41  1392.11  1407.20  1408.12  1422.35
eigval :     1431.74  1435.55  1436.54  1436.64  1442.95  1443.79
eigval :     1444.17  1466.98  1472.37  1473.46  1476.40  1476.49
eigval :     1477.67  1490.93  1496.26  1500.76  1526.59  1547.87
eigval :     1548.03  1557.89  1558.17  1574.96  1577.68  1577.77
eigval :     1581.71  1581.83  1586.53  1594.43  1595.57  1596.49
eigval :     1597.69  1603.35  1603.93  1610.66  2374.84  2376.49
eigval :     3075.78  3075.82  3076.33  3076.39  3076.80  3077.39
eigval :     3077.46  3077.95  3078.21  3078.32  3079.50  3080.56
eigval :     3086.50  3086.52  3087.71  3087.91  3089.71  3090.41
eigval :     3090.67  3091.37  3092.17  3092.57  3093.83  3095.12
eigval :     3095.21  3095.31  3095.67  3095.86  3098.25  3098.26
eigval :     3098.64  3099.06  3100.97  3111.67  3113.03  3113.11

   temp. (K)  partition function   enthalpy   heat capacity  entropy
                                   cal/mol     cal/K/mol   cal/K/mol   J/K/mol
 298.15  VIB  0.196E+25            30511.325    188.946    192.547
         ROT  0.108E+09              888.752      2.981     39.746
         INT  0.212E+33            31400.078    191.927    232.293
         TR   0.226E+29             1481.254      4.968     45.958
         TOT                       32881.3315   196.8954   278.2508  1164.2013

       T/K    H(0)-H(T)+PV         H(T)/Eh          T*S/Eh         G(T)/Eh
   ------------------------------------------------------------------------
    298.15    0.523997E-01    0.805259E+00    0.132206E+00    0.673053E+00
   ------------------------------------------------------------------------

         :::::::::::::::::::::::::::::::::::::::::::::::::::::
         ::                  THERMODYNAMIC                  ::
         :::::::::::::::::::::::::::::::::::::::::::::::::::::
         :: total free energy        -159.397575843397 Eh   ::
         ::.................................................::
         :: total energy             -160.070629022287 Eh   ::
         :: zero point energy           0.752859367534 Eh   ::
         :: G(RRHO) w/o ZPVE           -0.079806188644 Eh   ::
         :: G(RRHO) contrib.            0.673053178890 Eh   ::
         :::::::::::::::::::::::::::::::::::::::::::::::::::::

           -------------------------------------------------
          | TOTAL ENERGY             -160.070629022287 Eh   |
          | TOTAL ENTHALPY           -159.265369917559 Eh   |
          | TOTAL FREE ENERGY        -159.397575843397 Eh   |
          | GRADIENT NORM               0.000073336825 Eh/α |
          | HOMO-LUMO GAP               1.015179320131 eV   |
           -------------------------------------------------

 * finished run on 2025/07/17 at 20:33:08.056
