   * xtb version 6.7.1 (edcfbbe) compiled by 'albert@albert-system' on 2024-07-22

   ID    Z sym.   atoms
    1    7 N      1, 13, 18, 26, 46, 63
    2    6 C      2-12, 14-17, 19-25, 27-45, 47-62, 64
    3    1 H      65-100

          program call               : xtb data2507/gas/TPA-PZCN/TPA-PZCN_gas_S0_crest.xyz --gfn 2 --ohess vtight --parallel 40 --molden --ceasefiles --namespace data2507/gas/TPA-PZCN/TPA-PZCN_gas_S0_finalOpt
          :  Hamiltonian                  GFN2-xTB          :
 * total energy  :  -160.0721150 Eh     change       -0.3413220E-08 Eh
 * total energy  :  -160.0721156 Eh     change       -0.5870147E-06 Eh
 * total energy  :  -160.0721173 Eh     change       -0.1727783E-05 Eh
 * total energy  :  -160.0721181 Eh     change       -0.7286211E-06 Eh
 * total energy  :  -160.0721184 Eh     change       -0.3090742E-06 Eh
 * total energy  :  -160.0721233 Eh     change       -0.4931026E-05 Eh
 * total energy  :  -160.0721257 Eh     change       -0.2425729E-05 Eh
 * total energy  :  -160.0721276 Eh     change       -0.1884631E-05 Eh
 * total energy  :  -160.0721337 Eh     change       -0.6102398E-05 Eh
 * total energy  :  -160.0721408 Eh     change       -0.7123177E-05 Eh
 * total energy  :  -160.0721885 Eh     change       -0.3035965E-06 Eh
 * total energy  :  -160.0721887 Eh     change       -0.1979726E-06 Eh
 * total energy  :  -160.0721888 Eh     change       -0.1600490E-06 Eh
 * total energy  :  -160.0721890 Eh     change       -0.1704639E-06 Eh
 * total energy  :  -160.0721892 Eh     change       -0.1864147E-06 Eh
 * total energy  :  -160.0721894 Eh     change       -0.2336387E-06 Eh
 * total energy  :  -160.0721897 Eh     change       -0.2882866E-06 Eh
 * total energy  :  -160.0721900 Eh     change       -0.2758049E-06 Eh
 * total energy  :  -160.0721900 Eh     change       -0.2467402E-08 Eh
   *** GEOMETRY OPTIMIZATION CONVERGED AFTER 44 ITERATIONS ***

 final structure:
================
100
 xtb: 6.7.1 (edcfbbe)
N           11.16998652403026        4.36513570347111        0.11631531853952
C           10.19835148002841        3.75715295367162        0.10303304363601
C            8.99854823144815        3.00843715403704        0.08646134075053
C            7.76404338588474        3.67026865757483        0.10356429426527
C            6.61164314667927        2.92611910026136        0.08718646287826
C            6.65727284175694        1.52774532432767        0.05369422014605
C            7.89442076803939        0.85085293099530        0.03583072104423
C            9.05855954906323        1.62199738407544        0.05321191411377
C            7.92453799263580       -0.60583797920254        0.00036191351086
C            9.11957523668667       -1.32820394223929       -0.01945405051554
C            9.11684035336261       -2.71590695174387       -0.05293551005712
C           10.34628326276996       -3.41479452200950       -0.07248125735782
N           11.34158966375041       -3.98322314521372       -0.08826862421458
C            7.91076166449003       -3.42824895625131       -0.06745835609294
C            6.72861353262840       -2.73234851005435       -0.04854088626513
C            6.71650781460789       -1.33334466301044       -0.01516591338506
C            5.44733295108534       -0.64068416980834        0.00321104757356
N            4.33282087643604       -1.35055018416260       -0.01231388634908
C            3.16885011557439       -0.69056533013717        0.00526220035636
C            1.95386630335052       -1.40373624345889        0.01021566279248
C            0.75437428035717       -0.74136889522593        0.03457406386719
C           -0.51632902890933       -1.47499219800434        0.10754670792437
C           -0.80924021178172       -2.50920340872162       -0.77717386068138
C           -2.04834415358782       -3.11643388522442       -0.77167789395823
C           -3.02728481367109       -2.71006939237803        0.13546209438428
N           -4.31656330498892       -3.24096968402098        0.10460629277992
C           -4.53179775175582       -4.59064621343069       -0.18751292410799
C           -5.65506223420925       -4.98998369506161       -0.91125701171945
C           -5.86350719071171       -6.32672568016850       -1.18946289829759
C           -4.95728702119283       -7.28328623224088       -0.76202149398140
C           -3.83800231518789       -6.89118144503661       -0.04622614249613
C           -3.62493169981237       -5.55808650800602        0.24523110094436
C           -5.39856588581194       -2.37939338146877        0.33832412255713
C           -5.37835399497438       -1.08033484554846       -0.16925125039262
C           -6.43405831691996       -0.22338936614257        0.06956656863017
C           -7.52307861800231       -0.64399439401475        0.81499100390774
C           -7.55106812586465       -1.93554086291855        1.31497207929196
C           -6.49919636813193       -2.80106255324862        1.08164232719008
C           -2.70705756864956       -1.72829235658685        1.07591166111799
C           -1.47453943058014       -1.11906197957291        1.05715820190958
C            0.72599131839831        0.68896994407499        0.01558753379709
C           -0.57325942519557        1.37942611561357       -0.05818790261857
C           -0.94730573041393        2.30941889945383        0.90727055655867
C           -2.20185758725147        2.88251515100281        0.88266198178500
C           -3.10528152447519        2.56205628665797       -0.13044368256781
N           -4.39089242893835        3.11450958081244       -0.12583473023559
C           -5.09683014296280        3.16292401877606        1.08341718497606
C           -5.91720375272785        4.24749739110425        1.38916977873478
C           -6.62118833242730        4.27118574284591        2.57766578063132
C           -6.51401872517788        3.22416089335515        3.47842645195992
C           -5.69130317728635        2.14945715501847        3.18314535483535
C           -4.98649466852722        2.11411731072343        1.99629764833001
C           -4.96880652040652        3.56329380893475       -1.31562818857615
C           -6.34575789109654        3.47627834186031       -1.52358546333481
C           -6.90247351912477        3.92457987298678       -2.70545247446271
C           -6.10274700940799        4.45987508613750       -3.70145015541695
C           -4.73487287887477        4.54824498774808       -3.50157078796360
C           -4.16933644382954        4.10953583513583       -2.32066564418069
C           -2.71107926197412        1.67477507553429       -1.13205629176787
C           -1.46695011835430        1.08439502923151       -1.08607470934575
C            1.89519745081283        1.40088436096923        0.03745088761302
C            3.13976563613744        0.73875939013343        0.03879288596699
N            4.27471345874355        1.44625430013076        0.05443320747314
C            5.41804919719562        0.78318556301457        0.03748834299448
H            7.73448875478687        4.74909493025811        0.12921953552276
H            5.64087310966354        3.39583048753839        0.09940852613108
H           10.03301605805421        1.15981537595295        0.04125606049730
H           10.07409306233509       -0.82610065701980       -0.00931343263957
H            7.92582492351517       -4.50737143240246       -0.09324651194064
H            5.77803719728283       -3.24172276794740       -0.05876082454339
H            1.99470610339629       -2.48225738636487        0.02541692388146
H           -0.07228400341577       -2.80575832719966       -1.50946388623649
H           -2.27653579994893       -3.89064041265140       -1.48929295956871
H           -6.35772886435464       -4.24549438848839       -1.25582993145708
H           -6.73660373124376       -6.62246275750894       -1.75230661218990
H           -5.12228614633758       -8.32638331715193       -0.98458937070205
H           -3.12885315993793       -7.63029086485476        0.29644809510285
H           -2.75816977974640       -5.25641533666756        0.81505446223642
H           -4.52951656549747       -0.74996744925770       -0.75048616276459
H           -6.40830039577934        0.77535785837841       -0.33804983943064
H           -8.34410182859679        0.03055284079597        1.00432664953657
H           -8.39567889624233       -2.27118380328364        1.89849250954246
H           -6.51944790813446       -3.80601387248303        1.47738568778847
H           -3.44324370700179       -1.44310803781236        1.81301166112561
H           -1.24163076753510       -0.36664893937664        1.79531452511622
H           -0.25687779490623        2.55975578476947        1.69989744246822
H           -2.49692226673480        3.58045371534816        1.65247075915560
H           -5.99610829236329        5.06814266018212        0.69114183264736
H           -7.25316841162904        5.11720004199370        2.80446557715498
H           -7.06729866103111        3.24649356202668        4.40491851385250
H           -5.60543049702505        1.32639337893614        3.87715579494485
H           -4.35406589006516        1.27057930039872        1.76104437735731
H           -6.97863329009824        3.05828192122474       -0.75421653414286
H           -7.96993379287991        3.84781626631623       -2.85137039619173
H           -6.54179780664581        4.80697089281903       -4.62420590547204
H           -4.10240168926231        4.97114172784447       -4.26822941071699
H           -3.10357500167908        4.19201898331512       -2.16513660053905
H           -3.39603892244416        1.44011002131013       -1.93382488739166
H           -1.18050499372843        0.38076988542284       -1.85397659953613
H            1.88981319517300        2.48032738038328        0.02591748918997

          :  Hamiltonian                  GFN2-xTB          :
         :: gradient norm              0.000150516503 Eh/a0 ::
         :: HOMO-LUMO gap              1.081613281551 eV    ::
         :: SCC energy              -163.139624718184 Eh    ::
         :: -> dispersion             -0.153095759957 Eh    ::
         :: repulsion energy           3.067434725856 Eh    ::

    * Orbital Energies and Occupations

         #    Occupation            Energy/Eh            Energy/eV
      -------------------------------------------------------------
         1        2.0000           -0.6868730             -18.6908
       ...           ...                  ...                  ...
       137        2.0000           -0.4149257             -11.2907
       138        2.0000           -0.4141080             -11.2685
       139        2.0000           -0.4132872             -11.2461
       140        2.0000           -0.4127563             -11.2317
       141        2.0000           -0.4117452             -11.2042
       142        2.0000           -0.4105435             -11.1715
       143        2.0000           -0.4100486             -11.1580
       144        2.0000           -0.4094617             -11.1420
       145        2.0000           -0.4021430             -10.9429
       146        2.0000           -0.4000230             -10.8852
       147        2.0000           -0.3617103              -9.8426
       148        2.0000           -0.3575917              -9.7306
       149        2.0000           -0.3558798              -9.6840 (HOMO)
       150                         -0.3161312              -8.6024 (LUMO)
       151                         -0.2966071              -8.0711
       152                         -0.2751281              -7.4866
       153                         -0.2651873              -7.2161
       154                         -0.2571505              -6.9974
       155                         -0.2425227              -6.5994
       156                         -0.2382890              -6.4842
       157                         -0.2363730              -6.4320
       158                         -0.2358538              -6.4179
       159                         -0.2347028              -6.3866
       160                         -0.2326695              -6.3313
       ...                                ...                  ...
       292                          1.1664992              31.7421
      -------------------------------------------------------------
                  HL-Gap            0.0397485 Eh            1.0816 eV

     #   Z          covCN         q      C6AA      α(0)
     1   7 N        0.911    -0.227    25.959     7.369
     2   6 C        1.913     0.112    28.331     8.596
     3   6 C        2.972     0.022    27.520     8.605
     4   6 C        2.923    -0.020    28.514     8.757
     5   6 C        2.923    -0.025    28.618     8.773
     6   6 C        2.988     0.006    27.885     8.662
     7   6 C        2.975     0.008    27.828     8.653
     8   6 C        2.931    -0.025    28.628     8.775
     9   6 C        2.975     0.008    27.826     8.653
    10   6 C        2.931    -0.025    28.628     8.775
    11   6 C        2.972     0.022    27.518     8.605
    12   6 C        1.913     0.112    28.331     8.596
    13   7 N        0.911    -0.227    25.957     7.369
    14   6 C        2.923    -0.020    28.514     8.757
    15   6 C        2.923    -0.025    28.617     8.773
    16   6 C        2.988     0.006    27.885     8.662
    17   6 C        2.963     0.081    26.183     8.393
    18   7 N        1.849    -0.239    27.096     7.715
    19   6 C        2.966     0.082    26.164     8.390
    20   6 C        2.921    -0.048    29.198     8.861
    21   6 C        2.977     0.013    27.709     8.635
    22   6 C        2.978     0.003    27.953     8.672
    23   6 C        2.923    -0.033    28.819     8.804
    24   6 C        2.920    -0.048    29.195     8.861
    25   6 C        2.927     0.066    26.513     8.444
    26   7 N        2.753    -0.074    22.667     7.071
    27   6 C        2.922     0.064    26.557     8.451
    28   6 C        2.922    -0.048    29.194     8.861
    29   6 C        2.920    -0.029    28.719     8.788
    30   6 C        2.919    -0.038    28.948     8.823
    31   6 C        2.920    -0.029    28.723     8.789
    32   6 C        2.923    -0.048    29.202     8.862
    33   6 C        2.927     0.065    26.555     8.451
    34   6 C        2.923    -0.046    29.142     8.853
    35   6 C        2.920    -0.028    28.690     8.784
    36   6 C        2.919    -0.036    28.904     8.816
    37   6 C        2.920    -0.029    28.715     8.787
    38   6 C        2.922    -0.046    29.152     8.854
    39   6 C        2.922    -0.047    29.177     8.858
    40   6 C        2.924    -0.031    28.763     8.795
    41   6 C        2.977     0.013    27.710     8.635
    42   6 C        2.978     0.006    27.893     8.663
    43   6 C        2.923    -0.033    28.811     8.802
    44   6 C        2.922    -0.046    29.147     8.853
    45   6 C        2.927     0.067    26.509     8.444
    46   7 N        2.752    -0.076    22.709     7.078
    47   6 C        2.926     0.065    26.542     8.449
    48   6 C        2.922    -0.047    29.168     8.857
    49   6 C        2.920    -0.029    28.726     8.789
    50   6 C        2.919    -0.037    28.927     8.820
    51   6 C        2.920    -0.028    28.705     8.786
    52   6 C        2.923    -0.046    29.138     8.852
    53   6 C        2.921     0.065    26.554     8.450
    54   6 C        2.922    -0.049    29.219     8.864
    55   6 C        2.920    -0.029    28.729     8.790
    56   6 C        2.919    -0.039    28.965     8.826
    57   6 C        2.920    -0.029    28.720     8.788
    58   6 C        2.923    -0.049    29.226     8.865
    59   6 C        2.920    -0.046    29.131     8.851
    60   6 C        2.924    -0.030    28.758     8.794
    61   6 C        2.921    -0.048    29.180     8.858
    62   6 C        2.966     0.082    26.161     8.390
    63   7 N        1.849    -0.239    27.087     7.714
    64   6 C        2.963     0.081    26.190     8.394
    65   1 H        0.926     0.047     2.352     2.398
    66   1 H        0.926     0.068     2.109     2.271
    67   1 H        0.926     0.046     2.368     2.406
    68   1 H        0.926     0.046     2.367     2.406
    69   1 H        0.926     0.047     2.352     2.398
    70   1 H        0.926     0.068     2.108     2.270
    71   1 H        0.926     0.054     2.272     2.357
    72   1 H        0.926     0.036     2.501     2.473
    73   1 H        0.926     0.037     2.491     2.468
    74   1 H        0.926     0.032     2.564     2.504
    75   1 H        0.926     0.032     2.552     2.498
    76   1 H        0.926     0.031     2.566     2.505
    77   1 H        0.926     0.033     2.551     2.498
    78   1 H        0.926     0.031     2.570     2.507
    79   1 H        0.926     0.029     2.597     2.520
    80   1 H        0.926     0.033     2.542     2.493
    81   1 H        0.926     0.031     2.577     2.510
    82   1 H        0.926     0.034     2.536     2.490
    83   1 H        0.926     0.034     2.533     2.489
    84   1 H        0.926     0.033     2.550     2.497
    85   1 H        0.926     0.033     2.550     2.497
    86   1 H        0.926     0.035     2.513     2.479
    87   1 H        0.926     0.036     2.496     2.471
    88   1 H        0.926     0.034     2.531     2.488
    89   1 H        0.926     0.033     2.541     2.493
    90   1 H        0.926     0.032     2.561     2.503
    91   1 H        0.926     0.031     2.574     2.509
    92   1 H        0.926     0.029     2.604     2.523
    93   1 H        0.926     0.030     2.586     2.515
    94   1 H        0.926     0.032     2.563     2.503
    95   1 H        0.926     0.031     2.578     2.511
    96   1 H        0.926     0.032     2.563     2.503
    97   1 H        0.926     0.030     2.591     2.517
    98   1 H        0.926     0.035     2.516     2.480
    99   1 H        0.926     0.032     2.556     2.500
   100   1 H        0.926     0.053     2.277     2.360

molecular dipole:
                 x           y           z       tot (Debye)
 q only:       -3.419      -0.098       0.057
   full:       -4.148      -0.112       0.056      10.549

 projected vibrational frequencies (cm⁻¹)
eigval :       -0.00    -0.00    -0.00    -0.00     0.00     0.00
eigval :        7.82     8.96    12.15    13.57    19.31    22.22
eigval :       32.31    34.63    42.04    46.53    51.86    54.15
eigval :       56.66    60.31    65.67    69.52    74.52    77.40
eigval :       77.64    82.12    89.94    99.04   105.93   110.76
eigval :      113.88   133.27   137.39   140.87   145.50   173.47
eigval :      174.46   188.71   213.09   214.59   227.83   230.26
eigval :      234.52   244.50   255.21   271.54   286.56   294.29
eigval :      307.27   310.72   317.84   324.24   341.47   355.49
eigval :      358.99   363.04   372.82   378.01   378.74   379.07
eigval :      379.73   382.48   388.37   389.95   390.97   397.12
eigval :      406.81   416.45   428.20   438.30   450.61   466.80
eigval :      476.76   478.11   486.87   490.36   492.84   504.55
eigval :      507.88   511.74   535.62   536.88   550.22   553.54
eigval :      575.09   580.43   582.11   584.64   585.35   589.44
eigval :      592.22   594.46   595.59   604.53   612.13   621.19
eigval :      626.22   637.42   643.51   647.04   659.15   659.29
eigval :      661.46   664.33   674.81   678.00   685.30   690.64
eigval :      699.54   709.99   714.73   735.35   736.83   745.84
eigval :      756.49   756.82   761.59   762.23   769.69   803.07
eigval :      816.95   817.88   829.59   831.74   847.75   854.49
eigval :      860.06   869.25   871.66   872.00   873.87   874.42
eigval :      876.32   877.09   879.28   891.51   892.10   892.87
eigval :      894.61   902.07   910.20   910.83   917.47   918.36
eigval :      918.56   924.36   924.60   926.41   927.36   927.44
eigval :      928.07   928.26   928.79   929.49   930.03   930.27
eigval :      932.78   952.24   954.34   967.10   983.07   990.10
eigval :     1004.86  1005.54  1012.31  1031.21  1048.35  1062.51
eigval :     1071.75  1083.07  1083.68  1084.27  1085.18  1122.23
eigval :     1122.55  1124.44  1125.85  1137.85  1141.19  1145.87
eigval :     1146.08  1180.33  1180.71  1180.74  1181.13  1183.96
eigval :     1185.44  1187.29  1190.45  1194.29  1195.28  1195.80
eigval :     1197.57  1201.79  1213.14  1214.82  1229.25  1234.88
eigval :     1241.44  1253.62  1266.23  1268.89  1271.62  1277.71
eigval :     1279.11  1279.99  1282.79  1283.17  1294.96  1297.27
eigval :     1312.51  1312.98  1316.69  1320.92  1322.34  1324.87
eigval :     1326.82  1327.15  1327.45  1328.12  1331.85  1336.15
eigval :     1359.02  1376.24  1392.10  1408.03  1410.82  1422.58
eigval :     1430.10  1434.42  1436.18  1437.27  1443.39  1443.85
eigval :     1446.33  1466.69  1471.57  1472.69  1475.51  1476.80
eigval :     1477.48  1488.94  1494.92  1497.09  1521.65  1543.38
eigval :     1547.30  1554.55  1556.78  1574.78  1577.29  1577.87
eigval :     1581.28  1581.80  1585.85  1587.48  1594.87  1595.12
eigval :     1595.76  1598.95  1602.01  1604.17  2374.31  2375.93
eigval :     3075.68  3076.25  3076.69  3076.90  3077.16  3077.39
eigval :     3077.95  3078.08  3078.25  3078.92  3080.46  3082.53
eigval :     3085.55  3086.51  3087.02  3087.22  3088.65  3089.63
eigval :     3089.89  3090.17  3090.76  3091.48  3093.82  3093.99
eigval :     3094.70  3094.79  3095.02  3096.11  3098.41  3098.85
eigval :     3099.03  3100.65  3104.67  3111.39  3112.90  3112.97

   temp. (K)  partition function   enthalpy   heat capacity  entropy
                                   cal/mol     cal/K/mol   cal/K/mol   J/K/mol
 298.15  VIB  0.869E+25            30547.086    188.606    193.610
         ROT  0.243E+09              888.752      2.981     41.349
         INT  0.211E+34            31435.838    191.587    234.960
         TR   0.226E+29             1481.254      4.968     45.958
         TOT                       32917.0922   196.5553   280.9177  1175.3596

       T/K    H(0)-H(T)+PV         H(T)/Eh          T*S/Eh         G(T)/Eh
   ------------------------------------------------------------------------
    298.15    0.524567E-01    0.805209E+00    0.133473E+00    0.671736E+00
   ------------------------------------------------------------------------

         :::::::::::::::::::::::::::::::::::::::::::::::::::::
         ::                  THERMODYNAMIC                  ::
         :::::::::::::::::::::::::::::::::::::::::::::::::::::
         :: total free energy        -159.400454167659 Eh   ::
         ::.................................................::
         :: total energy             -160.072189992327 Eh   ::
         :: zero point energy           0.752752157504 Eh   ::
         :: G(RRHO) w/o ZPVE           -0.081016332836 Eh   ::
         :: G(RRHO) contrib.            0.671735824668 Eh   ::
         :::::::::::::::::::::::::::::::::::::::::::::::::::::

           -------------------------------------------------
          | TOTAL ENERGY             -160.072189992327 Eh   |
          | TOTAL ENTHALPY           -159.266981109466 Eh   |
          | TOTAL FREE ENERGY        -159.400454167659 Eh   |
          | GRADIENT NORM               0.000150453314 Eh/α |
          | HOMO-LUMO GAP               1.081613090852 eV   |
           -------------------------------------------------

 * finished run on 2025/07/17 at 20:41:55.230
