   * xtb version 6.7.1 (edcfbbe) compiled by 'albert@albert-system' on 2024-07-22

   ID    Z sym.   atoms
    1    7 N      1, 13, 18, 26, 46, 63
    2    6 C      2-12, 14-17, 19-25, 27-45, 47-62, 64
    3    1 H      65-100

          program call               : xtb data2507/gas/TPA-PZCN/TPA-PZCN_gas_T1_crest.xyz --gfn 2 --spinpol --tblite --uhf 2 --ohess vtight --parallel 40 --molden --ceasefiles --namespace data2507/gas/TPA-PZCN/TPA-PZCN_gas_T1_finalOpt
 * total energy  :  -160.0314181 Eh     change        0.7628390E-07 Eh
 * total energy  :  -160.0314389 Eh     change       -0.2080753E-04 Eh
 * total energy  :  -160.0314345 Eh     change        0.4493391E-05 Eh
 * total energy  :  -160.0314450 Eh     change       -0.1052116E-04 Eh
 * total energy  :  -160.0314424 Eh     change        0.2558646E-05 Eh
 * total energy  :  -160.0314477 Eh     change       -0.5287652E-05 Eh
 * total energy  :  -160.0314485 Eh     change       -0.8164033E-06 Eh
 * total energy  :  -160.0314499 Eh     change       -0.1387599E-05 Eh
 * total energy  :  -160.0314500 Eh     change       -0.1038825E-06 Eh
 * total energy  :  -160.0314508 Eh     change       -0.7725796E-06 Eh
 * total energy  :  -160.0314694 Eh     change       -0.2138638E-06 Eh
 * total energy  :  -160.0314694 Eh     change        0.1917701E-07 Eh
 * total energy  :  -160.0314696 Eh     change       -0.2527703E-06 Eh
 * total energy  :  -160.0314701 Eh     change       -0.4913865E-06 Eh
 * total energy  :  -160.0314706 Eh     change       -0.4288843E-06 Eh
 * total energy  :  -160.0314705 Eh     change        0.2121686E-07 Eh
 * total energy  :  -160.0314706 Eh     change       -0.1957531E-07 Eh
 * total energy  :  -160.0314707 Eh     change       -0.1606071E-06 Eh
 * total energy  :  -160.0314708 Eh     change       -0.6825613E-07 Eh
   *** GEOMETRY OPTIMIZATION CONVERGED AFTER 47 ITERATIONS ***

 final structure:
================
100
 xtb: 6.7.1 (edcfbbe)
N           11.15018233666375        4.16634516638673       -0.43878732890397
C           10.17144687631801        3.57102640896167       -0.37679529039056
C            8.96431927793436        2.84308011690571       -0.29963492017629
C            7.73417197225633        3.52189550079829       -0.37260760099447
C            6.57305966544811        2.80522120064763       -0.29654506806329
C            6.59020569789176        1.40615651731986       -0.14717674720464
C            7.82444606448646        0.71407973914774       -0.07314060296111
C            9.00023540167603        1.46564882373321       -0.15283715034343
C            7.82385060447973       -0.72344586426370        0.08015844151372
C            8.99906777697439       -1.47594710302301        0.15954091275946
C            8.96208394128074       -2.85333708192517        0.30633813972376
C           10.16857035692951       -3.58244010116012        0.38255395098197
N           11.14677827523351       -4.17849609063420        0.44563410696058
C            7.73139594901540       -3.53114008621615        0.37972885454208
C            6.57083195286180       -2.81354853975285        0.30393794925548
C            6.58905198157341       -1.41451248322385        0.15445802012195
C            5.34813284551556       -0.71262135568852        0.07938909933612
N            4.19271322098326       -1.35613671864922        0.14641782541034
C            3.02306739556288       -0.72134904964963        0.07782766464751
C            1.80155474329273       -1.38036218936289        0.14400580461033
C            0.58996436794798       -0.70223010060152        0.07589701127155
C           -0.65896237276420       -1.47335238191329        0.14099618928235
C           -0.79893736686510       -2.62135391742589       -0.63846839382016
C           -1.99131226471525       -3.31195303541469       -0.67948496567060
C           -3.08645294416547       -2.86054917249602        0.05449015345505
N           -4.32982803372399       -3.50169588896467       -0.05411750365183
C           -4.37543177454706       -4.89797072017734       -0.04533175278779
C           -5.26352881839829       -5.60077776737967       -0.86012075297154
C           -5.28679371403896       -6.98139056068041       -0.83246121604231
C           -4.42473052640798       -7.68353579495097       -0.00574245891931
C           -3.53293443335660       -6.99071485925637        0.79691122570774
C           -3.50643964046996       -5.61029056711342        0.78270288182370
C           -5.46481714634470       -2.73678695913155       -0.32906430173562
C           -5.35922540294031       -1.56193839556916       -1.07629156953262
C           -6.48835999972294       -0.83306307029064       -1.38974237664285
C           -7.73756798832971       -1.25696914831912       -0.96711417157410
C           -7.84520299591428       -2.40516942416731       -0.19974187709943
C           -6.72136233162220       -3.13939354417659        0.12472848651959
C           -2.93629014574607       -1.75055494741104        0.88511259153090
C           -1.73496015398788       -1.07705021815404        0.93722428876107
C            0.59066781408488        0.69875260813779       -0.07018330362882
C           -0.65728247069356        1.47142990756218       -0.13618063477556
C           -0.79706448434237        2.61814379569131        0.64516715321809
C           -1.98835726837403        3.31062668469414        0.68483699504101
C           -3.08252607800747        2.86288150183715       -0.05291805114253
N           -4.32436592028744        3.50702960717080        0.05319384578530
C           -5.46383285311138        2.74489621727744        0.31725798816083
C           -5.36724715761547        1.56502156701540        1.05772122737318
C           -6.50111174446000        0.83892153630602        1.36035378555189
C           -7.74618374019664        1.27063326753616        0.93340909573786
C           -7.84484240460906        2.42413401052662        0.17282970063289
C           -6.71618985581064        3.15571455608764       -0.14071706585607
C           -4.36555332486948        4.90365537338106        0.05251745383678
C           -5.25326159007533        5.60418996205208        0.86962886695662
C           -5.27190058044924        6.98503334750771        0.85065500685728
C           -4.40566655217956        7.68947393134513        0.03027717211580
C           -3.51450274275363        6.99878732561474       -0.77491551971043
C           -3.49254205894677        5.61821004937450       -0.76927615582669
C           -2.93237937990198        1.75397170251528       -0.88508026718122
C           -1.73222432603197        1.07821932286248       -0.93530543808561
C            1.80279805374187        1.37588854866960       -0.13757888305767
C            3.02372060244481        0.71584765157029       -0.07096828823123
N            4.19385145501063        1.34971420406747       -0.13923313498701
C            5.34874979597948        0.70525029773070       -0.07208415761795
H            7.72355181295062        4.59529791090073       -0.48720090187013
H            5.61245740948764        3.29416623889968       -0.34921854190955
H            9.96593087647020        0.98766694105337       -0.10143540567768
H            9.96511332259245       -0.99871015550749        0.10778875074365
H            7.71996287095889       -4.60453348667500        0.49433419406798
H            5.60985313820703       -3.30172745629392        0.35685464155749
H            1.81401043322680       -2.45096317721319        0.28008981266508
H            0.02587534854366       -2.94787582870101       -1.25446284621360
H           -2.09560926517264       -4.18595656423468       -1.30570651846199
H           -5.92450936768757       -5.05904116953704       -1.52045701651240
H           -5.97731757655695       -7.51341629012306       -1.47003116789995
H           -4.44588858947550       -8.76236560686102        0.01060208332322
H           -2.85748075101399       -7.52917028314571        1.44501727939609
H           -2.81678333309707       -5.07093297237950        1.41543652260908
H           -4.38850335757846       -1.23970127790894       -1.42301738330866
H           -6.39730169211852        0.06796228310760       -1.97813850784416
H           -8.61855466153918       -0.69353580489494       -1.23210910438050
H           -8.81266300895335       -2.73284055988443        0.15140390342592
H           -6.80781386937340       -4.03157384624191        0.72743392978521
H           -3.77502031580276       -1.42237108210893        1.48119620671468
H           -1.62368543418959       -0.23429443551221        1.60290628283218
H            0.02694505758232        2.94208159553334        1.26360421413114
H           -2.09257031489460        4.18343370347322        1.31272875815196
H           -4.39978587416263        1.23655713650527        1.40769093389413
H           -6.41702388903524       -0.06622154512205        1.94343485249748
H           -8.63096177195758        0.70921150364598        1.18991187856433
H           -8.80898932256738        2.75814186879693       -0.18144179429928
H           -6.79561969898184        4.05214970975840       -0.73804834459198
H           -5.91758051024159        5.06039472537139        1.52491179778840
H           -5.96209665506792        7.51533811132869        1.49000687962831
H           -4.42314723395800        8.76845239857399        0.02076010806421
H           -2.83589066986904        7.53908143455207       -1.41817019778566
H           -2.80327935428390        5.08050076567333       -1.40383805582814
H           -3.77017355126437        1.42838874825156       -1.48389156360949
H           -1.62093543611624        0.23618331578868       -1.60191567318531
H            1.81616782733715        2.44650335443923       -0.27347332955625

 projected vibrational frequencies (cm⁻¹)
eigval :       -0.00    -0.00    -0.00     0.00     0.00     0.00
eigval :        7.70    10.13    10.36    13.94    17.98    34.52
eigval :       35.94    39.20    41.48    45.05    48.98    55.15
eigval :       56.96    57.08    63.44    78.46    78.89    80.26
eigval :       80.57    92.78    95.63    98.45   105.50   105.77
eigval :      120.72   137.80   139.50   142.71   153.17   176.88
eigval :      177.30   194.44   207.89   218.70   222.54   231.67
eigval :      232.89   244.26   262.47   262.96   284.46   288.95
eigval :      299.82   307.88   322.10   323.21   336.28   346.03
eigval :      359.33   372.47   374.46   376.86   378.66   378.74
eigval :      381.79   384.40   387.08   393.83   395.50   396.97
eigval :      402.36   410.21   418.37   438.00   449.90   461.58
eigval :      473.02   474.90   489.76   492.71   495.31   502.88
eigval :      509.89   514.46   534.76   534.88   547.51   553.65
eigval :      565.95   580.04   582.73   583.91   584.25   588.57
eigval :      591.79   593.57   595.26   602.16   611.33   615.36
eigval :      620.80   623.16   633.45   642.55   650.75   657.72
eigval :      658.56   659.97   661.25   673.78   678.30   678.47
eigval :      679.14   698.93   703.92   710.05   723.36   729.20
eigval :      742.35   754.75   756.89   759.99   763.35   788.97
eigval :      813.46   814.72   821.47   823.04   824.71   834.27
eigval :      848.01   855.01   867.26   867.34   868.65   870.63
eigval :      870.74   873.71   874.56   889.24   891.73   892.63
eigval :      896.60   900.14   909.97   910.45   914.89   915.06
eigval :      915.87   918.35   920.09   924.28   925.40   926.89
eigval :      927.21   927.79   928.00   928.83   930.77   932.05
eigval :      932.79   940.02   952.88   954.77   982.94   989.16
eigval :     1004.02  1004.24  1015.01  1029.69  1040.02  1061.39
eigval :     1078.05  1083.35  1083.40  1084.78  1084.84  1122.34
eigval :     1122.37  1125.24  1125.39  1137.67  1137.75  1144.80
eigval :     1146.70  1179.62  1179.84  1179.85  1180.23  1182.19
eigval :     1185.17  1188.36  1189.37  1193.46  1193.48  1195.90
eigval :     1196.97  1205.35  1213.79  1214.94  1234.30  1237.06
eigval :     1240.01  1245.61  1248.78  1265.82  1268.38  1269.06
eigval :     1278.12  1278.35  1280.75  1281.86  1281.95  1294.04
eigval :     1298.33  1309.24  1313.04  1315.11  1315.83  1319.83
eigval :     1322.89  1324.04  1325.63  1328.47  1329.16  1330.52
eigval :     1343.76  1354.16  1382.87  1397.19  1398.88  1408.56
eigval :     1409.87  1420.45  1421.03  1435.46  1435.82  1443.73
eigval :     1444.00  1455.56  1467.11  1469.07  1469.57  1471.55
eigval :     1472.66  1479.62  1482.29  1486.90  1500.90  1513.41
eigval :     1525.73  1531.01  1552.51  1552.98  1570.18  1574.29
eigval :     1574.37  1575.37  1578.30  1578.44  1586.71  1590.07
eigval :     1590.86  1590.90  1598.55  1598.74  2362.90  2366.28
eigval :     3077.77  3077.98  3078.25  3078.35  3078.69  3078.73
eigval :     3079.49  3079.52  3080.02  3080.20  3081.95  3082.79
eigval :     3088.03  3088.18  3088.98  3089.40  3090.50  3090.78
eigval :     3090.92  3091.06  3091.15  3091.38  3091.97  3092.12
eigval :     3092.98  3093.09  3093.86  3093.94  3098.42  3100.16
eigval :     3100.39  3100.97  3102.41  3102.67  3102.81  3109.15

   temp. (K)  partition function   enthalpy   heat capacity  entropy
                                   cal/mol     cal/K/mol   cal/K/mol   J/K/mol
 298.15  VIB  0.416E+25            30591.083    189.895    193.225
         ROT  0.127E+09              888.752      2.981     40.064
         INT  0.529E+33            31479.835    192.876    233.289
         TR   0.226E+29             1481.254      4.968     45.958
         TOT                       32961.0889   197.8440   279.2468  1168.3684

       T/K    H(0)-H(T)+PV         H(T)/Eh          T*S/Eh         G(T)/Eh
   ------------------------------------------------------------------------
    298.15    0.525268E-01    0.803095E+00    0.132679E+00    0.670416E+00
   ------------------------------------------------------------------------

         :::::::::::::::::::::::::::::::::::::::::::::::::::::
         ::                  THERMODYNAMIC                  ::
         :::::::::::::::::::::::::::::::::::::::::::::::::::::
         :: total free energy        -159.361054532889 Eh   ::
         ::.................................................::
         :: total energy             -160.031470781014 Eh   ::
         :: zero point energy           0.750568551363 Eh   ::
         :: G(RRHO) w/o ZPVE           -0.080152303238 Eh   ::
         :: G(RRHO) contrib.            0.670416248125 Eh   ::
         :::::::::::::::::::::::::::::::::::::::::::::::::::::

           -------------------------------------------------
          | TOTAL ENERGY             -160.031470781014 Eh   |
          | TOTAL ENTHALPY           -159.228375391030 Eh   |
          | TOTAL FREE ENERGY        -159.361054532889 Eh   |
          | GRADIENT NORM               0.000133212126 Eh/α |
           -------------------------------------------------

 * finished run on 2025/07/17 at 20:59:18.903
