   * xtb version 6.7.1 (edcfbbe) compiled by 'albert@albert-system' on 2024-07-22

   ID    Z sym.   atoms
    1    7 N      1, 13, 18, 26, 46, 63
    2    6 C      2-12, 14-17, 19-25, 27-45, 47-62, 64
    3    1 H      65-100

          program call               : xtb data2507/gas/TPA-PZCN/TPA-PZCN_gas_S0_finalOpt.xtbopt.xyz --gfn 2 --spinpol --tblite --uhf 2 --ohess vtight --parallel 40 --molden --ceasefiles --namespace data2507/gas/TPA-PZCN/TPA-PZCN_gas_T1_preOpt
 * total energy  :  -160.0275304 Eh     change       -0.2681077E-08 Eh
 * total energy  :  -160.0303611 Eh     change       -0.2830727E-02 Eh
 * total energy  :  -160.0313258 Eh     change       -0.9646717E-03 Eh
 * total energy  :  -160.0314406 Eh     change       -0.1148685E-03 Eh
 * total energy  :  -160.0313389 Eh     change        0.1017195E-03 Eh
 * total energy  :  -160.0314908 Eh     change       -0.1518915E-03 Eh
 * total energy  :  -160.0314920 Eh     change       -0.1207870E-05 Eh
 * total energy  :  -160.0314854 Eh     change        0.6600419E-05 Eh
 * total energy  :  -160.0314957 Eh     change       -0.1027881E-04 Eh
 * total energy  :  -160.0314983 Eh     change       -0.2592505E-05 Eh
 * total energy  :  -160.0315214 Eh     change       -0.1274355E-05 Eh
 * total energy  :  -160.0315228 Eh     change       -0.1391593E-05 Eh
 * total energy  :  -160.0315242 Eh     change       -0.1425438E-05 Eh
 * total energy  :  -160.0315256 Eh     change       -0.1439080E-05 Eh
 * total energy  :  -160.0315264 Eh     change       -0.7901749E-06 Eh
 * total energy  :  -160.0315273 Eh     change       -0.8589610E-06 Eh
 * total energy  :  -160.0315279 Eh     change       -0.5812617E-06 Eh
 * total energy  :  -160.0315279 Eh     change        0.7916782E-08 Eh
 * total energy  :  -160.0315280 Eh     change       -0.9991774E-07 Eh
   *** GEOMETRY OPTIMIZATION CONVERGED AFTER 45 ITERATIONS ***

 final structure:
================
100
 xtb: 6.7.1 (edcfbbe)
N           11.18020924844164        4.38576708501108        0.14277075669764
C           10.21477039627534        3.76645256292741        0.12051906604777
C            9.02356663824343        3.00929459958698        0.09326580044855
C            7.77917638468507        3.66587418599092        0.10270258589126
C            6.63357782959261        2.92131045368599        0.07821921509470
C            6.68046121134860        1.51527035549163        0.04394585653474
C            7.92921900033147        0.84554667033797        0.03212269573615
C            9.08876920547569        1.62562668780467        0.05814845877768
C            7.95900219776736       -0.59920226620532       -0.00492759185066
C            9.14984700315974       -1.33083782503244       -0.02576112967194
C            9.14191550043902       -2.71601639430161       -0.06032053725878
C           10.36348236121453       -3.42336862471785       -0.08156322665962
N           11.35383218917593       -4.00218403526825       -0.09964555799483
C            7.92574592007797       -3.42335775046246       -0.07466957496131
C            6.75031526981641       -2.72659343597547       -0.05547452356404
C            6.73903005390083       -1.31987524243145       -0.02163442820999
C            5.48354992554162       -0.64057233378863       -0.00601385879088
N            4.34173960138435       -1.31019678878207       -0.01866032643525
C            3.15754160928659       -0.69846911566275       -0.00513220219591
C            1.95211555736159       -1.39178044435062        0.00060867987244
C            0.73321719087417       -0.72884636565701        0.01892099682272
C           -0.52942243461640       -1.47527565189418        0.09947817090728
C           -0.82167380098072       -2.51807795003858       -0.77559020793256
C           -2.06002786452637       -3.12804264442656       -0.76237446314484
C           -3.03702387864747       -2.71359754859346        0.14212645543514
N           -4.33087844003537       -3.24259495652846        0.11587470024316
C           -4.54693249100804       -4.59962584536292       -0.12527290774264
C           -5.67936420055833       -5.02655355120922       -0.82010734034209
C           -5.88606270953340       -6.37210220034956       -1.05168054302394
C           -4.97022850174870       -7.31118983757561       -0.60549501792951
C           -3.84210820849199       -6.89216746924553        0.08111636385996
C           -3.62940003379228       -5.54984698508355        0.32527668431836
C           -5.40493098682204       -2.36434743155130        0.31111068653669
C           -5.36325340777886       -1.08197277046447       -0.23763772872087
C           -6.40855163160390       -0.20378711083028       -0.03441804023669
C           -7.50739130415590       -0.58493712335120        0.71827803521773
C           -7.55629050549801       -1.85906558479014        1.26021781020666
C           -6.51626783302321       -2.74681039528228        1.06083126315231
C           -2.71895062508037       -1.72435452553723        1.07442288956761
C           -1.48602829906072       -1.11598791303113        1.05004930224659
C            0.70551042674829        0.67800580593068       -0.00191441708133
C           -0.58561980202370        1.38243027851341       -0.07756122314212
C           -0.95228990528835        2.32268727079124        0.88123437120875
C           -2.20593494561776        2.89852517211390        0.85854014800349
C           -3.11449491820448        2.56935507829212       -0.14636854229597
N           -4.40416826832187        3.12024654833859       -0.13542035135208
C           -5.11228941885970        3.13347209037149        1.07142274787025
C           -5.94825216799001        4.20027678237260        1.39955269084208
C           -6.65167483023429        4.18929735828638        2.58828460043489
C           -6.52977254728720        3.12486376838390        3.46687970856400
C           -5.69148954445071        2.06829091723825        3.14989474081614
C           -4.98573022710912        2.06780157026974        1.96333652848679
C           -4.97610831647788        3.58818075384668       -1.31818105238269
C           -6.35404480422894        3.51464395708912       -1.53060875981879
C           -6.90329414053564        3.97898336613485       -2.70950783845505
C           -6.09607537897007        4.51755749168730       -3.69804702410695
C           -4.72762301441587        4.59174824750854       -3.49432055268730
C           -4.16874071057569        4.13615264802122       -2.31699310003980
C           -2.72846212631558        1.67586561521955       -1.14465522385504
C           -1.48439778537864        1.08501045061270       -1.10107068246290
C            1.89463219787187        1.39052861839460        0.01369820809360
C            3.12830523233912        0.74720782407165        0.01862031202087
N            4.28561842946678        1.40696675517985        0.03378084501015
C            5.45436475393552        0.78481488434431        0.02341446222234
H            7.74578851976789        4.74456952231981        0.12963689015853
H            5.66282361805051        3.39269741175076        0.08527109982315
H           10.06436930716545        1.16535337108956        0.05241871341596
H           10.10558423456479       -0.83068974093283       -0.01611759954776
H            7.93697623541065       -4.50252344767513       -0.10101223149142
H            5.79986759392900       -3.23761703835437       -0.06631858642908
H            1.98423216739217       -2.47038885125988        0.01991941330082
H           -0.08555705783449       -2.82034592845069       -1.50619815769505
H           -2.28971540770195       -3.90817787810475       -1.47326002070690
H           -6.38797276130250       -4.29612415809398       -1.18197548874531
H           -6.76520017042571       -6.68906222619501       -1.59295780229970
H           -5.13435844742059       -8.36142878067457       -0.79154116414504
H           -3.12559215156921       -7.61733492797083        0.43750332875496
H           -2.75644439786851       -5.22691603496211        0.87329933823482
H           -4.50639499032741       -0.78346870540009       -0.82401451775153
H           -6.36754669621743        0.78012681479832       -0.47568199474922
H           -8.31984623655098        0.10654583703448        0.88125098874177
H           -8.40816437262760       -2.16296329948033        1.85032688446920
H           -6.55172298233541       -3.73695202528094        1.49114664237487
H           -3.45553683796207       -1.43510744449153        1.80978692023757
H           -1.25194739319055       -0.35672188126373        1.78062919964649
H           -0.25737934003143        2.57812120653396        1.66812945947039
H           -2.49655208070971        3.60389418768630        1.62338429264846
H           -6.03622733586466        5.03564212102149        0.72042699545616
H           -7.29448166996377        5.02181953328495        2.83331845935928
H           -7.08298515177568        3.12025996825239        4.39354876804091
H           -5.59376248722024        1.23272050629987        3.82701987896389
H           -4.34120681821784        1.23879571571677        1.71042697786718
H           -6.99200226467858        3.09107154498918       -0.76857238189981
H           -7.97076026458544        3.91209762616290       -2.85954097447349
H           -6.52974078396373        4.87749210129630       -4.61829778724745
H           -4.08980260287868        5.01625230477349       -4.25541015163130
H           -3.10291319907324        4.20781930666068       -2.15772572494720
H           -3.41918136507651        1.43716054509322       -1.94043839491176
H           -1.20206927660609        0.37552761293838       -1.86486890097981
H            1.88143443561007        2.46967743369018       -0.00284153749774

 projected vibrational frequencies (cm⁻¹)
eigval :       -0.00    -0.00    -0.00     0.00     0.00     0.00
eigval :        7.60     8.62    11.72    13.92    18.95    22.03
eigval :       32.37    34.69    42.90    48.06    51.74    54.86
eigval :       56.72    60.60    65.62    69.58    74.93    77.58
eigval :       80.84    82.49    92.75    98.36   102.50   109.05
eigval :      113.56   132.55   137.17   140.43   150.74   171.77
eigval :      177.37   188.95   211.24   213.43   224.68   228.68
eigval :      233.37   244.28   259.21   262.02   280.85   294.70
eigval :      301.50   307.26   316.66   323.48   340.19   348.06
eigval :      356.21   361.51   373.18   377.57   378.30   378.67
eigval :      379.33   381.80   388.00   389.82   394.58   398.70
eigval :      405.33   408.88   416.88   438.48   449.68   461.59
eigval :      474.28   475.71   488.25   491.87   494.87   502.16
eigval :      508.56   511.89   533.61   534.94   548.57   553.62
eigval :      566.02   579.77   581.26   583.87   584.44   589.04
eigval :      591.42   594.00   594.65   602.43   611.49   614.97
eigval :      620.57   621.50   632.00   642.89   652.09   658.60
eigval :      659.10   660.74   662.59   674.53   678.40   678.49
eigval :      679.10   697.88   701.85   710.70   723.01   728.90
eigval :      743.45   755.94   756.27   760.79   761.56   788.61
eigval :      813.89   814.95   820.72   823.28   824.30   831.59
eigval :      845.75   855.30   868.58   869.00   870.95   872.52
eigval :      872.77   875.16   875.82   891.72   892.08   892.78
eigval :      895.37   900.91   910.00   910.63   915.10   915.27
eigval :      916.95   917.98   918.54   926.04   927.14   927.33
eigval :      927.77   928.05   928.35   929.06   929.48   930.12
eigval :      933.16   939.68   952.98   953.87   983.11   988.97
eigval :     1004.23  1004.97  1014.15  1030.35  1040.47  1058.71
eigval :     1078.75  1082.96  1083.52  1083.88  1084.74  1122.35
eigval :     1122.66  1124.73  1126.07  1136.72  1139.77  1144.62
eigval :     1146.47  1179.84  1180.05  1180.08  1180.62  1182.18
eigval :     1183.27  1187.90  1188.73  1192.75  1193.63  1194.74
eigval :     1196.44  1201.61  1212.43  1213.51  1232.60  1235.90
eigval :     1237.62  1243.37  1246.52  1261.84  1267.65  1269.25
eigval :     1277.84  1278.27  1281.16  1281.33  1282.17  1293.64
eigval :     1298.26  1308.42  1311.75  1314.93  1319.03  1322.17
eigval :     1322.86  1324.96  1327.25  1327.57  1328.01  1331.34
eigval :     1344.93  1353.80  1381.36  1400.14  1400.73  1408.37
eigval :     1411.03  1421.56  1422.52  1435.22  1435.62  1442.75
eigval :     1443.10  1455.39  1466.98  1468.88  1469.52  1471.52
eigval :     1472.51  1480.74  1486.63  1487.92  1500.00  1511.55
eigval :     1525.79  1538.53  1554.33  1556.03  1570.16  1574.41
eigval :     1574.94  1575.35  1578.50  1578.89  1590.28  1590.62
eigval :     1591.23  1591.78  1599.33  1599.42  2362.99  2366.30
eigval :     3076.66  3076.79  3077.80  3078.16  3078.50  3078.56
eigval :     3079.15  3079.27  3079.59  3079.61  3080.01  3082.73
eigval :     3086.65  3087.62  3088.13  3088.51  3088.86  3090.01
eigval :     3090.32  3090.77  3090.82  3090.95  3091.18  3091.25
eigval :     3091.41  3092.31  3094.41  3096.20  3098.01  3099.42
eigval :     3099.90  3100.37  3102.02  3102.43  3103.68  3108.88

   temp. (K)  partition function   enthalpy   heat capacity  entropy
                                   cal/mol     cal/K/mol   cal/K/mol   J/K/mol
 298.15  VIB  0.100E+26            30689.200    189.755    194.424
         ROT  0.243E+09              888.752      2.981     41.355
         INT  0.244E+34            31577.953    192.736    235.779
         TR   0.226E+29             1481.254      4.968     45.958
         TOT                       33059.2065   197.7038   281.7365  1178.7857

       T/K    H(0)-H(T)+PV         H(T)/Eh          T*S/Eh         G(T)/Eh
   ------------------------------------------------------------------------
    298.15    0.526832E-01    0.803029E+00    0.133862E+00    0.669166E+00
   ------------------------------------------------------------------------

         :::::::::::::::::::::::::::::::::::::::::::::::::::::
         ::                  THERMODYNAMIC                  ::
         :::::::::::::::::::::::::::::::::::::::::::::::::::::
         :: total free energy        -159.362361562349 Eh   ::
         ::.................................................::
         :: total energy             -160.031527978138 Eh   ::
         :: zero point energy           0.750345336249 Eh   ::
         :: G(RRHO) w/o ZPVE           -0.081178920460 Eh   ::
         :: G(RRHO) contrib.            0.669166415789 Eh   ::
         :::::::::::::::::::::::::::::::::::::::::::::::::::::

           -------------------------------------------------
          | TOTAL ENERGY             -160.031527978138 Eh   |
          | TOTAL ENTHALPY           -159.228499442951 Eh   |
          | TOTAL FREE ENERGY        -159.362361562349 Eh   |
          | GRADIENT NORM               0.000095028841 Eh/α |
           -------------------------------------------------

 * finished run on 2025/07/17 at 20:42:14.784
