   * xtb version 6.7.1 (edcfbbe) compiled by 'albert@albert-system' on 2024-07-22

   ID    Z sym.   atoms
    1    7 N      1, 9, 26, 33
    2    6 C      2-8, 10-15, 17-25, 27-32, 34-39, 41-48
    3    8 O      16, 40
    4    1 H      49-74

          program call               : xtb data2507/gas/PxCN/PxCN_gas_T1_crest.xyz --gfn 2 --spinpol --tblite --uhf 2 --ohess vtight --parallel 40 --molden --ceasefiles --namespace data2507/gas/PxCN/PxCN_gas_T1_finalOpt
 * total energy  :  -122.9574498 Eh     change       -0.3473815E-08 Eh
 * total energy  :  -122.9574961 Eh     change       -0.4630450E-04 Eh
 * total energy  :  -122.9575090 Eh     change       -0.1296139E-04 Eh
 * total energy  :  -122.9575114 Eh     change       -0.2360619E-05 Eh
 * total energy  :  -122.9575140 Eh     change       -0.2632175E-05 Eh
 * total energy  :  -122.9575140 Eh     change        0.1522734E-07 Eh
 * total energy  :  -122.9575159 Eh     change       -0.1882812E-05 Eh
 * total energy  :  -122.9575170 Eh     change       -0.1120141E-05 Eh
 * total energy  :  -122.9575177 Eh     change       -0.6958652E-06 Eh
 * total energy  :  -122.9575185 Eh     change       -0.7681816E-06 Eh
 * total energy  :  -122.9575203 Eh     change       -0.6052365E-06 Eh
 * total energy  :  -122.9575207 Eh     change       -0.4367395E-06 Eh
 * total energy  :  -122.9575211 Eh     change       -0.4040608E-06 Eh
 * total energy  :  -122.9575214 Eh     change       -0.3246585E-06 Eh
 * total energy  :  -122.9575217 Eh     change       -0.2830741E-06 Eh
 * total energy  :  -122.9575220 Eh     change       -0.2860419E-06 Eh
 * total energy  :  -122.9575223 Eh     change       -0.2867686E-06 Eh
 * total energy  :  -122.9575219 Eh     change        0.3534894E-06 Eh
 * total energy  :  -122.9575220 Eh     change       -0.9028818E-07 Eh
   *** GEOMETRY OPTIMIZATION CONVERGED AFTER 20 ITERATIONS ***

 final structure:
================
74
 xtb: 6.7.1 (edcfbbe)
N           -0.00582374614103        1.03027618278980        0.56421345051237
C           -0.00274499801309       -0.12956642325855        0.61612961637444
C           -0.00105932134422       -1.50876603786418        0.66907540367553
C           -1.23568311870368       -2.24144568909019        0.79044084304605
C           -2.51835659873209       -1.61467727923171        0.52977253192146
C           -2.65873577595057       -0.66869390659145       -0.49504275536943
C           -3.86330118131350       -0.04563105002777       -0.72495017773927
C           -4.97061394228288       -0.35267034770281        0.06408212383670
N           -6.20257291854227        0.31193107073218       -0.15189392238279
C           -6.30902376329598        1.68055589051857        0.06590254011496
C           -5.24145512595855        2.44494697576914        0.53066700068923
C           -5.38626609401122        3.80567808209428        0.73439754663409
C           -6.59748290362390        4.42844289178354        0.48885738924360
C           -7.67786992324772        3.67954004101336        0.05199817644522
C           -7.54176840942660        2.31743353742466       -0.15325877600858
O           -8.65602062682824        1.63288871624765       -0.55854753042528
C           -8.53349546616265        0.28732814965282       -0.76987726394148
C           -9.66247428133072       -0.39215517705021       -1.19365476944479
C           -9.60099330037734       -1.75187174230989       -1.45220572078898
C           -8.40135445698463       -2.42457908005827       -1.30091416485999
C           -7.26882291311489       -1.75316045591029       -0.87571152503570
C           -7.31774138052933       -0.39209454962203       -0.58378349580265
C           -4.85510904036206       -1.30876925515618        1.07187878099346
C           -3.64824753621917       -1.93018830103861        1.29769256502620
C           -1.15293335574712       -3.57327468508937        1.13604307688520
N           -0.00166160575678       -4.21849401496525        1.29569094611505
C            1.14936619255319       -3.57405511819623        1.13506836628928
C            1.23382977846762       -2.24194772791848        0.78971894228109
C            2.51686719795029       -1.61655411605154        0.52943769514881
C            2.65618136092486       -0.66143671544619       -0.48734459443244
C            3.86131566557423       -0.03898322264079       -0.71570664829489
C            4.97093094736799       -0.35656767155250        0.06578246771946
N            6.20397194115785        0.30706782703131       -0.14867229174759
C            6.31726825617911        1.67115852704672        0.09162136117891
C            5.25581150577456        2.43112814078855        0.57709596791339
C            5.40751081030995        3.78738461409818        0.80429289878839
C            6.61957520648900        4.40966393136691        0.56164653588978
C            7.69376337756279        3.66477341765672        0.10306542764517
C            7.55076932787279        2.30717858167277       -0.12587291026062
O            8.65885484079492        1.62577079756440       -0.55291094983152
C            8.52938637489064        0.28449030981372       -0.78655607882300
C            9.65185874754048       -0.39182488377560       -1.23205518013059
C            9.58286770770276       -1.74683921784606       -1.51264418835238
C            8.38238002845475       -2.41795493624270       -1.36084387280878
C            7.25624363856113       -1.74971097725782       -0.91419342288388
C            7.31278207363112       -0.39365094505323       -0.60121759794841
C            4.85697241199201       -1.32196429413394        1.06483376443202
C            3.64926496298020       -1.94178090745055        1.29004323625563
H           -1.81295064975762       -0.43309636231605       -1.12178013928206
H           -3.96085478620564        0.67973844282871       -1.51949439320807
H           -4.29613250767918        1.96927174324375        0.73664825106335
H           -4.54289254877023        4.37622726074771        1.09015354172140
H           -6.70945699739171        5.48971139908724        0.64406662480296
H           -8.63966978640928        4.13059814085775       -0.13237774943485
H          -10.57719343625451        0.16460866349031       -1.31891512721841
H          -10.48499668148413       -2.27529236701474       -1.77993690315254
H           -8.33913897840518       -3.47961509625053       -1.51777180090496
H           -6.33413638915942       -2.28114443697098       -0.77443618357577
H           -5.71365139736339       -1.53878268205782        1.68658143290599
H           -3.56039723150346       -2.64414095326317        2.10277674180530
H           -2.04229123759389       -4.18193056457843        1.22460754769361
H            2.03817467571043       -4.18364816361167        1.22302690274290
H            1.80894422589505       -0.41799078589841       -1.10903451617820
H            3.95760816423593        0.69407692513816       -1.50332276499788
H            4.31004216463085        1.95520177406084        0.78049979892428
H            4.56896882565694        4.35480051065257        1.17613107324399
H            6.73700057013537        5.46744125938750        0.73554141500975
H            8.65585759965119        4.11556494576812       -0.08042740585940
H           10.56751404616895        0.16359824593810       -1.35645283358933
H           10.46181921048769       -2.26777925697686       -1.85747671972397
H            8.31449233883285       -3.46913848803148       -1.59409765277724
H            6.32060054381912       -2.27589466520259       -0.81220933656283
H            5.71755158495225       -1.56038235402705        1.67346920613154
H            3.56299164596836       -2.66242557773422        2.08928736067799

 projected vibrational frequencies (cm⁻¹)
eigval :       -0.00    -0.00    -0.00     0.00     0.00     0.00
eigval :       -5.34     8.34    11.85    20.07    29.07    30.46
eigval :       36.51    49.88    53.37    58.60    63.33    82.93
eigval :       90.06   106.59   109.34   115.24   122.14   126.23
eigval :      151.73   166.94   190.29   192.83   200.13   231.78
eigval :      240.20   245.64   250.14   267.37   267.62   275.52
eigval :      296.67   303.78   349.63   354.29   376.41   379.98
eigval :      380.15   381.87   382.78   394.47   402.83   415.09
eigval :      418.75   429.40   430.31   431.60   432.13   450.11
eigval :      453.16   465.20   481.75   492.52   502.49   502.79
eigval :      511.06   517.97   526.55   526.76   549.74   550.09
eigval :      570.78   579.73   586.37   594.08   597.31   604.62
eigval :      614.10   632.12   633.14   657.09   665.28   665.84
eigval :      668.43   668.44   681.90   682.35   687.59   709.41
eigval :      762.68   777.08   777.26   778.96   779.75   791.87
eigval :      801.19   804.85   806.26   824.81   825.24   839.49
eigval :      854.93   855.94   856.03   858.93   865.77   866.23
eigval :      869.31   869.96   898.63   898.79   901.11   901.51
eigval :      907.22   910.94   911.32   915.54   915.91   916.38
eigval :      917.13   917.48   919.58   919.74   923.31   923.89
eigval :      987.79  1008.56  1039.05  1085.86  1086.12  1086.26
eigval :     1087.38  1110.25  1112.76  1112.91  1118.63  1122.34
eigval :     1124.18  1130.92  1138.14  1143.07  1170.26  1172.12
eigval :     1174.24  1174.27  1181.49  1186.97  1195.64  1205.60
eigval :     1207.28  1207.33  1224.66  1227.26  1239.17  1239.22
eigval :     1241.26  1257.06  1257.62  1261.69  1265.75  1267.10
eigval :     1300.15  1306.28  1313.96  1315.03  1315.47  1316.10
eigval :     1324.89  1329.31  1332.26  1346.31  1349.85  1354.59
eigval :     1372.25  1398.86  1411.04  1415.46  1421.29  1422.42
eigval :     1441.97  1442.01  1454.11  1454.37  1473.81  1475.22
eigval :     1481.62  1484.82  1497.52  1512.74  1514.54  1558.92
eigval :     1558.99  1561.97  1566.27  1566.34  1577.77  1579.28
eigval :     1582.85  1589.28  1589.98  2240.73  3057.38  3057.52
eigval :     3075.38  3075.44  3081.91  3081.99  3092.20  3092.42
eigval :     3094.61  3094.62  3097.28  3097.36  3103.53  3103.58
eigval :     3104.25  3105.00  3105.10  3105.32  3111.92  3112.06
eigval :     3114.10  3114.14  3115.38  3115.73  3116.51  3116.79

   temp. (K)  partition function   enthalpy   heat capacity  entropy
                                   cal/mol     cal/K/mol   cal/K/mol   J/K/mol
 298.15  VIB  0.751E+18            22091.490    139.682    138.058
         ROT  0.113E+09              888.752      2.981     39.831
         INT  0.849E+26            22980.242    142.663    177.888
         TR   0.149E+29             1481.254      4.968     45.130
         TOT                       24461.4963   147.6311   223.0183   933.1084

       T/K    H(0)-H(T)+PV         H(T)/Eh          T*S/Eh         G(T)/Eh
   ------------------------------------------------------------------------
    298.15    0.389819E-01    0.586644E+00    0.105963E+00    0.480681E+00
   ------------------------------------------------------------------------

         :::::::::::::::::::::::::::::::::::::::::::::::::::::
         ::                  THERMODYNAMIC                  ::
         :::::::::::::::::::::::::::::::::::::::::::::::::::::
         :: total free energy        -122.476841246203 Eh   ::
         ::.................................................::
         :: total energy             -122.957522055292 Eh   ::
         :: zero point energy           0.547662110796 Eh   ::
         :: G(RRHO) w/o ZPVE           -0.066981301708 Eh   ::
         :: G(RRHO) contrib.            0.480680809089 Eh   ::
         :::::::::::::::::::::::::::::::::::::::::::::::::::::

           -------------------------------------------------
          | TOTAL ENERGY             -122.957522055292 Eh   |
          | TOTAL ENTHALPY           -122.370878068778 Eh   |
          | TOTAL FREE ENERGY        -122.476841246203 Eh   |
          | GRADIENT NORM               0.000103013143 Eh/α |
           -------------------------------------------------

 * finished run on 2025/08/24 at 00:09:35.680
