   * xtb version 6.7.1 (edcfbbe) compiled by 'albert@albert-system' on 2024-07-22

   ID    Z sym.   atoms
    1    7 N      1, 9, 26, 33
    2    6 C      2-8, 10-15, 17-25, 27-32, 34-39, 41-48
    3    8 O      16, 40
    4    1 H      49-74

          program call               : xtb data2507/gas/PxCN/PxCN.xyz --gfn 2 --ohess vtight --parallel 40 --molden --ceasefiles --namespace data2507/gas/PxCN/PxCN_gas_S0_preOpt
          :  Hamiltonian                  GFN2-xTB          :
 * total energy  :  -123.0043724 Eh     change       -0.2607422E-08 Eh
 * total energy  :  -123.0167247 Eh     change       -0.1235236E-01 Eh
 * total energy  :  -123.0202641 Eh     change       -0.3539384E-02 Eh
 * total energy  :  -123.0214329 Eh     change       -0.1168771E-02 Eh
 * total energy  :  -123.0223423 Eh     change       -0.9094054E-03 Eh
 * total energy  :  -123.0229309 Eh     change       -0.5886614E-03 Eh
 * total energy  :  -123.0233663 Eh     change       -0.4354013E-03 Eh
 * total energy  :  -123.0236750 Eh     change       -0.3086998E-03 Eh
 * total energy  :  -123.0241466 Eh     change       -0.4716050E-03 Eh
 * total energy  :  -123.0248823 Eh     change       -0.7356076E-03 Eh
 * total energy  :  -123.0291558 Eh     change       -0.6694826E-06 Eh
 * total energy  :  -123.0291565 Eh     change       -0.6807914E-06 Eh
 * total energy  :  -123.0291571 Eh     change       -0.6868822E-06 Eh
 * total energy  :  -123.0291578 Eh     change       -0.6969151E-06 Eh
 * total energy  :  -123.0291585 Eh     change       -0.7003651E-06 Eh
 * total energy  :  -123.0291592 Eh     change       -0.7043736E-06 Eh
 * total energy  :  -123.0291600 Eh     change       -0.7034521E-06 Eh
 * total energy  :  -123.0291607 Eh     change       -0.7007692E-06 Eh
 * total energy  :  -123.0291607 Eh     change       -0.6041589E-08 Eh
   *** GEOMETRY OPTIMIZATION CONVERGED AFTER 122 ITERATIONS ***

 final structure:
================
74
 xtb: 6.7.1 (edcfbbe)
N            0.00022799907812        0.93409707856133        0.00028961664976
C            0.00006136243676       -0.21273084560513        0.00023856764262
C           -0.00001007179435       -1.62863493442126        0.00015822260425
C           -1.21310944031251       -2.33536052311203       -0.02146672513744
C           -2.50798987098115       -1.64713098878217       -0.02026784751081
C           -3.49151611051572       -2.00247859094977       -0.94122922379720
C           -4.70505336548621       -1.34653864181533       -0.95955022563131
C           -4.96965871032467       -0.33659326627159       -0.03726738284373
N           -6.20494696218069        0.33803777217418       -0.05614935799026
C           -6.25620573974982        1.71967578848156       -0.27257869888483
C           -5.11955166365884        2.47631286658599       -0.52865904952242
C           -5.20880397824082        3.84418104405666       -0.73795663972025
C           -6.43461095509375        4.47712396600179       -0.70740972848441
C           -7.58263216723460        3.73046600052589       -0.48861720428523
C           -7.49925327036896        2.36601514874209       -0.28209394252322
O           -8.68309828894840        1.69224989612408       -0.10953323062624
C           -8.61631757062971        0.33797521866523        0.09885396866836
C           -9.81477061209061       -0.32527278159551        0.28605460097476
C           -9.82939307472308       -1.68905815978741        0.53820268728680
C           -8.63597628618735       -2.37644040240226        0.62252780025729
C           -7.43134815882541       -1.71621054324674        0.43292875291515
C           -7.40061666797448       -0.35790838605297        0.14271449708059
C           -3.99953565784480        0.00130926148413        0.90321886622679
C           -2.77890146786144       -0.64093359584735        0.90473115964481
C           -1.13466802594106       -3.72748597838721       -0.03312682877678
N            0.00002658321943       -4.39908125070589       -0.00004477635775
C            1.13470882105730       -3.72746570446789        0.03315690142543
C            1.21309951507192       -2.33534241478187        0.02170782228147
C            2.50795948061200       -1.64705806537935        0.02068423932206
C            2.77907788935063       -0.64108071740913       -0.90448802656808
C            3.99971592805818        0.00115314525848       -0.90284636706377
C            4.96960498203489       -0.33650296962138        0.03797114118471
N            6.20494990820255        0.33802293878162        0.05690902205011
C            6.25628504484153        1.71981494324538        0.27232386604648
C            5.11968115617595        2.47668560418120        0.52794021762614
C            5.20900403111529        3.84470845001472        0.73619557955261
C            6.43483220769043        4.47758305773435        0.70505959594106
C            7.58280942630243        3.73071323091781        0.48675967673103
C            7.49936098820371        2.36610788666418        0.28128968190730
O            8.68316774776283        1.69215614902349        0.10919575160121
C            8.61628508920277        0.33780321193800       -0.09865178203824
C            9.81467174476022       -0.32555517898220       -0.28588805948383
C            9.82919505256207       -1.68944468148740       -0.53747414613376
C            8.63573788178514       -2.37682883506554       -0.62119751252148
C            7.43117623701831       -1.71648301910826       -0.43158260421912
C            7.40054955454079       -0.35805468658594       -0.14194774552173
C            4.70475546503405       -1.34617333232212        0.96048346518813
C            3.49123403503075       -2.00214327272822        0.94200752465535
H           -3.28672735700304       -2.77443338136683       -1.66857873546448
H           -5.45324400404677       -1.60554835767861       -1.69386556512741
H           -4.15470370583639        1.99631761665988       -0.57342546596805
H           -4.30729592943781        4.40581122853929       -0.92756474846695
H           -6.50889819974295        5.54169415970409       -0.86343454174391
H           -8.55876600944744        4.18848241156029       -0.48000896457038
H          -10.72720285067369        0.24707992364170        0.23602639376256
H          -10.76947703179444       -2.19860312695760        0.67866321516240
H           -8.62830914547128       -3.43340534573684        0.84027964166138
H           -6.50593793175616       -2.26349340828997        0.52109425164602
H           -4.21002600051399        0.76891352164929        1.63255095288255
H           -2.03918981747814       -0.37786277754875        1.64612443279358
H           -2.03675667452745       -4.32447438974107       -0.04715179887553
H            2.03681877894495       -4.32442369168945        0.04711718115079
H            2.03953646988476       -0.37819499651249       -1.64611766283769
H            4.21039728073714        0.76855119533409       -1.63234067668279
H            4.15482079275225        1.99675579552597        0.57315507102543
H            4.30753422869688        4.40651986293610        0.92544870307293
H            6.50917136029248        5.54227222986113        0.86024738287699
H            8.55896086463573        4.18868435779905        0.47773076169922
H           10.72713074793093        0.24679566571418       -0.23633144676320
H           10.76922822199054       -2.19907196394288       -0.67797440120579
H            8.62798284496797       -3.43388682176892       -0.83849449657514
H            6.50573564150108       -2.26378685700181       -0.51928461678144
H            5.45275052633672       -1.60496824192245        1.69507315389697
H            3.28625888488365       -2.77392650099308        1.66948785960786

          :  Hamiltonian                  GFN2-xTB          :
         :: gradient norm              0.000062569023 Eh/a0 ::
         :: HOMO-LUMO gap              1.226907636847 eV    ::
         :: SCC energy              -125.222290357675 Eh    ::
         :: -> dispersion             -0.104072009245 Eh    ::
         :: repulsion energy           2.193129699320 Eh    ::

    * Orbital Energies and Occupations

         #    Occupation            Energy/Eh            Energy/eV
      -------------------------------------------------------------
         1        2.0000           -0.7271610             -19.7871
       ...           ...                  ...                  ...
       101        2.0000           -0.4214535             -11.4683
       102        2.0000           -0.4211063             -11.4589
       103        2.0000           -0.4157082             -11.3120
       104        2.0000           -0.4150388             -11.2938
       105        2.0000           -0.4150162             -11.2932
       106        2.0000           -0.4128500             -11.2342
       107        2.0000           -0.4119297             -11.2092
       108        2.0000           -0.4118858             -11.2080
       109        2.0000           -0.3896204             -10.6021
       110        2.0000           -0.3893819             -10.5956
       111        2.0000           -0.3854048             -10.4874
       112        2.0000           -0.3430820              -9.3357
       113        2.0000           -0.3430358              -9.3345 (HOMO)
       114                         -0.2979478              -8.1076 (LUMO)
       115                         -0.2754603              -7.4957
       116                         -0.2451027              -6.6696
       117                         -0.2442452              -6.6462
       118                         -0.2439221              -6.6375
       119                         -0.2375807              -6.4649
       120                         -0.2375778              -6.4648
       121                         -0.2290021              -6.2315
       122                         -0.2288928              -6.2285
       123                         -0.2280916              -6.2067
       124                         -0.2176051              -5.9213
       ...                                ...                  ...
       218                          1.1532781              31.3823
      -------------------------------------------------------------
                  HL-Gap            0.0450880 Eh            1.2269 eV

     #   Z          covCN         q      C6AA      α(0)
     1   7 N        0.911    -0.235    26.158     7.397
     2   6 C        1.908     0.116    28.240     8.582
     3   6 C        2.987     0.020    27.560     8.611
     4   6 C        2.977     0.008    27.834     8.654
     5   6 C        2.977     0.003    27.943     8.671
     6   6 C        2.924    -0.033    28.820     8.804
     7   6 C        2.921    -0.040    28.992     8.830
     8   6 C        2.921     0.068    26.471     8.437
     9   7 N        2.751    -0.070    22.603     7.061
    10   6 C        2.922     0.042    27.065     8.531
    11   6 C        2.924    -0.059    29.475     8.903
    12   6 C        2.919    -0.038    28.944     8.822
    13   6 C        2.919    -0.040    28.986     8.829
    14   6 C        2.920    -0.056    29.393     8.891
    15   6 C        2.884     0.124    25.267     8.241
    16   8 O        1.709    -0.255    18.221     5.763
    17   6 C        2.884     0.125    25.255     8.239
    18   6 C        2.920    -0.056    29.398     8.891
    19   6 C        2.919    -0.040    28.998     8.831
    20   6 C        2.919    -0.039    28.970     8.826
    21   6 C        2.924    -0.060    29.502     8.907
    22   6 C        2.921     0.042    27.057     8.530
    23   6 C        2.921    -0.039    28.958     8.825
    24   6 C        2.923    -0.028    28.704     8.786
    25   6 C        2.915     0.053    26.803     8.490
    26   7 N        1.834    -0.210    26.411     7.616
    27   6 C        2.915     0.053    26.803     8.490
    28   6 C        2.977     0.008    27.834     8.654
    29   6 C        2.977     0.003    27.943     8.671
    30   6 C        2.923    -0.028    28.704     8.786
    31   6 C        2.921    -0.039    28.958     8.825
    32   6 C        2.921     0.068    26.471     8.437
    33   7 N        2.751    -0.070    22.603     7.061
    34   6 C        2.922     0.042    27.065     8.531
    35   6 C        2.924    -0.059    29.475     8.903
    36   6 C        2.919    -0.038    28.944     8.822
    37   6 C        2.919    -0.040    28.986     8.829
    38   6 C        2.920    -0.056    29.393     8.891
    39   6 C        2.884     0.124    25.267     8.241
    40   8 O        1.709    -0.255    18.221     5.763
    41   6 C        2.884     0.125    25.255     8.239
    42   6 C        2.920    -0.056    29.398     8.891
    43   6 C        2.919    -0.040    28.998     8.831
    44   6 C        2.919    -0.039    28.970     8.826
    45   6 C        2.924    -0.060    29.502     8.907
    46   6 C        2.921     0.042    27.057     8.530
    47   6 C        2.921    -0.040    28.992     8.830
    48   6 C        2.924    -0.033    28.820     8.804
    49   1 H        0.926     0.039     2.461     2.453
    50   1 H        0.926     0.046     2.375     2.410
    51   1 H        0.926     0.038     2.476     2.461
    52   1 H        0.926     0.039     2.459     2.452
    53   1 H        0.926     0.039     2.466     2.455
    54   1 H        0.926     0.050     2.314     2.379
    55   1 H        0.926     0.051     2.312     2.378
    56   1 H        0.926     0.038     2.474     2.460
    57   1 H        0.926     0.035     2.510     2.477
    58   1 H        0.926     0.033     2.543     2.494
    59   1 H        0.926     0.048     2.345     2.395
    60   1 H        0.926     0.040     2.450     2.448
    61   1 H        0.925     0.046     2.375     2.410
    62   1 H        0.925     0.046     2.375     2.410
    63   1 H        0.926     0.040     2.450     2.448
    64   1 H        0.926     0.048     2.345     2.395
    65   1 H        0.926     0.038     2.476     2.461
    66   1 H        0.926     0.039     2.459     2.452
    67   1 H        0.926     0.039     2.466     2.455
    68   1 H        0.926     0.050     2.314     2.379
    69   1 H        0.926     0.051     2.312     2.378
    70   1 H        0.926     0.038     2.474     2.460
    71   1 H        0.926     0.035     2.510     2.477
    72   1 H        0.926     0.033     2.543     2.494
    73   1 H        0.926     0.046     2.375     2.410
    74   1 H        0.926     0.039     2.461     2.453

molecular dipole:
                 x           y           z       tot (Debye)
 q only:       -0.000      -0.731      -0.000
   full:       -0.000      -0.919      -0.000       2.335

 projected vibrational frequencies (cm⁻¹)
eigval :       -0.00    -0.00     0.00     0.00     0.00     0.00
eigval :        9.11     9.70    11.60    24.59    26.20    29.83
eigval :       37.88    42.11    52.07    58.11    67.87    75.96
eigval :       94.32    95.18   112.01   118.38   124.76   127.40
eigval :      158.76   169.49   188.35   193.14   199.18   230.71
eigval :      242.05   249.12   252.41   256.43   268.32   272.25
eigval :      282.04   305.84   353.71   362.81   372.56   376.63
eigval :      377.42   384.72   385.04   398.56   403.48   413.94
eigval :      423.70   430.52   431.77   432.10   436.62   446.04
eigval :      452.33   480.77   502.65   510.14   510.16   519.82
eigval :      522.84   524.00   546.57   550.24   572.69   576.68
eigval :      582.82   584.66   590.83   599.58   599.71   615.00
eigval :      623.68   637.60   656.21   660.56   661.57   661.57
eigval :      662.49   687.52   693.87   695.97   712.71   724.90
eigval :      778.87   778.89   780.10   780.21   792.95   793.69
eigval :      804.36   817.62   820.20   836.18   855.58   855.60
eigval :      858.22   863.77   863.80   867.36   867.78   877.32
eigval :      877.40   897.19   897.31   899.25   899.26   905.35
eigval :      912.27   913.66   913.88   915.63   915.66   917.33
eigval :      917.48   926.03   926.21   926.22   933.77   933.90
eigval :      998.65  1017.70  1063.45  1090.80  1090.81  1092.08
eigval :     1092.12  1108.76  1108.78  1122.08  1122.24  1136.09
eigval :     1136.76  1160.32  1162.79  1171.30  1171.83  1175.48
eigval :     1175.51  1184.46  1184.66  1195.17  1195.97  1202.18
eigval :     1202.24  1209.98  1225.45  1226.06  1243.50  1243.57
eigval :     1252.39  1260.02  1262.31  1262.34  1267.75  1270.38
eigval :     1303.92  1309.80  1309.81  1312.02  1312.50  1314.57
eigval :     1337.30  1338.34  1338.44  1355.04  1358.41  1398.54
eigval :     1399.41  1409.69  1423.05  1424.44  1429.80  1443.11
eigval :     1443.23  1487.28  1488.14  1488.31  1489.08  1506.08
eigval :     1506.83  1525.76  1540.74  1555.82  1557.33  1567.99
eigval :     1568.03  1580.87  1580.89  1588.41  1588.82  1592.70
eigval :     1592.91  1603.44  1603.45  2364.31  3064.64  3065.15
eigval :     3081.23  3081.26  3086.27  3086.42  3088.57  3088.57
eigval :     3091.62  3091.65  3094.50  3094.56  3098.63  3098.72
eigval :     3098.76  3098.76  3100.00  3100.02  3105.44  3105.45
eigval :     3108.10  3108.14  3113.03  3113.04  3113.59  3113.61

   temp. (K)  partition function   enthalpy   heat capacity  entropy
                                   cal/mol     cal/K/mol   cal/K/mol   J/K/mol
 298.15  VIB  0.360E+18            21902.087    138.028    136.411
         ROT  0.556E+08              888.752      2.981     38.422
         INT  0.200E+26            22790.840    141.009    174.833
         TR   0.149E+29             1481.254      4.968     45.130
         TOT                       24272.0934   145.9771   219.9631   920.3255

       T/K    H(0)-H(T)+PV         H(T)/Eh          T*S/Eh         G(T)/Eh
   ------------------------------------------------------------------------
    298.15    0.386800E-01    0.589927E+00    0.104512E+00    0.485416E+00
   ------------------------------------------------------------------------

         :::::::::::::::::::::::::::::::::::::::::::::::::::::
         ::                  THERMODYNAMIC                  ::
         :::::::::::::::::::::::::::::::::::::::::::::::::::::
         :: total free energy        -122.543745000616 Eh   ::
         ::.................................................::
         :: total energy             -123.029160658353 Eh   ::
         :: zero point energy           0.551247163477 Eh   ::
         :: G(RRHO) w/o ZPVE           -0.065831505740 Eh   ::
         :: G(RRHO) contrib.            0.485415657737 Eh   ::
         :::::::::::::::::::::::::::::::::::::::::::::::::::::

           -------------------------------------------------
          | TOTAL ENERGY             -123.029160658353 Eh   |
          | TOTAL ENTHALPY           -122.439233451911 Eh   |
          | TOTAL FREE ENERGY        -122.543745000616 Eh   |
          | GRADIENT NORM               0.000062570561 Eh/α |
          | HOMO-LUMO GAP               1.226907500146 eV   |
           -------------------------------------------------

 * finished run on 2025/08/23 at 23:58:46.997
