   * xtb version 6.7.1 (edcfbbe) compiled by 'albert@albert-system' on 2024-07-22

   ID    Z sym.   atoms
    1    7 N      1, 9, 26, 33
    2    6 C      2-8, 10-15, 17-25, 27-32, 34-39, 41-48
    3    8 O      16, 40
    4    1 H      49-74

          program call               : xtb data2507/gas/PxCN/PxCN_gas_S0_finalOpt.xtbopt.xyz --gfn 2 --spinpol --tblite --uhf 2 --ohess vtight --parallel 40 --molden --ceasefiles --namespace data2507/gas/PxCN/PxCN_gas_T1_preOpt
 * total energy  :  -122.9517939 Eh     change        0.5868333E-07 Eh
 * total energy  :  -122.9556776 Eh     change       -0.3883666E-02 Eh
 * total energy  :  -122.9565018 Eh     change       -0.8242695E-03 Eh
 * total energy  :  -122.9565930 Eh     change       -0.9114036E-04 Eh
 * total energy  :  -122.9567049 Eh     change       -0.1119116E-03 Eh
 * total energy  :  -122.9567625 Eh     change       -0.5757448E-04 Eh
 * total energy  :  -122.9568336 Eh     change       -0.7119208E-04 Eh
 * total energy  :  -122.9568816 Eh     change       -0.4795199E-04 Eh
 * total energy  :  -122.9569107 Eh     change       -0.2907461E-04 Eh
 * total energy  :  -122.9569403 Eh     change       -0.2965698E-04 Eh
 * total energy  :  -122.9575155 Eh     change       -0.6832989E-06 Eh
 * total energy  :  -122.9575158 Eh     change       -0.3187468E-06 Eh
 * total energy  :  -122.9575160 Eh     change       -0.1313878E-06 Eh
 * total energy  :  -122.9575162 Eh     change       -0.1931275E-06 Eh
 * total energy  :  -122.9575164 Eh     change       -0.1902286E-06 Eh
 * total energy  :  -122.9575166 Eh     change       -0.1983147E-06 Eh
 * total energy  :  -122.9575167 Eh     change       -0.1472597E-06 Eh
 * total energy  :  -122.9575168 Eh     change       -0.1113024E-06 Eh
 * total energy  :  -122.9575169 Eh     change       -0.8739555E-07 Eh
   *** GEOMETRY OPTIMIZATION CONVERGED AFTER 61 ITERATIONS ***

 final structure:
================
74
 xtb: 6.7.1 (edcfbbe)
N            0.00235575178211        1.00803066611280        0.50418787256032
C            0.00052179365399       -0.15119592721509        0.56862519011842
C           -0.00172193684588       -1.52971557205515        0.63698642473647
C           -1.23743617325343       -2.25925584926210        0.76686964620253
C           -2.51957270185165       -1.62975075649801        0.51071103776334
C           -2.66433685581411       -0.68945257347811       -0.51872941390135
C           -3.86688006994801       -0.05922065455387       -0.73946138324462
C           -4.96752038113643       -0.35260583081999        0.06410369305192
N           -6.19548459763665        0.32307773313279       -0.13917659217264
C           -6.28475345975821        1.69415968187400        0.07167202406337
C           -5.20225864066032        2.45096247344383        0.51386101588596
C           -5.33022450560366        3.81437915413622        0.71084173102985
C           -6.53909118286712        4.44763323815537        0.48115761501376
C           -7.63391861289325        3.70662108114688        0.06741602258862
C           -7.51465218184184        2.34191787746512       -0.13100841872140
O           -8.64241643513484        1.66596962308646       -0.51266761732281
C           -8.53738721723594        0.31756430831864       -0.71496342959682
C           -9.68082759661478       -0.35368856488831       -1.11224275418071
C           -9.63790166557242       -1.71599840905667       -1.36072301989214
C           -8.44241077138853       -2.39961724550073       -1.22647430622390
C           -7.29547755917311       -1.73643140093425       -0.82776859846990
C           -7.32532394884712       -0.37275159189093       -0.54551666187773
C           -4.84837112382346       -1.30476494758364        1.07532541732182
C           -3.64385764447530       -1.93400195672174        1.29135962591311
C           -1.15608253897318       -3.58885690718806        1.12133851297811
N           -0.00586414351071       -4.23502681054638        1.28377878523079
C            1.14635564618572       -3.59249074711395        1.12078532088400
C            1.23169361173752       -2.26315281080414        0.76634876440340
C            2.51572056875592       -1.63756166751541        0.50988710668671
C            2.66321517332631       -0.69786863182718       -0.51969182714804
C            3.86763610066189       -0.07126301643895       -0.74057647568306
C            4.96742042648294       -0.36782268697153        0.06298057596005
N            6.19739273130489        0.30416534201559       -0.14043267745311
C            6.29079132767661        1.67498047128646        0.07034352827835
C            5.21061088845462        2.43504287198386        0.51259346449230
C            5.34268174233630        3.79808071345755        0.70948501540382
C            6.55341544484946        4.42769756818180        0.47963879598285
C            7.64597941254834        3.68338783537714        0.06583857589285
C            7.52260914247297        2.31903595686185       -0.13248509713447
O            8.64830885355752        1.63968452692160       -0.51419643928813
C            8.53921050737040        0.29159467419698       -0.71643827277647
C            9.68058919208715       -0.38310371259692       -1.11380885654372
C            9.63354318949725       -1.74528549554817       -1.36224374986713
C            8.43601845985337       -2.42530664638824       -1.22784674852597
C            7.29112437550247       -1.75866657004248       -0.82903983481323
C            7.32509551422070       -0.39507258045716       -0.54684914592607
C            4.84549009029040       -1.31947274847603        1.07433760664911
C            3.63910468256657       -1.94507559977970        1.29051812905953
H           -1.82355264920799       -0.46350946563222       -1.15568962136640
H           -3.96784759825478        0.66198073910863       -1.53736449848196
H           -4.25835201349514        1.96750364861697        0.70776437032678
H           -4.47542923735181        4.37865595968344        1.04889191788690
H           -6.63802510739673        5.51095289263737        0.63110165631041
H           -8.59423583626805        4.16595981509249       -0.10377213299132
H          -10.59206340092482        0.21137980138610       -1.22510158506760
H          -10.53312958027785       -2.23296544460013       -1.66755522309127
H           -8.39478045639026       -3.45689552351542       -1.43599307423935
H           -6.36439969248397       -2.27310681978747       -0.73985010743634
H           -5.70165516488505       -1.52467460555976        1.70095239201755
H           -3.55247452386975       -2.64434596470445        2.09924839434647
H           -2.04643771083721       -4.19519173744750        1.21601648250382
H            2.03483380248580       -4.20163575474656        1.21502171074461
H            1.82306140985070       -0.46947577345895       -1.15661160692066
H            3.97071043015922        0.64955500477195       -1.53855662310279
H            4.26527777298818        1.95442437339592        0.70661639464212
H            4.48961436904825        4.36493440852487        1.04759372353665
H            6.65554716155942        5.49072671247511        0.62950001617068
H            8.60764963105293        4.13984140212526       -0.10547574306754
H           10.59350938696469        0.17921839751711       -1.22676870880544
H           10.52718642239483       -2.26495226845786       -1.66913299282277
H            8.38519513181421       -3.48244919242950       -1.43730057771037
H            6.35845072372931       -2.29254421130138       -0.74099615514619
H            5.69814819093102       -1.54185621926704        1.69994198857341
H            3.54561948133468       -2.65504708534748        2.09849417376923

 projected vibrational frequencies (cm⁻¹)
eigval :       -0.00    -0.00    -0.00     0.00     0.00     0.00
eigval :        8.10    10.28    12.02    20.91    29.92    30.75
eigval :       37.13    50.06    53.99    59.75    63.56    82.36
eigval :       90.20   106.66   109.98   115.42   123.44   125.96
eigval :      152.16   167.26   190.86   193.32   200.22   231.65
eigval :      240.02   245.15   250.42   267.40   267.73   275.53
eigval :      296.79   303.88   349.97   354.22   376.16   379.61
eigval :      379.91   382.09   383.01   394.30   402.66   415.14
eigval :      418.88   429.34   430.24   432.07   432.20   450.91
eigval :      453.65   465.97   481.91   492.61   502.63   502.89
eigval :      511.07   518.06   526.71   526.86   549.89   550.04
eigval :      570.96   579.60   586.37   594.14   597.39   604.48
eigval :      614.06   632.13   633.26   656.68   665.08   665.91
eigval :      668.47   668.48   681.84   682.27   687.52   709.26
eigval :      762.50   777.77   777.85   779.53   779.87   791.70
eigval :      801.19   805.31   806.41   825.05   825.55   839.35
eigval :      854.80   855.99   856.03   859.22   866.91   867.08
eigval :      870.12   870.51   899.41   899.47   901.60   901.73
eigval :      907.09   911.18   911.62   915.61   916.23   916.36
eigval :      917.32   917.45   920.04   920.21   923.82   924.36
eigval :      987.69  1008.77  1039.11  1084.41  1086.15  1086.22
eigval :     1087.40  1110.33  1112.58  1112.71  1117.92  1122.36
eigval :     1123.53  1131.36  1138.32  1143.04  1170.08  1171.45
eigval :     1174.00  1174.07  1181.55  1186.82  1195.98  1205.39
eigval :     1207.37  1207.58  1224.95  1226.75  1239.15  1239.18
eigval :     1241.38  1256.66  1257.13  1261.34  1265.72  1267.07
eigval :     1299.82  1305.88  1313.78  1314.79  1315.38  1315.99
eigval :     1324.80  1329.36  1332.31  1346.17  1349.97  1354.80
eigval :     1372.29  1399.12  1411.24  1415.43  1421.29  1422.45
eigval :     1441.87  1441.97  1454.13  1454.36  1474.01  1476.07
eigval :     1482.68  1484.15  1497.96  1512.67  1514.42  1558.84
eigval :     1558.92  1561.61  1566.25  1566.25  1577.61  1579.14
eigval :     1582.69  1588.98  1589.30  2240.88  3057.00  3057.13
eigval :     3075.44  3075.48  3081.93  3082.05  3091.74  3092.19
eigval :     3094.48  3094.50  3097.37  3097.40  3103.43  3103.55
eigval :     3103.71  3104.76  3105.06  3105.19  3111.99  3112.04
eigval :     3114.19  3114.23  3115.38  3115.68  3116.68  3116.95

   temp. (K)  partition function   enthalpy   heat capacity  entropy
                                   cal/mol     cal/K/mol   cal/K/mol   J/K/mol
 298.15  VIB  0.349E+18            22072.054    139.727    137.301
         ROT  0.113E+09              888.752      2.981     39.824
         INT  0.393E+26            22960.806    142.708    177.125
         TR   0.149E+29             1481.254      4.968     45.130
         TOT                       24442.0603   147.6758   222.2551   929.9154

       T/K    H(0)-H(T)+PV         H(T)/Eh          T*S/Eh         G(T)/Eh
   ------------------------------------------------------------------------
    298.15    0.389509E-01    0.586656E+00    0.105601E+00    0.481055E+00
   ------------------------------------------------------------------------

         :::::::::::::::::::::::::::::::::::::::::::::::::::::
         ::                  THERMODYNAMIC                  ::
         :::::::::::::::::::::::::::::::::::::::::::::::::::::
         :: total free energy        -122.476461464203 Eh   ::
         ::.................................................::
         :: total energy             -122.957516895780 Eh   ::
         :: zero point energy           0.547705103547 Eh   ::
         :: G(RRHO) w/o ZPVE           -0.066649671970 Eh   ::
         :: G(RRHO) contrib.            0.481055431577 Eh   ::
         :::::::::::::::::::::::::::::::::::::::::::::::::::::

           -------------------------------------------------
          | TOTAL ENERGY             -122.957516895780 Eh   |
          | TOTAL ENTHALPY           -122.370860889890 Eh   |
          | TOTAL FREE ENERGY        -122.476461464203 Eh   |
          | GRADIENT NORM               0.000042229202 Eh/α |
           -------------------------------------------------

 * finished run on 2025/08/24 at 00:02:41.957
