   * xtb version 6.7.1 (edcfbbe) compiled by 'albert@albert-system' on 2024-07-22

   ID    Z sym.   atoms
    1    7 N      1, 9, 26, 33
    2    6 C      2-8, 10-15, 17-25, 27-32, 34-39, 41-48
    3    8 O      16, 40
    4    1 H      49-74

          program call               : xtb data2507/gas/PxCN/PxCN_gas_S0_crest.xyz --gfn 2 --ohess vtight --parallel 40 --molden --ceasefiles --namespace data2507/gas/PxCN/PxCN_gas_S0_finalOpt
          :  Hamiltonian                  GFN2-xTB          :
 * total energy  :  -123.0295561 Eh     change       -0.1568580E-08 Eh
 * total energy  :  -123.0295574 Eh     change       -0.1281694E-05 Eh
 * total energy  :  -123.0295590 Eh     change       -0.1570131E-05 Eh
 * total energy  :  -123.0295609 Eh     change       -0.1929855E-05 Eh
 * total energy  :  -123.0295627 Eh     change       -0.1828991E-05 Eh
 * total energy  :  -123.0295628 Eh     change       -0.1101444E-06 Eh
 * total energy  :  -123.0295646 Eh     change       -0.1790138E-05 Eh
 * total energy  :  -123.0295666 Eh     change       -0.1951151E-05 Eh
 * total energy  :  -123.0295679 Eh     change       -0.1338322E-05 Eh
 * total energy  :  -123.0295693 Eh     change       -0.1390693E-05 Eh
 * total energy  :  -123.0295767 Eh     change       -0.2002412E-05 Eh
 * total energy  :  -123.0295786 Eh     change       -0.1907485E-05 Eh
 * total energy  :  -123.0295799 Eh     change       -0.1260327E-05 Eh
 * total energy  :  -123.0295806 Eh     change       -0.7626578E-06 Eh
 * total energy  :  -123.0295811 Eh     change       -0.4313035E-06 Eh
 * total energy  :  -123.0295814 Eh     change       -0.2811300E-06 Eh
 * total energy  :  -123.0295816 Eh     change       -0.2709839E-06 Eh
 * total energy  :  -123.0295819 Eh     change       -0.2992697E-06 Eh
 * total energy  :  -123.0295819 Eh     change       -0.6940112E-08 Eh
   *** GEOMETRY OPTIMIZATION CONVERGED AFTER 22 ITERATIONS ***

 final structure:
================
74
 xtb: 6.7.1 (edcfbbe)
N            0.00503345309687        0.96562885281195        0.16024965732026
C            0.00333618154335       -0.18118899023794        0.17842013287407
C           -0.00024732334426       -1.59416040486163        0.26810297169700
C           -1.21691213222394       -2.28845769214904        0.37275197435095
C           -2.50843216442478       -1.60742498719966        0.25193547796598
C           -2.73745148198004       -0.68752254705724       -0.76992134942598
C           -3.95748870814480       -0.05434624894681       -0.88398091369997
C           -4.97329755336198       -0.31856907488106        0.03127092596093
N           -6.21387919496814        0.33865874909004       -0.07345866723988
C           -6.29366130177222        1.73080903595118        0.04046709764972
C           -5.18096243043738        2.52161140805259        0.29793800078578
C           -5.29883299099119        3.89890365482761        0.40815053605985
C           -6.53007349903249        4.50759373000570        0.27497130263513
C           -7.65565377922379        3.72907367958722        0.05030912083866
C           -7.54393736572975        2.35543250564421       -0.05829242579508
O           -8.70815265078371        1.65189853048534       -0.24594777014977
C           -8.61287463547690        0.28784904913282       -0.35680533212971
C           -9.79013858302835       -0.40673046816087       -0.56370101282878
C           -9.77286522152147       -1.78484573818397       -0.71980115618988
C           -8.56816942045034       -2.45681122904430       -0.68723826222474
C           -7.38473344126115       -1.76500369852420       -0.47779701753228
C           -7.38797254908862       -0.38921074104006       -0.28485712683230
C           -4.75116628006209       -1.24064339123145        1.05156129843753
C           -3.53536692673056       -1.88379866809212        1.15343452994727
C           -1.14258534510531       -3.66225009162058        0.60289761464475
N           -0.00974043118650       -4.32771895446972        0.71654122565861
C            1.12759318656854       -3.67093590990331        0.59752636740991
C            1.21170405248725       -2.29756103425876        0.36775530030816
C            2.50754240840458       -1.62561118346737        0.24374789229695
C            2.73659048366202       -0.69814465980115       -0.77133264030619
C            3.95856983154638       -0.06868424506520       -0.88439133288982
C            4.97701808041612       -0.34524730206766        0.02427172632442
N            6.21741180309123        0.31295734455118       -0.07679477791977
C            6.29642846104333        1.70337730292499        0.05723738528370
C            5.18431169108112        2.48887491828129        0.33284103145155
C            5.30127685565449        3.86447285642652        0.46311141808327
C            6.53108134167603        4.47651618765121        0.33206007670443
C            7.65622640428639        3.70280968842896        0.08924127313923
C            7.54543608523100        2.33080490138436       -0.03930545796422
O            8.70919367245987        1.63134733272377       -0.24426084456260
C            8.61517286093038        0.26845607763154       -0.36998125356791
C            9.79245992739765       -0.42232028610988       -0.58898628546572
C            9.77610491001063       -1.79857126154748       -0.76103132126736
C            8.57230991616315       -2.47231440810044       -0.73196730335124
C            7.38884824482698       -1.78442720623924       -0.50997373256644
C            7.39136581797209       -0.41096687386433       -0.30120709270257
C            4.75635393975262       -1.27770835916466        1.03531407470384
C            3.53798064400632       -1.91609048966540        1.13689292307821
H           -1.96451939117652       -0.48630366527042       -1.49675374971561
H           -4.13324179512246        0.64645790011354       -1.68616980919214
H           -4.21350291879115        2.06126547869615        0.42253390328549
H           -4.41562146354540        4.48724399000915        0.60279018201689
H           -6.62646925522854        5.57878249813353        0.35527629613541
H           -8.63600325551051        4.16930538901418       -0.03811603971681
H          -10.71128876292121        0.15220198201038       -0.60487585580152
H          -10.69679721244987       -2.31843353213972       -0.87717834832995
H           -8.53489396579202       -3.52622318730349       -0.82828590078320
H           -6.44878743769350       -2.30144225953246       -0.47341176477986
H           -5.53533859586741       -1.44095266756795        1.76646559148348
H           -3.36424714143422       -2.58240622701104        1.95915395283107
H           -2.04571899218129       -4.25171837058694        0.68696299107822
H            2.02636928900874       -4.26765455054571        0.67691570105863
H            1.96169199256483       -0.48708560459504       -1.49322083490842
H            4.13353606017286        0.63977971964732       -1.67999078268445
H            4.21802098620989        2.02560847400222        0.45570639734468
H            4.41852540481894        4.44871832256672        0.67167044356092
H            6.62673021076127        5.54649308587092        0.42791614562449
H            8.63550281064677        4.14558586707435        0.00166353744405
H           10.71284939267727        0.13808899920125       -0.62706439078187
H           10.70008268832080       -2.32919277496466       -0.92791653399355
H            8.53981263813742       -3.54003657950681       -0.88546821373686
H            6.45342577976070       -2.32182731038178       -0.50822342478525
H            5.54305146282508       -1.48871180038349        1.74434583723169
H            3.36761434273460       -2.62136118768795        1.93693024641550

          :  Hamiltonian                  GFN2-xTB          :
         :: gradient norm              0.000085241173 Eh/a0 ::
         :: HOMO-LUMO gap              1.221736160946 eV    ::
         :: SCC energy              -125.222440165238 Eh    ::
         :: -> dispersion             -0.104119197034 Eh    ::
         :: repulsion energy           2.192858227576 Eh    ::

    * Orbital Energies and Occupations

         #    Occupation            Energy/Eh            Energy/eV
      -------------------------------------------------------------
         1        2.0000           -0.7272243             -19.7888
       ...           ...                  ...                  ...
       101        2.0000           -0.4218201             -11.4783
       102        2.0000           -0.4214276             -11.4676
       103        2.0000           -0.4180965             -11.3770
       104        2.0000           -0.4151147             -11.2958
       105        2.0000           -0.4151043             -11.2956
       106        2.0000           -0.4120756             -11.2131
       107        2.0000           -0.4120552             -11.2126
       108        2.0000           -0.4102160             -11.1625
       109        2.0000           -0.3897566             -10.6058
       110        2.0000           -0.3894322             -10.5970
       111        2.0000           -0.3853138             -10.4849
       112        2.0000           -0.3432121              -9.3393
       113        2.0000           -0.3431140              -9.3366 (HOMO)
       114                         -0.2982159              -8.1149 (LUMO)
       115                         -0.2769859              -7.5372
       116                         -0.2454413              -6.6788
       117                         -0.2451344              -6.6704
       118                         -0.2442526              -6.6465
       119                         -0.2376526              -6.4669
       120                         -0.2376356              -6.4664
       121                         -0.2290047              -6.2315
       122                         -0.2289640              -6.2304
       123                         -0.2256390              -6.1399
       124                         -0.2167839              -5.8990
       ...                                ...                  ...
       218                          1.1523260              31.3564
      -------------------------------------------------------------
                  HL-Gap            0.0448981 Eh            1.2217 eV

     #   Z          covCN         q      C6AA      α(0)
     1   7 N        0.911    -0.237    26.188     7.401
     2   6 C        1.909     0.116    28.249     8.584
     3   6 C        2.987     0.019    27.565     8.612
     4   6 C        2.976     0.008    27.841     8.655
     5   6 C        2.976     0.004    27.934     8.670
     6   6 C        2.923    -0.028    28.694     8.784
     7   6 C        2.921    -0.039    28.958     8.825
     8   6 C        2.921     0.069    26.463     8.436
     9   7 N        2.751    -0.070    22.606     7.062
    10   6 C        2.922     0.042    27.063     8.531
    11   6 C        2.924    -0.059    29.475     8.903
    12   6 C        2.919    -0.038    28.943     8.822
    13   6 C        2.919    -0.040    28.987     8.829
    14   6 C        2.920    -0.056    29.392     8.890
    15   6 C        2.884     0.124    25.268     8.241
    16   8 O        1.709    -0.255    18.222     5.763
    17   6 C        2.884     0.125    25.254     8.239
    18   6 C        2.920    -0.056    29.398     8.891
    19   6 C        2.919    -0.040    28.998     8.831
    20   6 C        2.919    -0.039    28.969     8.826
    21   6 C        2.924    -0.060    29.501     8.907
    22   6 C        2.922     0.042    27.057     8.530
    23   6 C        2.920    -0.039    28.981     8.828
    24   6 C        2.924    -0.033    28.815     8.803
    25   6 C        2.915     0.053    26.807     8.490
    26   7 N        1.834    -0.211    26.420     7.617
    27   6 C        2.915     0.053    26.808     8.490
    28   6 C        2.976     0.008    27.842     8.655
    29   6 C        2.976     0.004    27.933     8.669
    30   6 C        2.923    -0.028    28.694     8.784
    31   6 C        2.921    -0.039    28.957     8.824
    32   6 C        2.921     0.069    26.462     8.436
    33   7 N        2.751    -0.071    22.607     7.062
    34   6 C        2.922     0.042    27.063     8.531
    35   6 C        2.924    -0.059    29.475     8.903
    36   6 C        2.919    -0.038    28.942     8.822
    37   6 C        2.919    -0.040    28.986     8.829
    38   6 C        2.920    -0.056    29.392     8.890
    39   6 C        2.884     0.124    25.268     8.241
    40   8 O        1.709    -0.255    18.222     5.763
    41   6 C        2.884     0.125    25.255     8.239
    42   6 C        2.920    -0.056    29.398     8.891
    43   6 C        2.919    -0.040    28.998     8.831
    44   6 C        2.919    -0.039    28.969     8.826
    45   6 C        2.924    -0.060    29.501     8.907
    46   6 C        2.922     0.042    27.056     8.530
    47   6 C        2.920    -0.039    28.981     8.828
    48   6 C        2.924    -0.033    28.815     8.803
    49   1 H        0.926     0.039     2.461     2.453
    50   1 H        0.926     0.048     2.346     2.395
    51   1 H        0.926     0.038     2.477     2.461
    52   1 H        0.926     0.039     2.459     2.452
    53   1 H        0.926     0.039     2.465     2.455
    54   1 H        0.926     0.050     2.314     2.379
    55   1 H        0.926     0.051     2.312     2.378
    56   1 H        0.926     0.038     2.473     2.459
    57   1 H        0.926     0.035     2.509     2.477
    58   1 H        0.926     0.033     2.548     2.496
    59   1 H        0.926     0.046     2.374     2.409
    60   1 H        0.926     0.040     2.451     2.448
    61   1 H        0.925     0.046     2.374     2.410
    62   1 H        0.925     0.046     2.374     2.409
    63   1 H        0.926     0.039     2.458     2.452
    64   1 H        0.926     0.048     2.346     2.395
    65   1 H        0.926     0.038     2.478     2.462
    66   1 H        0.926     0.039     2.459     2.452
    67   1 H        0.926     0.039     2.465     2.455
    68   1 H        0.926     0.050     2.314     2.379
    69   1 H        0.926     0.051     2.312     2.378
    70   1 H        0.926     0.038     2.474     2.460
    71   1 H        0.926     0.035     2.510     2.477
    72   1 H        0.926     0.033     2.548     2.496
    73   1 H        0.926     0.046     2.374     2.409
    74   1 H        0.926     0.040     2.450     2.448

molecular dipole:
                 x           y           z       tot (Debye)
 q only:        0.000      -0.733       0.003
   full:        0.001      -0.921      -0.013       2.340

 projected vibrational frequencies (cm⁻¹)
eigval :       -0.00    -0.00    -0.00     0.00     0.00     0.00
eigval :        8.49    10.72    12.18    21.96    26.89    30.46
eigval :       37.57    48.33    48.58    57.95    66.88    83.77
eigval :       87.44   102.28   111.71   118.71   124.36   126.99
eigval :      156.08   169.10   187.68   192.56   199.81   225.56
eigval :      242.65   249.14   254.37   265.85   267.37   271.97
eigval :      289.16   300.54   354.02   359.99   375.51   376.14
eigval :      378.27   384.43   385.31   400.81   403.55   414.62
eigval :      421.33   430.54   431.21   431.66   434.15   445.58
eigval :      451.13   490.84   492.17   510.12   510.16   520.01
eigval :      522.51   524.14   541.76   556.92   571.32   576.53
eigval :      582.76   585.00   589.12   599.30   604.49   609.09
eigval :      626.01   637.79   655.91   660.46   661.43   661.50
eigval :      662.32   687.93   689.10   699.32   712.63   723.87
eigval :      778.79   778.81   779.99   780.20   793.63   794.50
eigval :      804.62   817.17   818.74   836.13   855.47   855.50
eigval :      857.66   863.53   863.72   867.02   867.48   875.11
eigval :      876.78   897.01   897.16   899.05   899.13   904.51
eigval :      912.53   913.73   913.91   915.49   915.60   917.44
eigval :      917.49   925.09   925.19   926.30   932.61   932.81
eigval :      998.68  1017.54  1062.62  1090.61  1090.65  1091.90
eigval :     1091.95  1108.71  1108.74  1121.98  1122.19  1135.90
eigval :     1137.65  1161.64  1162.16  1171.38  1171.77  1175.52
eigval :     1175.56  1184.34  1184.71  1195.26  1196.36  1201.97
eigval :     1202.05  1210.18  1225.91  1226.51  1243.45  1243.55
eigval :     1253.44  1260.44  1262.21  1262.26  1268.50  1271.00
eigval :     1304.45  1310.01  1310.03  1312.61  1312.68  1314.59
eigval :     1337.20  1338.69  1338.83  1355.17  1358.51  1398.09
eigval :     1398.72  1410.34  1422.91  1424.52  1429.35  1443.14
eigval :     1443.23  1487.24  1488.20  1488.29  1488.94  1506.15
eigval :     1506.83  1524.06  1539.45  1555.42  1556.71  1567.96
eigval :     1568.01  1580.84  1580.86  1588.27  1588.62  1592.50
eigval :     1592.79  1603.41  1603.42  2362.53  3065.06  3065.57
eigval :     3082.45  3082.60  3084.87  3085.48  3088.48  3088.53
eigval :     3091.61  3091.64  3094.85  3095.02  3097.98  3098.26
eigval :     3098.46  3098.56  3099.85  3099.88  3105.09  3105.20
eigval :     3107.86  3107.91  3112.98  3113.00  3113.54  3113.57

   temp. (K)  partition function   enthalpy   heat capacity  entropy
                                   cal/mol     cal/K/mol   cal/K/mol   J/K/mol
 298.15  VIB  0.319E+18            21893.487    138.119    136.301
         ROT  0.112E+09              888.752      2.981     39.808
         INT  0.357E+26            22782.240    141.100    176.109
         TR   0.149E+29             1481.254      4.968     45.130
         TOT                       24263.4936   146.0684   221.2388   925.6632

       T/K    H(0)-H(T)+PV         H(T)/Eh          T*S/Eh         G(T)/Eh
   ------------------------------------------------------------------------
    298.15    0.386663E-01    0.589894E+00    0.105118E+00    0.484776E+00
   ------------------------------------------------------------------------

         :::::::::::::::::::::::::::::::::::::::::::::::::::::
         ::                  THERMODYNAMIC                  ::
         :::::::::::::::::::::::::::::::::::::::::::::::::::::
         :: total free energy        -122.544805718362 Eh   ::
         ::.................................................::
         :: total energy             -123.029581937660 Eh   ::
         :: zero point energy           0.551227575570 Eh   ::
         :: G(RRHO) w/o ZPVE           -0.066451356272 Eh   ::
         :: G(RRHO) contrib.            0.484776219299 Eh   ::
         :::::::::::::::::::::::::::::::::::::::::::::::::::::

           -------------------------------------------------
          | TOTAL ENERGY             -123.029581937660 Eh   |
          | TOTAL ENTHALPY           -122.439688023855 Eh   |
          | TOTAL FREE ENERGY        -122.544805718362 Eh   |
          | GRADIENT NORM               0.000085353462 Eh/α |
          | HOMO-LUMO GAP               1.221738299872 eV   |
           -------------------------------------------------

 * finished run on 2025/08/24 at 00:02:28.897
