   * xtb version 6.7.1 (edcfbbe) compiled by 'albert@albert-system' on 2024-07-22

   ID    Z sym.   atoms
    1    7 N      1, 7, 22, 26
    2    6 C      2-6, 8-21, 23-25, 27-34
    3    1 H      35-48

          program call               : xtb data2507/gas/DCA/DCA.xyz --gfn 2 --ohess vtight --parallel 40 --molden --ceasefiles --namespace data2507/gas/DCA/DCA_gas_S0_preOpt
          :  Hamiltonian                  GFN2-xTB          :
 * total energy  :   -82.8942441 Eh     change       -0.4176343E-08 Eh
 * total energy  :   -82.9060928 Eh     change       -0.1184870E-01 Eh
 * total energy  :   -82.9085043 Eh     change       -0.2411536E-02 Eh
 * total energy  :   -82.9086897 Eh     change       -0.1853733E-03 Eh
 * total energy  :   -82.9087424 Eh     change       -0.5271011E-04 Eh
 * total energy  :   -82.9087373 Eh     change        0.5070434E-05 Eh
 * total energy  :   -82.9087440 Eh     change       -0.6661075E-05 Eh
 * total energy  :   -82.9087497 Eh     change       -0.5710363E-05 Eh
 * total energy  :   -82.9087466 Eh     change        0.3098716E-05 Eh
 * total energy  :   -82.9087508 Eh     change       -0.4236028E-05 Eh
 * total energy  :   -82.9087515 Eh     change       -0.6822260E-06 Eh
 * total energy  :   -82.9087513 Eh     change        0.1903651E-06 Eh
 * total energy  :   -82.9087519 Eh     change       -0.5450441E-06 Eh
 * total energy  :   -82.9087499 Eh     change        0.1905476E-05 Eh
 * total energy  :   -82.9087520 Eh     change       -0.2063909E-05 Eh
 * total energy  :   -82.9087520 Eh     change        0.1274432E-07 Eh
 * total energy  :   -82.9087520 Eh     change       -0.2654419E-07 Eh
   *** GEOMETRY OPTIMIZATION CONVERGED AFTER 17 ITERATIONS ***

 final structure:
================
48
 xtb: 6.7.1 (edcfbbe)
N           -6.24741853670800        0.00022354465899       -3.42619095272639
C           -5.68292425066718        0.00021163136475       -2.42965511507924
C           -4.98113624560986        0.00015131315939       -1.19912539631966
C           -5.68839841635726       -0.00004724693889       -0.00001930024761
C           -4.98115166071669       -0.00017434220291        1.19909598759222
C           -5.68295604801693       -0.00033729229542        2.42961589682652
N           -6.24746310288356       -0.00048869675805        3.42614143660227
C           -3.58616150419796       -0.00018161376346        1.20045952991241
C           -2.88662470416282       -0.00001068323128       -0.00000106519698
C           -1.40478185238336        0.00001008938062        0.00000558254729
C           -0.71474659671422       -1.21791742172677        0.00001245139079
C           -1.39268824476493       -2.46530173199658        0.00002832197669
C           -0.70486687716788       -3.63926248490298        0.00006764914936
C            0.70480528338612       -3.63927713626278        0.00009146701180
C            1.39266283264323       -2.46533167780153        0.00007145819316
C            0.71475083036210       -1.21792625758370        0.00002921176930
C            1.40478381112512        0.00001070210916        0.00000572864762
C            2.88663175337185        0.00005752259439        0.00000377055659
C            3.58616275232681        0.00027166687612        1.20046790965739
C            4.98115195534551        0.00022435942930        1.19911123981462
C            5.68294349224263        0.00051661719639        2.42963962512601
N            6.24743907786475        0.00040401196436        3.42617198700976
C            5.68840446614855        0.00005964557945       -0.00000088439086
C            4.98114790093198       -0.00018410311423       -1.19911055130779
C            5.68293463065145       -0.00043415225759       -2.42964196407618
N            6.24742745468835       -0.00060984138595       -3.42617891667793
C            3.58615885596100       -0.00015406090476       -1.20046260589806
C            0.71474485966794        1.21793598487655       -0.00001619325604
C            1.39268740774621        2.46532021910116       -0.00005709669360
C            0.70486046924078        3.63927775955788       -0.00007499430956
C           -0.70481238532154        3.63928854061309       -0.00005026559691
C           -1.39266558789550        2.46534193011865       -0.00001263121311
C           -0.71475103087208        1.21794107387825        0.00000072966256
C           -3.58614624991578        0.00016483886887       -1.20047064511330
H           -6.76825243964718       -0.00012133557545       -0.00002631372790
H           -3.04963273628679       -0.00026955994582        2.13802601931796
H           -2.47299597096513       -2.46783144494082        0.00001728573178
H           -1.23298031654108       -4.58080458490040        0.00006083459443
H            1.23289021182781       -4.58083599436602        0.00010168119449
H            2.47296872084237       -2.46789555326778        0.00007836642281
H            3.04962808425871        0.00047400659030        2.13803046083724
H            6.76825823181455        0.00014013220391       -0.00000265682655
H            3.04962129214208       -0.00028991125866       -2.13802352874151
H            2.47299516917906        2.46784919413809       -0.00006312371861
H            1.23297243049428        4.58081990934479       -0.00008356148556
H           -1.23289957830142        4.58084520273029       -0.00004100870242
H           -2.47297147256814        2.46789861558905        0.00000025224763
H           -3.04960516559798        0.00025261545801       -2.13803011248694

          :  Hamiltonian                  GFN2-xTB          :
         :: gradient norm              0.000063564313 Eh/a0 ::
         :: HOMO-LUMO gap              2.198419154949 eV    ::
         :: SCC energy               -84.627785386650 Eh    ::
         :: -> dispersion             -0.067788396343 Eh    ::
         :: repulsion energy           1.719033362288 Eh    ::

    * Orbital Energies and Occupations

         #    Occupation            Energy/Eh            Energy/eV
      -------------------------------------------------------------
         1        2.0000           -0.7010059             -19.0753
       ...           ...                  ...                  ...
        65        2.0000           -0.4537869             -12.3482
        66        2.0000           -0.4483950             -12.2014
        67        2.0000           -0.4476069             -12.1800
        68        2.0000           -0.4474974             -12.1770
        69        2.0000           -0.4459317             -12.1344
        70        2.0000           -0.4445986             -12.0981
        71        2.0000           -0.4383233             -11.9274
        72        2.0000           -0.4381518             -11.9227
        73        2.0000           -0.4349579             -11.8358
        74        2.0000           -0.4338314             -11.8052
        75        2.0000           -0.4332863             -11.7903
        76        2.0000           -0.4268995             -11.6165
        77        2.0000           -0.3891072             -10.5881 (HOMO)
        78                         -0.3083168              -8.3897 (LUMO)
        79                         -0.3052787              -8.3071
        80                         -0.3052689              -8.3068
        81                         -0.2907906              -7.9128
        82                         -0.2907398              -7.9114
        83                         -0.2588175              -7.0428
        84                         -0.2475584              -6.7364
        85                         -0.2317180              -6.3054
        86                         -0.2316018              -6.3022
        87                         -0.2231837              -6.0731
        88                         -0.2228050              -6.0628
       ...                                ...                  ...
       150                          1.1518351              31.3430
      -------------------------------------------------------------
                  HL-Gap            0.0807904 Eh            2.1984 eV

     #   Z          covCN         q      C6AA      α(0)
     1   7 N        0.911    -0.214    25.671     7.328
     2   6 C        1.913     0.113    28.319     8.594
     3   6 C        2.972     0.025    27.443     8.593
     4   6 C        2.934    -0.015    28.391     8.738
     5   6 C        2.972     0.025    27.443     8.593
     6   6 C        1.913     0.113    28.319     8.594
     7   7 N        0.911    -0.214    25.671     7.328
     8   6 C        2.931    -0.019    28.483     8.753
     9   6 C        2.975     0.026    27.417     8.589
    10   6 C        2.979    -0.008    28.214     8.713
    11   6 C        2.984     0.008    27.823     8.652
    12   6 C        2.917    -0.032    28.807     8.801
    13   6 C        2.915    -0.025    28.634     8.775
    14   6 C        2.915    -0.025    28.634     8.775
    15   6 C        2.917    -0.032    28.807     8.801
    16   6 C        2.984     0.008    27.823     8.652
    17   6 C        2.979    -0.008    28.214     8.713
    18   6 C        2.975     0.026    27.417     8.589
    19   6 C        2.931    -0.019    28.483     8.753
    20   6 C        2.972     0.025    27.443     8.593
    21   6 C        1.913     0.113    28.319     8.594
    22   7 N        0.911    -0.214    25.671     7.328
    23   6 C        2.934    -0.015    28.391     8.738
    24   6 C        2.972     0.025    27.443     8.593
    25   6 C        1.913     0.113    28.319     8.594
    26   7 N        0.911    -0.214    25.671     7.328
    27   6 C        2.931    -0.019    28.483     8.753
    28   6 C        2.984     0.008    27.823     8.652
    29   6 C        2.917    -0.032    28.807     8.801
    30   6 C        2.915    -0.025    28.634     8.775
    31   6 C        2.915    -0.025    28.634     8.775
    32   6 C        2.917    -0.032    28.807     8.801
    33   6 C        2.984     0.008    27.823     8.652
    34   6 C        2.931    -0.019    28.483     8.753
    35   1 H        0.926     0.054     2.272     2.357
    36   1 H        0.926     0.049     2.327     2.386
    37   1 H        0.926     0.028     2.608     2.525
    38   1 H        0.926     0.039     2.468     2.457
    39   1 H        0.926     0.039     2.468     2.457
    40   1 H        0.926     0.028     2.608     2.525
    41   1 H        0.926     0.049     2.327     2.386
    42   1 H        0.926     0.054     2.272     2.357
    43   1 H        0.926     0.049     2.327     2.386
    44   1 H        0.926     0.028     2.608     2.525
    45   1 H        0.926     0.039     2.468     2.457
    46   1 H        0.926     0.039     2.468     2.457
    47   1 H        0.926     0.028     2.608     2.525
    48   1 H        0.926     0.049     2.327     2.386

molecular dipole:
                 x           y           z       tot (Debye)
 q only:        0.000       0.000       0.000
   full:        0.000       0.000       0.000       0.001

 projected vibrational frequencies (cm⁻¹)
eigval :       -0.00    -0.00    -0.00    -0.00     0.00     0.00
eigval :      -14.60    -9.90    15.78    32.05    49.63    52.89
eigval :       65.71    88.01    97.55   102.16   111.04   113.12
eigval :      129.65   139.91   140.31   140.62   187.50   193.42
eigval :      207.21   209.14   222.47   233.95   246.31   339.30
eigval :      339.44   374.09   381.29   388.77   399.66   417.83
eigval :      419.96   422.41   434.08   442.61   445.72   450.63
eigval :      452.86   456.80   509.79   509.84   516.21   562.71
eigval :      563.34   568.46   607.42   609.89   612.90   612.94
eigval :      616.46   634.35   638.15   649.29   657.91   675.54
eigval :      692.10   737.45   747.58   771.04   772.98   809.73
eigval :      828.16   830.71   871.29   872.77   883.45   884.01
eigval :      898.55   898.75   899.81   917.10   917.45   928.45
eigval :      928.81   933.17   960.98   961.02   984.36   984.58
eigval :      997.91  1033.52  1079.85  1080.77  1135.25  1141.44
eigval :     1154.24  1154.49  1165.58  1180.76  1185.21  1187.67
eigval :     1228.31  1232.08  1232.38  1253.08  1268.04  1284.35
eigval :     1284.54  1305.15  1305.42  1345.72  1349.50  1376.32
eigval :     1385.49  1413.51  1415.17  1416.09  1423.65  1427.55
eigval :     1429.98  1459.37  1487.95  1528.26  1536.78  1543.57
eigval :     1558.69  1559.04  1564.87  1564.89  1608.16  1623.35
eigval :     2379.48  2379.65  2383.50  2384.21  3078.66  3078.85
eigval :     3079.66  3080.00  3090.81  3090.92  3093.95  3094.12
eigval :     3094.43  3094.50  3099.47  3099.61  3099.63  3100.07

   temp. (K)  partition function   enthalpy   heat capacity  entropy
                                   cal/mol     cal/K/mol   cal/K/mol   J/K/mol
 298.15  VIB  0.429E+13            15892.758     96.598    100.266
         ROT  0.716E+07              888.752      2.981     34.347
         INT  0.307E+20            16781.511     99.579    134.613
         TR   0.864E+28             1481.254      4.968     44.049
         TOT                       18262.7645   104.5474   178.6619   747.5213

       T/K    H(0)-H(T)+PV         H(T)/Eh          T*S/Eh         G(T)/Eh
   ------------------------------------------------------------------------
    298.15    0.291036E-01    0.366585E+00    0.848880E-01    0.281697E+00
   ------------------------------------------------------------------------

         :::::::::::::::::::::::::::::::::::::::::::::::::::::
         ::                  THERMODYNAMIC                  ::
         :::::::::::::::::::::::::::::::::::::::::::::::::::::
         :: total free energy         -82.627054675250 Eh   ::
         ::.................................................::
         :: total energy              -82.908752024354 Eh   ::
         :: zero point energy           0.337481799715 Eh   ::
         :: G(RRHO) w/o ZPVE           -0.055784450610 Eh   ::
         :: G(RRHO) contrib.            0.281697349105 Eh   ::
         :::::::::::::::::::::::::::::::::::::::::::::::::::::

           -------------------------------------------------
          | TOTAL ENERGY              -82.908752024354 Eh   |
          | TOTAL ENTHALPY            -82.542166656942 Eh   |
          | TOTAL FREE ENERGY         -82.627054675250 Eh   |
          | GRADIENT NORM               0.000063587697 Eh/α |
          | HOMO-LUMO GAP               2.198419162593 eV   |
           -------------------------------------------------

 * finished run on 2025/09/09 at 11:30:56.584
