   * xtb version 6.7.1 (edcfbbe) compiled by 'albert@albert-system' on 2024-07-22

   ID    Z sym.   atoms
    1    7 N      1, 7, 22, 26
    2    6 C      2-6, 8-21, 23-25, 27-34
    3    1 H      35-48

          program call               : xtb data2507/gas/DCA/DCA_gas_S0_finalOpt.xtbopt.xyz --gfn 2 --spinpol --tblite --uhf 2 --ohess vtight --parallel 40 --molden --ceasefiles --namespace data2507/gas/DCA/DCA_gas_T1_preOpt
 * total energy  :   -82.8370316 Eh     change       -0.4502638E-08 Eh
 * total energy  :   -82.8433451 Eh     change       -0.6313451E-02 Eh
 * total energy  :   -82.8447644 Eh     change       -0.1419306E-02 Eh
 * total energy  :   -82.8447977 Eh     change       -0.3334742E-04 Eh
 * total energy  :   -82.8449486 Eh     change       -0.1509247E-03 Eh
 * total energy  :   -82.8450007 Eh     change       -0.5202343E-04 Eh
 * total energy  :   -82.8450495 Eh     change       -0.4883422E-04 Eh
 * total energy  :   -82.8450930 Eh     change       -0.4350073E-04 Eh
 * total energy  :   -82.8451340 Eh     change       -0.4103792E-04 Eh
 * total energy  :   -82.8451783 Eh     change       -0.4429604E-04 Eh
 * total energy  :   -82.8462634 Eh     change       -0.1580627E-05 Eh
 * total energy  :   -82.8462642 Eh     change       -0.8608358E-06 Eh
 * total energy  :   -82.8462646 Eh     change       -0.3182218E-06 Eh
 * total energy  :   -82.8462649 Eh     change       -0.3956778E-06 Eh
 * total energy  :   -82.8462652 Eh     change       -0.2074877E-06 Eh
 * total energy  :   -82.8462654 Eh     change       -0.2685302E-06 Eh
 * total energy  :   -82.8462660 Eh     change       -0.5873825E-06 Eh
 * total energy  :   -82.8462662 Eh     change       -0.1672457E-06 Eh
 * total energy  :   -82.8462662 Eh     change       -0.6678420E-07 Eh
   *** GEOMETRY OPTIMIZATION CONVERGED AFTER 43 ITERATIONS ***

 final structure:
================
48
 xtb: 6.7.1 (edcfbbe)
N           -6.24528504434097       -2.10085977677427       -2.71208756164580
C           -5.68560079068946       -1.48564575949527       -1.92447790988718
C           -4.98791710489618       -0.73316094650885       -0.94815539116938
C           -5.69994305051861       -0.00032892733130       -0.00029373893727
C           -4.98871823120466        0.73260907607818        0.94807998890217
C           -5.68735400372448        1.48481502725480        1.92396381911697
N           -6.24809561690024        2.09949448870991        2.71119314650574
C           -3.59646323002315        0.73588226912616        0.94950096893559
C           -2.88233445414577        0.00007417270552        0.00062411239692
C           -1.42146009493605        0.00021885586560        0.00081545532024
C           -0.71251855173475       -1.24018862602881        0.07389901230824
C           -1.37360180756557       -2.46042953533426        0.22916333389148
C           -0.68265549252697       -3.67141307705040        0.21466529085527
C            0.68244879220417       -3.67758649890637        0.03653253482827
C            1.37356995404779       -2.47051997009206       -0.06074205670188
C            0.71271084695338       -1.24241324081570        0.01105571924472
C            1.42175821512627        0.00004695015702       -0.00049444832345
C            2.88259175623059        0.00003192217145       -0.00072821206915
C            3.59639254847805       -0.67065054162693        0.99553654812608
C            4.98861318596961       -0.66734992592726        0.99455044024505
C            5.68692595772904       -1.35293147815572        2.01857583868827
N            6.24755642283719       -1.91419481100023        2.84485616541207
C            5.70023195865037        0.00094802097467       -0.00016767020726
C            4.98858338969676        0.66872159415887       -0.99517448866651
C            5.68678843723294        1.35549976119682       -2.01844486132429
N            6.24713557753830        1.91836161120624       -2.84383879674164
C            3.59633414680902        0.67106657891723       -0.99676523420109
C            0.71282245326545        1.24261137354747       -0.01113464829602
C            1.37391033802851        2.47061318287412        0.06024296114238
C            0.68284463489412        3.67781557180066       -0.03567158462222
C           -0.68248480561381        3.67190054318558       -0.21206814863701
C           -1.37358336459524        2.46100784690064       -0.22636430917070
C           -0.71249007597360        1.24059275722475       -0.07244941924487
C           -3.59567417849193       -0.73602154891285       -0.94864895202934
H           -6.77933620234716       -0.00044404804583       -0.00065904595183
H           -3.06589403490444        1.29118472946763        1.70925944542833
H           -2.44337309628839       -2.47577655366320        0.37143007047289
H           -1.22746393021773       -4.59570720530791        0.32915625596090
H            1.22713211902487       -4.60762339739605       -0.01454601032868
H            2.44330529582755       -2.49576266372619       -0.20188591862163
H            3.06549411168409       -1.17389823198838        1.79050655926849
H            6.77962113031761        0.00138645996721        0.00014443830019
H            3.06546701551990        1.17409601229365       -1.79190758654198
H            2.44382880199947        2.49570184577362        0.20000770436297
H            1.22773934619327        4.60774265958558        0.01512343080428
H           -1.22733207329100        4.59632271515116       -0.32538546965484
H           -2.44352343488343        2.47659619307373       -0.36736582210335
H           -3.06442995289173       -1.29133715555966       -1.70792608501123

 projected vibrational frequencies (cm⁻¹)
eigval :       -0.00    -0.00    -0.00     0.00     0.00     0.00
eigval :       13.44    20.00    31.33    33.96    52.04    54.69
eigval :       71.11    88.12    98.01   106.37   113.28   115.20
eigval :      120.83   139.67   156.12   169.72   189.25   191.30
eigval :      216.00   233.99   236.17   250.16   255.59   346.17
eigval :      348.86   354.47   372.19   385.46   389.31   394.35
eigval :      416.88   417.50   420.07   437.10   439.18   448.61
eigval :      452.53   467.28   509.77   509.86   517.42   542.68
eigval :      555.51   568.66   598.92   604.89   605.74   610.66
eigval :      610.71   615.86   632.18   653.62   659.27   671.29
eigval :      671.36   714.57   740.02   745.97   759.16   801.10
eigval :      825.96   830.68   844.13   847.05   876.26   883.66
eigval :      886.53   892.15   901.55   905.55   909.36   912.89
eigval :      913.23   938.03   962.52   967.64   980.97   981.09
eigval :     1001.51  1034.78  1102.65  1106.01  1113.34  1132.87
eigval :     1153.90  1153.98  1166.17  1168.21  1180.69  1182.46
eigval :     1228.42  1233.99  1234.65  1239.92  1242.73  1259.14
eigval :     1261.79  1296.46  1311.03  1312.64  1328.64  1349.20
eigval :     1362.64  1373.58  1375.63  1404.95  1405.88  1408.21
eigval :     1416.45  1420.99  1426.00  1473.79  1484.11  1513.00
eigval :     1529.94  1533.13  1534.21  1541.74  1542.22  1559.50
eigval :     2378.60  2378.74  2381.34  2382.81  3087.12  3087.41
eigval :     3089.28  3089.45  3091.26  3091.42  3091.49  3092.02
eigval :     3097.02  3097.38  3103.35  3103.67  3105.10  3105.63

   temp. (K)  partition function   enthalpy   heat capacity  entropy
                                   cal/mol     cal/K/mol   cal/K/mol   J/K/mol
 298.15  VIB  0.772E+12            15852.216     97.694     98.589
         ROT  0.720E+07              888.752      2.981     34.359
         INT  0.556E+19            16740.968    100.675    132.948
         TR   0.864E+28             1481.254      4.968     44.049
         TOT                       18222.2223   105.6433   176.9968   740.5546

       T/K    H(0)-H(T)+PV         H(T)/Eh          T*S/Eh         G(T)/Eh
   ------------------------------------------------------------------------
    298.15    0.290390E-01    0.364292E+00    0.840969E-01    0.280195E+00
   ------------------------------------------------------------------------

         :::::::::::::::::::::::::::::::::::::::::::::::::::::
         ::                  THERMODYNAMIC                  ::
         :::::::::::::::::::::::::::::::::::::::::::::::::::::
         :: total free energy         -82.566071271557 Eh   ::
         ::.................................................::
         :: total energy              -82.846266247416 Eh   ::
         :: zero point energy           0.335252910043 Eh   ::
         :: G(RRHO) w/o ZPVE           -0.055057934184 Eh   ::
         :: G(RRHO) contrib.            0.280194975858 Eh   ::
         :::::::::::::::::::::::::::::::::::::::::::::::::::::

           -------------------------------------------------
          | TOTAL ENERGY              -82.846266247416 Eh   |
          | TOTAL ENTHALPY            -82.481974377665 Eh   |
          | TOTAL FREE ENERGY         -82.566071271557 Eh   |
          | GRADIENT NORM               0.000119069953 Eh/α |
           -------------------------------------------------

 * finished run on 2025/09/09 at 11:33:02.574
