   * xtb version 6.7.1 (edcfbbe) compiled by 'albert@albert-system' on 2024-07-22

   ID    Z sym.   atoms
    1    7 N      1, 7, 22, 26
    2    6 C      2-6, 8-21, 23-25, 27-34
    3    1 H      35-48

          program call               : xtb data2507/gas/DCA/DCA_gas_S0_crest.xyz --gfn 2 --ohess vtight --parallel 40 --molden --ceasefiles --namespace data2507/gas/DCA/DCA_gas_S0_finalOpt
          :  Hamiltonian                  GFN2-xTB          :
 * total energy  :   -82.9092964 Eh     change       -0.6356373E-09 Eh
 * total energy  :   -82.9092965 Eh     change       -0.1207755E-06 Eh
 * total energy  :   -82.9092966 Eh     change       -0.2911308E-07 Eh
 * total energy  :   -82.9092971 Eh     change       -0.5317332E-06 Eh
 * total energy  :   -82.9092971 Eh     change       -0.2579316E-07 Eh
 * total energy  :   -82.9092974 Eh     change       -0.3312358E-06 Eh
 * total energy  :   -82.9092973 Eh     change        0.1157304E-06 Eh
 * total energy  :   -82.9092978 Eh     change       -0.5044677E-06 Eh
 * total energy  :   -82.9092980 Eh     change       -0.2178100E-06 Eh
 * total energy  :   -82.9092982 Eh     change       -0.1413415E-06 Eh
 * total energy  :   -82.9092984 Eh     change       -0.1738590E-06 Eh
 * total energy  :   -82.9092985 Eh     change       -0.1677857E-06 Eh
 * total energy  :   -82.9092987 Eh     change       -0.1261219E-06 Eh
 * total energy  :   -82.9092988 Eh     change       -0.1078094E-06 Eh
 * total energy  :   -82.9092989 Eh     change       -0.1185704E-06 Eh
 * total energy  :   -82.9092990 Eh     change       -0.1104432E-06 Eh
 * total energy  :   -82.9092991 Eh     change       -0.1017779E-06 Eh
 * total energy  :   -82.9092992 Eh     change       -0.1192220E-06 Eh
 * total energy  :   -82.9092993 Eh     change       -0.9468658E-07 Eh
   *** GEOMETRY OPTIMIZATION CONVERGED AFTER 19 ITERATIONS ***

 final structure:
================
48
 xtb: 6.7.1 (edcfbbe)
N           -6.24567071553172       -1.41566404781840       -3.12183809928698
C           -5.68296295887300       -1.00053052576118       -2.21476299842253
C           -4.98262845099546       -0.49212646274954       -1.09329507837226
C           -5.69086600081916       -0.00001011843072       -0.00037622332478
C           -4.98319369917882        0.49224689626424        1.09284031601553
C           -5.68415460947944        1.00104595647379        2.21375508716943
N           -6.24749439479811        1.41666907703069        3.12022918974705
C           -3.58847689741287        0.49230955950481        1.09471211195350
C           -2.88575841889808        0.00003771853550        0.00036811296369
C           -1.40754962072353       -0.00009784314659        0.00061223328402
C           -0.71503259828767       -1.21834355358823        0.04715528591351
C           -1.38962665221220       -2.46518457278858        0.12884688036377
C           -0.70316544462797       -3.63985661401944        0.14850338882631
C            0.70413357953720       -3.64179380739918        0.08345019026336
C            1.39009301276821       -2.46796130128649        0.02907130060996
C            0.71477551017556       -1.21885480159039        0.03093336047985
C            1.40726809110133       -0.00031293271747        0.00022804032929
C            2.88569701908179       -0.00018150128617        0.00004514048087
C            3.58813088867807       -0.40761302126520        1.12881132923279
C            4.98285938812105       -0.40627329610911        1.12756043339070
C            5.68399846547733       -0.82604547124490        2.28464886184083
N            6.24740371623549       -1.16885886117337        3.22102646231820
C            5.69054043166746        0.00142327794303        0.00007621591215
C            4.98242150525717        0.40817686111354       -1.12746719994232
C            5.68297442679785        0.82925114569491       -2.28444320058944
N            6.24580176350835        1.17336533440228       -3.22070653876691
C            3.58770091829253        0.40798012655224       -1.12873614192463
C            0.71493129219809        1.21834803111326       -0.03013731350009
C            1.39039555818429        2.46736367668319       -0.02838749839046
C            0.70457137862382        3.64128817270588       -0.08235481946001
C           -0.70274149062679        3.63956573574719       -0.14686237814268
C           -1.38933325075020        2.46497705968466       -0.12722491158588
C           -0.71486632395719        1.21805147713432       -0.04594301107549
C           -3.58792035565895       -0.49204988892906       -1.09441657939861
H           -6.77066248867852       -0.00004624019431       -0.00061821545488
H           -3.05349972275930        0.87214428639677        1.95303794998817
H           -2.46830450152684       -2.47113636281536        0.17965609441897
H           -1.23167564688023       -4.57910541315154        0.21018556555500
H            1.23288932874229       -4.58292162938504        0.08146978762024
H            2.46884944845721       -2.47619587125921       -0.02015657498536
H            3.05293094943326       -0.72203351991878        2.01304879500203
H            6.77034804081086        0.00217161177454        0.00015625291605
H            3.05218267649581        0.72189956749777       -2.01295961688456
H            2.46916511160149        2.47548798186615        0.02040410964211
H            1.23346560903090        4.58232702434303       -0.08037770246059
H           -1.23117064694000        4.57887866844137       -0.20814324831477
H           -2.46802318142785        2.47109826002288       -0.17763916906049
H           -3.05247632393347       -0.87181153639772       -1.95248606519379

          :  Hamiltonian                  GFN2-xTB          :
         :: gradient norm              0.000070366559 Eh/a0 ::
         :: HOMO-LUMO gap              2.102921073389 eV    ::
         :: SCC energy               -84.626749008340 Eh    ::
         :: -> dispersion             -0.068111059171 Eh    ::
         :: repulsion energy           1.717449697295 Eh    ::

    * Orbital Energies and Occupations

         #    Occupation            Energy/Eh            Energy/eV
      -------------------------------------------------------------
         1        2.0000           -0.7007751             -19.0691
       ...           ...                  ...                  ...
        65        2.0000           -0.4526632             -12.3176
        66        2.0000           -0.4496634             -12.2360
        67        2.0000           -0.4469018             -12.1608
        68        2.0000           -0.4461513             -12.1404
        69        2.0000           -0.4448799             -12.1058
        70        2.0000           -0.4444849             -12.0950
        71        2.0000           -0.4382754             -11.9261
        72        2.0000           -0.4380912             -11.9211
        73        2.0000           -0.4352821             -11.8446
        74        2.0000           -0.4350822             -11.8392
        75        2.0000           -0.4314474             -11.7403
        76        2.0000           -0.4271598             -11.6236
        77        2.0000           -0.3888205             -10.5803 (HOMO)
        78                         -0.3115395              -8.4774 (LUMO)
        79                         -0.3049457              -8.2980
        80                         -0.3048457              -8.2953
        81                         -0.2904320              -7.9031
        82                         -0.2886113              -7.8535
        83                         -0.2591536              -7.0519
        84                         -0.2477266              -6.7410
        85                         -0.2315600              -6.3011
        86                         -0.2314479              -6.2980
        87                         -0.2276724              -6.1953
        88                         -0.2239246              -6.0933
       ...                                ...                  ...
       150                          1.1519431              31.3460
      -------------------------------------------------------------
                  HL-Gap            0.0772809 Eh            2.1029 eV

     #   Z          covCN         q      C6AA      α(0)
     1   7 N        0.911    -0.215    25.684     7.330
     2   6 C        1.913     0.113    28.323     8.595
     3   6 C        2.971     0.024    27.454     8.595
     4   6 C        2.933    -0.015    28.391     8.738
     5   6 C        2.971     0.024    27.454     8.595
     6   6 C        1.913     0.113    28.323     8.595
     7   7 N        0.911    -0.215    25.684     7.330
     8   6 C        2.931    -0.019    28.485     8.753
     9   6 C        2.975     0.025    27.439     8.592
    10   6 C        2.978    -0.008    28.207     8.712
    11   6 C        2.983     0.009    27.817     8.651
    12   6 C        2.917    -0.033    28.828     8.805
    13   6 C        2.915    -0.025    28.637     8.775
    14   6 C        2.914    -0.025    28.637     8.775
    15   6 C        2.917    -0.033    28.827     8.804
    16   6 C        2.983     0.009    27.817     8.652
    17   6 C        2.978    -0.008    28.206     8.712
    18   6 C        2.975     0.025    27.437     8.592
    19   6 C        2.931    -0.019    28.485     8.753
    20   6 C        2.971     0.025    27.453     8.594
    21   6 C        1.913     0.113    28.323     8.595
    22   7 N        0.911    -0.215    25.682     7.330
    23   6 C        2.933    -0.015    28.390     8.738
    24   6 C        2.971     0.025    27.453     8.594
    25   6 C        1.913     0.113    28.323     8.595
    26   7 N        0.911    -0.215    25.682     7.330
    27   6 C        2.931    -0.019    28.485     8.753
    28   6 C        2.983     0.009    27.817     8.652
    29   6 C        2.917    -0.033    28.827     8.804
    30   6 C        2.914    -0.025    28.637     8.775
    31   6 C        2.915    -0.025    28.637     8.775
    32   6 C        2.917    -0.033    28.828     8.805
    33   6 C        2.983     0.009    27.817     8.651
    34   6 C        2.931    -0.019    28.485     8.753
    35   1 H        0.926     0.054     2.275     2.359
    36   1 H        0.926     0.050     2.319     2.381
    37   1 H        0.926     0.030     2.586     2.515
    38   1 H        0.926     0.039     2.466     2.456
    39   1 H        0.926     0.039     2.466     2.456
    40   1 H        0.926     0.030     2.587     2.515
    41   1 H        0.926     0.050     2.319     2.381
    42   1 H        0.926     0.054     2.275     2.358
    43   1 H        0.926     0.050     2.319     2.381
    44   1 H        0.926     0.030     2.587     2.515
    45   1 H        0.926     0.039     2.466     2.456
    46   1 H        0.926     0.039     2.466     2.456
    47   1 H        0.926     0.030     2.586     2.515
    48   1 H        0.926     0.050     2.319     2.381

molecular dipole:
                 x           y           z       tot (Debye)
 q only:        0.002      -0.001       0.000
   full:        0.002      -0.002       0.001       0.007

 projected vibrational frequencies (cm⁻¹)
eigval :       -0.00    -0.00    -0.00     0.00     0.00     0.00
eigval :       14.24    15.80    21.36    33.58    52.93    54.31
eigval :       68.66    87.99    97.59   105.05   113.24   115.24
eigval :      129.51   139.59   147.49   151.97   188.36   195.42
eigval :      210.20   216.60   230.04   244.49   249.31   342.40
eigval :      342.96   375.03   381.02   391.21   400.88   406.25
eigval :      421.69   427.50   436.07   445.31   445.96   450.38
eigval :      453.21   457.57   509.85   509.89   517.59   559.39
eigval :      563.73   571.16   604.28   612.81   612.85   614.35
eigval :      616.32   632.76   639.86   648.99   660.53   676.14
eigval :      693.38   738.33   746.97   772.56   773.99   809.74
eigval :      831.88   833.98   872.19   873.19   884.54   885.99
eigval :      899.43   902.57   903.99   918.78   919.72   928.94
eigval :      929.43   930.68   961.62   962.79   984.26   984.41
eigval :      998.05  1034.44  1084.15  1084.76  1134.95  1142.33
eigval :     1154.41  1154.55  1167.67  1182.58  1186.77  1189.31
eigval :     1229.68  1232.70  1234.82  1255.38  1266.96  1283.06
eigval :     1283.30  1307.80  1308.00  1343.29  1349.36  1375.76
eigval :     1383.49  1412.23  1414.51  1415.96  1423.36  1427.18
eigval :     1429.10  1454.81  1485.30  1528.10  1531.30  1540.87
eigval :     1558.12  1558.26  1562.03  1562.21  1608.02  1622.55
eigval :     2379.45  2379.58  2383.43  2384.19  3081.48  3081.64
eigval :     3083.42  3083.70  3092.26  3092.35  3092.64  3093.16
eigval :     3093.26  3093.74  3100.03  3100.14  3100.53  3101.16

   temp. (K)  partition function   enthalpy   heat capacity  entropy
                                   cal/mol     cal/K/mol   cal/K/mol   J/K/mol
 298.15  VIB  0.141E+13            15790.231     96.622     98.793
         ROT  0.716E+07              888.752      2.981     34.349
         INT  0.101E+20            16678.983     99.603    133.141
         TR   0.864E+28             1481.254      4.968     44.049
         TOT                       18160.2370   104.5707   177.1903   741.3644

       T/K    H(0)-H(T)+PV         H(T)/Eh          T*S/Eh         G(T)/Eh
   ------------------------------------------------------------------------
    298.15    0.289402E-01    0.366729E+00    0.841888E-01    0.282540E+00
   ------------------------------------------------------------------------

         :::::::::::::::::::::::::::::::::::::::::::::::::::::
         ::                  THERMODYNAMIC                  ::
         :::::::::::::::::::::::::::::::::::::::::::::::::::::
         :: total free energy         -82.626759621847 Eh   ::
         ::.................................................::
         :: total energy              -82.909299311003 Eh   ::
         :: zero point energy           0.337788356195 Eh   ::
         :: G(RRHO) w/o ZPVE           -0.055248667038 Eh   ::
         :: G(RRHO) contrib.            0.282539689156 Eh   ::
         :::::::::::::::::::::::::::::::::::::::::::::::::::::

           -------------------------------------------------
          | TOTAL ENERGY              -82.909299311003 Eh   |
          | TOTAL ENTHALPY            -82.542570775027 Eh   |
          | TOTAL FREE ENERGY         -82.626759621847 Eh   |
          | GRADIENT NORM               0.000070390541 Eh/α |
          | HOMO-LUMO GAP               2.102921053987 eV   |
           -------------------------------------------------

 * finished run on 2025/09/09 at 11:32:58.959
