   * xtb version 6.7.1 (edcfbbe) compiled by 'albert@albert-system' on 2024-07-22

   ID    Z sym.   atoms
    1    7 N      1, 7, 22, 26
    2    6 C      2-6, 8-21, 23-25, 27-34
    3    1 H      35-48

          program call               : xtb data2507/gas/DCA/DCA_gas_T1_crest.xyz --gfn 2 --spinpol --tblite --uhf 2 --ohess vtight --parallel 40 --molden --ceasefiles --namespace data2507/gas/DCA/DCA_gas_T1_finalOpt
 * total energy  :   -82.8461995 Eh     change       -0.9306902E-08 Eh
 * total energy  :   -82.8462316 Eh     change       -0.3209668E-04 Eh
 * total energy  :   -82.8462388 Eh     change       -0.7172460E-05 Eh
 * total energy  :   -82.8462395 Eh     change       -0.7111634E-06 Eh
 * total energy  :   -82.8462429 Eh     change       -0.3441784E-05 Eh
 * total energy  :   -82.8462444 Eh     change       -0.1432542E-05 Eh
 * total energy  :   -82.8462465 Eh     change       -0.2169222E-05 Eh
 * total energy  :   -82.8462486 Eh     change       -0.2091634E-05 Eh
 * total energy  :   -82.8462505 Eh     change       -0.1860594E-05 Eh
 * total energy  :   -82.8462524 Eh     change       -0.1882862E-05 Eh
 * total energy  :   -82.8462636 Eh     change       -0.2272285E-06 Eh
 * total energy  :   -82.8462638 Eh     change       -0.1826009E-06 Eh
 * total energy  :   -82.8462640 Eh     change       -0.1585093E-06 Eh
 * total energy  :   -82.8462641 Eh     change       -0.1506662E-06 Eh
 * total energy  :   -82.8462642 Eh     change       -0.1386648E-06 Eh
 * total energy  :   -82.8462644 Eh     change       -0.1293235E-06 Eh
 * total energy  :   -82.8462645 Eh     change       -0.1103176E-06 Eh
 * total energy  :   -82.8462646 Eh     change       -0.1057771E-06 Eh
 * total energy  :   -82.8462647 Eh     change       -0.9822641E-07 Eh
   *** GEOMETRY OPTIMIZATION CONVERGED AFTER 38 ITERATIONS ***

 final structure:
================
48
 xtb: 6.7.1 (edcfbbe)
N           -6.24855689752146       -2.02549127125449       -2.76505706623856
C           -5.68773555250840       -1.43217324631680       -1.96161981222441
C           -4.98902741545014       -0.70713654616332       -0.96544135144331
C           -5.70025475328259       -0.00137581522969        0.00335126651569
C           -4.98811942696860        0.70424019998339        0.97158594944172
C           -5.68586296462101        1.42955757471690        1.96823568199688
N           -6.24587902168052        2.02316114999190        2.77202448987225
C           -3.59591502766381        0.70669467633356        0.97240369805878
C           -2.88243601466470       -0.00164414768470        0.00220410862079
C           -1.42176855797810       -0.00151628232946        0.00158327086873
C           -0.71234110628064       -1.24349513239690        0.03233523076871
C           -1.37270433183985       -2.46861181402531        0.14710415784986
C           -0.68160350866047       -3.67812905601018        0.08859686548058
C            0.68296970902509       -3.67767710865667       -0.09384390183717
C            1.37362087089571       -2.46778010004261       -0.14986110949853
C            0.71282044563189       -1.24314692562389       -0.03247567986317
C            1.42174451607117       -0.00093388964192        0.00083862577576
C            2.88239655255925       -0.00040797152618       -0.00026721470973
C            3.59751290968243       -0.71076963224029        0.96724213431660
C            4.98972156004971       -0.70752880786643        0.96461139059076
C            5.68917131372720       -1.43491442089484        1.95855446658410
N            6.25059705337029       -2.03016766816757        2.76013644976677
C            5.70023674980631        0.00095757608042       -0.00271362207864
C            4.98737606319054        0.70879473832733       -0.96879487591070
C            5.68435559076076        1.43699430712096       -1.96387593130548
N            6.24373190897852        2.03296832783734       -2.76635554045279
C            3.59517533193854        0.71067582141162       -0.96898555130927
C            0.71230378160755        1.24096817310630        0.03478570329551
C            1.37264707612790        2.46584038256116        0.15225549846816
C            0.68150423905441        3.67547084695513        0.09651148138368
C           -0.68308713455536        3.67539414323586       -0.08580519242739
C           -1.37372878333291        2.46560567670679       -0.14422799356582
C           -0.71286308750683        1.24074774439451       -0.02953199218256
C           -3.59681678900717       -0.70987777741819       -0.96739643536942
H           -6.77964148238463       -0.00124143406947        0.00376212864453
H           -3.06473548096253        1.23945909298528        1.74771427173993
H           -2.44204797075092       -2.48927471386554        0.29186959642492
H           -1.22589840225520       -4.60601252689186        0.17239258404693
H            1.22762170002082       -4.60517437504404       -0.17956702570385
H            2.44295722608790       -2.48776905832339       -0.29475838761720
H            3.06766563702257       -1.24566946970660        1.74199383308881
H            6.77962251079369        0.00147604028184       -0.00364763475396
H            3.06343950510886        1.24517078340652       -1.74272218158740
H            2.44199579615214        2.48621688715739        0.29702167507511
H            1.22579014282951        4.60317510544111        0.18229657781223
H           -1.22775786714135        4.60305971045617       -0.16953624687201
H           -2.44309113032831        2.48585127970724       -0.28890262518329
H           -3.06638534474700       -1.24268444130868       -1.74319011615327

 projected vibrational frequencies (cm⁻¹)
eigval :       -0.00    -0.00     0.00     0.00     0.00     0.00
eigval :       13.68    20.33    31.41    34.36    52.42    54.83
eigval :       71.31    88.10    98.10   106.78   113.50   115.35
eigval :      121.05   139.68   156.51   170.26   189.47   191.11
eigval :      216.49   234.22   236.82   250.42   255.98   346.42
eigval :      349.13   354.52   372.15   385.23   389.45   394.21
eigval :      417.07   418.04   420.15   437.18   439.28   448.62
eigval :      452.63   467.46   509.83   509.84   517.60   542.70
eigval :      555.60   568.74   598.92   604.92   605.81   610.66
eigval :      610.72   615.96   632.18   653.61   659.39   671.32
eigval :      671.50   714.62   740.02   746.29   759.48   801.20
eigval :      826.15   830.90   844.60   847.50   876.41   884.02
eigval :      886.77   892.16   902.09   905.80   909.60   913.36
eigval :      913.79   938.08   962.70   967.82   980.96   981.05
eigval :     1001.57  1034.68  1102.69  1106.04  1113.50  1133.08
eigval :     1154.13  1154.21  1166.79  1168.60  1181.11  1182.89
eigval :     1228.60  1234.36  1234.86  1240.26  1242.83  1259.19
eigval :     1261.90  1296.20  1311.13  1312.74  1328.63  1349.09
eigval :     1362.70  1373.50  1375.94  1405.27  1405.91  1408.24
eigval :     1416.45  1420.95  1426.05  1474.01  1484.28  1513.01
eigval :     1530.11  1532.96  1534.15  1541.59  1542.10  1559.53
eigval :     2378.63  2378.70  2381.10  2382.62  3087.27  3087.54
eigval :     3089.36  3089.55  3091.48  3091.76  3091.78  3092.33
eigval :     3097.03  3097.42  3103.62  3103.65  3105.13  3105.74

   temp. (K)  partition function   enthalpy   heat capacity  entropy
                                   cal/mol     cal/K/mol   cal/K/mol   J/K/mol
 298.15  VIB  0.716E+12            15843.464     97.696     98.493
         ROT  0.720E+07              888.752      2.981     34.359
         INT  0.515E+19            16732.216    100.677    132.853
         TR   0.864E+28             1481.254      4.968     44.049
         TOT                       18213.4700   105.6450   176.9016   740.1563

       T/K    H(0)-H(T)+PV         H(T)/Eh          T*S/Eh         G(T)/Eh
   ------------------------------------------------------------------------
    298.15    0.290250E-01    0.364323E+00    0.840517E-01    0.280272E+00
   ------------------------------------------------------------------------

         :::::::::::::::::::::::::::::::::::::::::::::::::::::
         ::                  THERMODYNAMIC                  ::
         :::::::::::::::::::::::::::::::::::::::::::::::::::::
         :: total free energy         -82.565992979832 Eh   ::
         ::.................................................::
         :: total energy              -82.846264680265 Eh   ::
         :: zero point energy           0.335298343618 Eh   ::
         :: G(RRHO) w/o ZPVE           -0.055026643185 Eh   ::
         :: G(RRHO) contrib.            0.280271700433 Eh   ::
         :::::::::::::::::::::::::::::::::::::::::::::::::::::

           -------------------------------------------------
          | TOTAL ENERGY              -82.846264680265 Eh   |
          | TOTAL ENTHALPY            -82.481941324643 Eh   |
          | TOTAL FREE ENERGY         -82.565992979832 Eh   |
          | GRADIENT NORM               0.000032152723 Eh/α |
           -------------------------------------------------

 * finished run on 2025/09/09 at 11:34:59.600
