   * xtb version 6.7.1 (edcfbbe) compiled by 'albert@albert-system' on 2024-07-22

   ID    Z sym.   atoms
    1    9 F      1, 20
    2    6 C      2-4, 6-11, 13-19, 21, 22, 24-29, 31-36
    3    7 N      5, 23
    4   16 S      12, 30
    5    1 H      37-54

          program call               : xtb data2507/toluene/2PS-2FPh/2PS-2FPh.xyz --gfn 2 --gbsa toluene --ohess vtight --parallel 40 --molden --ceasefiles --namespace data2507/toluene/2PS-2FPh/2PS-2FPh_toluene_S0_preOpt
      * Solvation model:               GBSA
        Solvent                        toluene
        Solvent mass                       9.2140E+01 g/mol
          :  Hamiltonian                  GFN2-xTB          :
 * total energy  :   -95.2601586 Eh     change       -0.1615788E-08 Eh
 * total energy  :   -95.2733879 Eh     change       -0.1322936E-01 Eh
 * total energy  :   -95.2779673 Eh     change       -0.4579393E-02 Eh
 * total energy  :   -95.2789408 Eh     change       -0.9735223E-03 Eh
 * total energy  :   -95.2795085 Eh     change       -0.5676577E-03 Eh
 * total energy  :   -95.2797965 Eh     change       -0.2880013E-03 Eh
 * total energy  :   -95.2799601 Eh     change       -0.1636188E-03 Eh
 * total energy  :   -95.2800518 Eh     change       -0.9172013E-04 Eh
 * total energy  :   -95.2801106 Eh     change       -0.5878402E-04 Eh
 * total energy  :   -95.2801274 Eh     change       -0.1677057E-04 Eh
 * total energy  :   -95.2804043 Eh     change       -0.1919781E-05 Eh
 * total energy  :   -95.2804055 Eh     change       -0.1127350E-05 Eh
 * total energy  :   -95.2804061 Eh     change       -0.6733035E-06 Eh
 * total energy  :   -95.2804066 Eh     change       -0.4622914E-06 Eh
 * total energy  :   -95.2804070 Eh     change       -0.3900657E-06 Eh
 * total energy  :   -95.2804074 Eh     change       -0.3919574E-06 Eh
 * total energy  :   -95.2804078 Eh     change       -0.4242863E-06 Eh
 * total energy  :   -95.2804083 Eh     change       -0.4521594E-06 Eh
 * total energy  :   -95.2804083 Eh     change       -0.3550326E-08 Eh
   *** GEOMETRY OPTIMIZATION CONVERGED AFTER 44 ITERATIONS ***

 final structure:
================
54
 xtb: 6.7.1 (edcfbbe)
F           -1.48153885908367        0.00032043690334        2.27276584240068
C           -0.74748698231738        0.00025661136315        1.14490334239694
C            0.63122718991765        0.00025683367335        1.24343610974450
C            1.40207273373079        0.00016630455507        0.08763041586442
N            2.81855972149077        0.00008899983741        0.17447858074529
C            3.46533435146608        1.23625297982897        0.07019597983154
C            2.72330484284869        2.39864633017845       -0.14028965642820
C            3.33160915085449        3.63806770581100       -0.23882129641915
C            4.70548774464041        3.75083702830723       -0.14202299249866
C            5.45859753728780        2.60972329619233        0.07058350695739
C            4.85042503483629        1.37008388816247        0.18718849316962
S            5.91372568522668       -0.00009908194828        0.54877774701919
C            4.85021024273121       -1.37022225299777        0.18760049293678
C            5.45818982664227       -2.60999097396693        0.07135649433885
C            4.70490567580140       -3.75104299370053       -0.14095941399002
C            3.33104397813788       -3.63808738606624       -0.23779487610229
C            2.72293051512674       -2.39854597831660       -0.13959884525454
C            3.46514058459276       -1.23620950073711        0.07057076973741
C            0.74752057341725        0.00010770310956       -1.14528348233134
F            1.48157162315871        0.00002907907635       -2.27314573878179
C           -0.63119611038907        0.00011226262033       -1.24381560878217
C           -1.40204063632636        0.00017206296043       -0.08801323222687
N           -2.81852812915155        0.00009600280183       -0.17487334412108
C           -3.46511055987045       -1.23618947710923       -0.07075166406193
C           -2.72292047909378       -2.39849948920005        0.13962847138951
C           -3.33106184475574       -3.63800871753202        0.23804983172278
C           -4.70492890545054       -3.75095107249200        0.14127696615680
C           -5.45819775002685       -2.60992041578603       -0.07121425436391
C           -4.85018328227879       -1.37019697035035       -0.18774795485823
S           -5.91361934405723       -0.00010306164927       -0.54926951674762
C           -4.85040483398584        1.37006037734443       -0.18735229811432
C           -5.45862122907441        2.60964962275514       -0.07045650065533
C           -4.70554093116830        3.75074174122764        0.14236823053162
C           -3.33165319003214        3.63800109885037        0.23907476309029
C           -2.72330801553427        2.39862072339686        0.14028435624205
C           -3.46530947222649        1.23624555271092       -0.07039166465058
H            1.10269517952522        0.00030588682889        2.21348616161458
H            1.64936227472541        2.33896134299110       -0.22176307283433
H            2.71996839316422        4.51334684651609       -0.39541518085392
H            5.18946137654933        4.71120854026718       -0.22305361695256
H            6.53279172360213        2.66547473227159        0.16243136188072
H            6.53237821166036       -2.66587701907387        0.16319549749021
H            5.18873354928144       -4.71150743136699       -0.22176569305588
H            2.71927060423280       -4.51331041083317       -0.39418600320473
H            1.64899539921287       -2.33871734778919       -0.22109106684950
H           -1.10266425283762        0.00004625392947       -2.21386570312474
H           -1.64898218407703       -2.33868076219449        0.22108504920020
H           -2.71930554192068       -4.51322105097554        0.39456607514635
H           -5.18877434631756       -4.71139186915652        0.22225299961737
H           -6.53238371707011       -2.66580782600771       -0.16307014603536
H           -6.53281876860325        2.66538737306613       -0.16227638954995
H           -5.18954035850515        4.71108394070708        0.22359435021241
H           -2.72003646021824        4.51327354895428        0.39579950606951
H           -1.64936053948922        2.33895998205139        0.22170881734136

          :  Hamiltonian                  GFN2-xTB          :
         :: gradient norm              0.000049188724 Eh/a0 ::
         :: HOMO-LUMO gap              1.777531874843 eV    ::
         :: SCC energy               -96.785916850194 Eh    ::
         :: -> dispersion             -0.081424204588 Eh    ::
         :: -> Gsolv                  -0.036662808033 Eh    ::
         :: repulsion energy           1.505508590951 Eh    ::

    * Orbital Energies and Occupations

         #    Occupation            Energy/Eh            Energy/eV
      -------------------------------------------------------------
         1        2.0000           -0.8503402             -23.1389
       ...           ...                  ...                  ...
        75        2.0000           -0.4397527             -11.9663
        76        2.0000           -0.4348031             -11.8316
        77        2.0000           -0.4311137             -11.7312
        78        2.0000           -0.4310692             -11.7300
        79        2.0000           -0.4305593             -11.7161
        80        2.0000           -0.4223708             -11.4933
        81        2.0000           -0.4223341             -11.4923
        82        2.0000           -0.4192321             -11.4079
        83        2.0000           -0.4190376             -11.4026
        84        2.0000           -0.3901200             -10.6157
        85        2.0000           -0.3899090             -10.6100
        86        2.0000           -0.3500068              -9.5242
        87        2.0000           -0.3497248              -9.5165 (HOMO)
        88                         -0.2844017              -7.7390 (LUMO)
        89                         -0.2750840              -7.4854
        90                         -0.2496228              -6.7926
        91                         -0.2495392              -6.7903
        92                         -0.2386980              -6.4953
        93                         -0.2386036              -6.4927
        94                         -0.2335079              -6.3541
        95                         -0.2334803              -6.3533
        96                         -0.2105036              -5.7281
        97                         -0.2102943              -5.7224
        98                         -0.2040276              -5.5519
       ...                                ...                  ...
       172                          0.6609420              17.9851
      -------------------------------------------------------------
                  HL-Gap            0.0653231 Eh            1.7775 eV

     #   Z          covCN         q      C6AA      α(0)
     1   9 F        0.787    -0.210    11.343     3.978
     2   6 C        2.783     0.160    24.521     8.111
     3   6 C        2.921    -0.058    29.442     8.898
     4   6 C        2.930     0.060    26.647     8.466
     5   7 N        2.748    -0.068    22.562     7.055
     6   6 C        2.943     0.060    26.663     8.469
     7   6 C        2.928    -0.057    29.421     8.895
     8   6 C        2.919    -0.033    28.826     8.804
     9   6 C        2.918    -0.038    28.936     8.821
    10   6 C        2.986    -0.039    28.968     8.829
    11   6 C        2.971     0.035    27.222     8.558
    12  16 S        2.133    -0.159   147.778    20.460
    13   6 C        2.971     0.035    27.222     8.558
    14   6 C        2.986    -0.039    28.968     8.829
    15   6 C        2.918    -0.038    28.936     8.821
    16   6 C        2.919    -0.033    28.826     8.804
    17   6 C        2.928    -0.057    29.421     8.895
    18   6 C        2.943     0.060    26.663     8.469
    19   6 C        2.783     0.160    24.521     8.111
    20   9 F        0.787    -0.210    11.343     3.978
    21   6 C        2.921    -0.058    29.442     8.898
    22   6 C        2.930     0.060    26.647     8.466
    23   7 N        2.748    -0.068    22.562     7.055
    24   6 C        2.943     0.060    26.663     8.469
    25   6 C        2.928    -0.057    29.421     8.895
    26   6 C        2.919    -0.033    28.826     8.804
    27   6 C        2.918    -0.038    28.936     8.821
    28   6 C        2.986    -0.039    28.968     8.829
    29   6 C        2.971     0.035    27.222     8.558
    30  16 S        2.133    -0.159   147.778    20.460
    31   6 C        2.971     0.035    27.222     8.558
    32   6 C        2.986    -0.039    28.968     8.829
    33   6 C        2.918    -0.038    28.936     8.821
    34   6 C        2.919    -0.033    28.826     8.804
    35   6 C        2.928    -0.057    29.421     8.895
    36   6 C        2.943     0.060    26.663     8.469
    37   1 H        0.926     0.097     1.813     2.106
    38   1 H        0.926     0.028     2.608     2.525
    39   1 H        0.926     0.043     2.408     2.427
    40   1 H        0.926     0.044     2.393     2.419
    41   1 H        0.926     0.046     2.366     2.405
    42   1 H        0.926     0.046     2.366     2.405
    43   1 H        0.926     0.044     2.393     2.419
    44   1 H        0.926     0.043     2.408     2.427
    45   1 H        0.926     0.028     2.608     2.525
    46   1 H        0.926     0.097     1.813     2.106
    47   1 H        0.926     0.028     2.608     2.525
    48   1 H        0.926     0.043     2.408     2.427
    49   1 H        0.926     0.044     2.393     2.419
    50   1 H        0.926     0.046     2.366     2.405
    51   1 H        0.926     0.046     2.366     2.405
    52   1 H        0.926     0.044     2.393     2.419
    53   1 H        0.926     0.043     2.408     2.427
    54   1 H        0.926     0.028     2.608     2.525

molecular dipole:
                 x           y           z       tot (Debye)
 q only:       -0.000       0.000       0.000
   full:       -0.000       0.000       0.000       0.001

 projected vibrational frequencies (cm⁻¹)
eigval :       -0.00    -0.00    -0.00    -0.00     0.00     0.00
eigval :      -10.55    -7.96    11.98    18.52    21.12    33.10
eigval :       44.08    65.66   101.85   106.81   107.03   116.37
eigval :      133.51   139.98   195.77   205.45   207.00   227.66
eigval :      228.04   238.25   265.10   271.07   272.67   311.30
eigval :      323.56   338.69   343.49   371.42   372.28   406.14
eigval :      406.81   408.86   409.05   414.87   417.98   422.84
eigval :      437.55   458.31   483.70   486.46   494.93   494.99
eigval :      499.31   500.46   513.28   568.13   577.81   583.45
eigval :      621.15   639.84   641.68   649.90   651.22   652.01
eigval :      653.95   659.56   665.10   695.45   704.27   711.10
eigval :      722.69   762.74   764.64   765.92   767.48   768.05
eigval :      843.84   854.52   855.15   858.08   858.23   865.02
eigval :      876.84   898.50   898.86   899.18   899.49   904.33
eigval :      908.68   913.47   913.84   913.84   914.20   927.73
eigval :     1029.98  1040.09  1040.12  1043.19  1103.78  1104.39
eigval :     1104.93  1105.35  1119.48  1133.97  1150.42  1151.32
eigval :     1151.63  1161.06  1170.05  1178.57  1180.28  1182.53
eigval :     1184.30  1189.83  1236.26  1244.83  1247.05  1252.74
eigval :     1259.32  1264.40  1283.15  1308.86  1309.54  1313.16
eigval :     1313.19  1330.32  1331.15  1361.60  1399.73  1406.52
eigval :     1406.85  1418.67  1419.15  1459.59  1460.58  1467.75
eigval :     1476.87  1477.13  1542.11  1557.95  1558.05  1570.44
eigval :     1571.06  1575.00  1575.17  1581.18  1590.90  1594.02
eigval :     3086.27  3086.33  3087.27  3087.35  3090.21  3090.42
eigval :     3090.60  3090.89  3096.63  3096.86  3100.15  3100.19
eigval :     3106.68  3107.03  3107.31  3107.88  3115.78  3115.99

   temp. (K)  partition function   enthalpy   heat capacity  entropy
                                   cal/mol     cal/K/mol   cal/K/mol   J/K/mol
 298.15  VIB  0.721E+14            16732.917    104.510    104.040
         ROT  0.181E+08              888.752      2.981     36.190
         INT  0.130E+22            17621.670    107.491    140.230
         TR   0.111E+29             1481.254      4.968     44.546
         TOT                       19102.9234   112.4590   184.7758   773.1020

       T/K    H(0)-H(T)+PV         H(T)/Eh          T*S/Eh         G(T)/Eh
   ------------------------------------------------------------------------
    298.15    0.304424E-01    0.415519E+00    0.877929E-01    0.327726E+00
   ------------------------------------------------------------------------

         :::::::::::::::::::::::::::::::::::::::::::::::::::::
         ::                  THERMODYNAMIC                  ::
         :::::::::::::::::::::::::::::::::::::::::::::::::::::
         :: total free energy         -94.952681929778 Eh   ::
         ::.................................................::
         :: total energy              -95.280408261053 Eh   ::
         :: zero point energy           0.385076830396 Eh   ::
         :: G(RRHO) w/o ZPVE           -0.057350499122 Eh   ::
         :: G(RRHO) contrib.            0.327726331275 Eh   ::
         :::::::::::::::::::::::::::::::::::::::::::::::::::::

           -------------------------------------------------
          | TOTAL ENERGY              -95.280408261053 Eh   |
          | TOTAL ENTHALPY            -94.864888984411 Eh   |
          | TOTAL FREE ENERGY         -94.952681929778 Eh   |
          | GRADIENT NORM               0.000049171266 Eh/α |
          | HOMO-LUMO GAP               1.777531838232 eV   |
           -------------------------------------------------

 * finished run on 2025/08/24 at 17:45:05.353
