   * xtb version 6.7.1 (edcfbbe) compiled by 'albert@albert-system' on 2024-07-22

   ID    Z sym.   atoms
    1    9 F      1, 20
    2    6 C      2-4, 6-11, 13-19, 21, 22, 24-29, 31-36
    3    7 N      5, 23
    4   16 S      12, 30
    5    1 H      37-54

          program call               : xtb data2507/toluene/2PS-2FPh/2PS-2FPh_toluene_S0_crest.xyz --gfn 2 --gbsa toluene --ohess vtight --parallel 40 --molden --ceasefiles --namespace data2507/toluene/2PS-2FPh/2PS-2FPh_toluene_S0_finalOpt
      * Solvation model:               GBSA
        Solvent                        toluene
        Solvent mass                       9.2140E+01 g/mol
          :  Hamiltonian                  GFN2-xTB          :
 * total energy  :   -95.2823767 Eh     change       -0.4592920E-08 Eh
 * total energy  :   -95.2824275 Eh     change       -0.5078895E-04 Eh
 * total energy  :   -95.2824475 Eh     change       -0.2004928E-04 Eh
 * total energy  :   -95.2824526 Eh     change       -0.5066932E-05 Eh
 * total energy  :   -95.2824575 Eh     change       -0.4902545E-05 Eh
 * total energy  :   -95.2824614 Eh     change       -0.3849380E-05 Eh
 * total energy  :   -95.2824660 Eh     change       -0.4617703E-05 Eh
 * total energy  :   -95.2824697 Eh     change       -0.3729724E-05 Eh
 * total energy  :   -95.2824719 Eh     change       -0.2162394E-05 Eh
 * total energy  :   -95.2824740 Eh     change       -0.2100139E-05 Eh
 * total energy  :   -95.2825865 Eh     change       -0.1000796E-05 Eh
 * total energy  :   -95.2825877 Eh     change       -0.1208237E-05 Eh
 * total energy  :   -95.2825890 Eh     change       -0.1239352E-05 Eh
 * total energy  :   -95.2825900 Eh     change       -0.1015302E-05 Eh
 * total energy  :   -95.2825907 Eh     change       -0.7699661E-06 Eh
 * total energy  :   -95.2825914 Eh     change       -0.6297441E-06 Eh
 * total energy  :   -95.2825919 Eh     change       -0.5559928E-06 Eh
 * total energy  :   -95.2825926 Eh     change       -0.6324627E-06 Eh
 * total energy  :   -95.2825926 Eh     change       -0.5316480E-08 Eh
   *** GEOMETRY OPTIMIZATION CONVERGED AFTER 68 ITERATIONS ***

 final structure:
================
54
 xtb: 6.7.1 (edcfbbe)
F           -1.40670483062396       -1.19142245070082        1.95306107609327
C           -0.73100695277324       -0.65014945537132        0.91482885273508
C            0.64103898836281       -0.76592789415206        0.90281789310462
C            1.41028315867569       -0.23522207761189       -0.14442794245058
N            2.77302834486850       -0.36803609409439       -0.15398414241348
C            3.61446804286218        0.12193526765571       -1.18236754046108
C            3.51368601941000       -0.34421108784593       -2.48690051797221
C            4.35575864274530        0.15341367994599       -3.46437591321946
C            5.31923808071932        1.09678003463933       -3.14294993391452
C            5.46371267246522        1.52603985941666       -1.83615782582028
C            4.61905833278656        1.02901068656042       -0.85644773840625
S            4.82540577856706        1.50529969094230        0.84292901175844
C            4.47992348257597       -0.09320226875485        1.53695087432943
C            5.20196806861687       -0.55739938429397        2.62603491969181
C            4.96289442247141       -1.82920414283786        3.11372402434664
C            4.03413586260603       -2.64931353477643        2.49176141756364
C            3.31249541122509       -2.18758224021164        1.40500309208224
C            3.49924739028918       -0.88832426846416        0.94767596415166
C            0.68589820500811        0.47328736455633       -1.12253009189642
F            1.32197237169357        1.13427100847292       -2.12498963155178
C           -0.68802124796271        0.57250376100267       -1.11193976630768
C           -1.43868557340450       -0.00386641875065       -0.09310080041076
N           -2.85659402081984        0.07153697746264       -0.06059990839554
C           -3.56787138076535       -0.96985557363969       -0.65649947096965
C           -2.89077672868492       -1.92622204950423       -1.41553172239698
C           -3.55807018125781       -2.97569590149688       -2.02233116056035
C           -4.92949029807902       -3.09485753997861       -1.90029246802005
C           -5.61996805185727       -2.15387681049471       -1.15666798452527
C           -4.95238356663140       -1.11057993113610       -0.53590193347753
S           -5.94504973053214       -0.01314095071948        0.43950592069298
C           -4.80773757628845        1.30840721599712        0.75946460441379
C           -5.34670588739763        2.45884317190616        1.31211191581568
C           -4.53683520284821        3.52714765592870        1.65539081401519
C           -3.17557534351761        3.43122353044752        1.43752671593174
C           -2.63654984822094        2.28929515936039        0.87143805174401
C           -3.43640359997741        1.20212308797563        0.51492492789775
H            1.11426216243761       -1.25941186890042        1.73471725833553
H            2.75624337191739       -1.07418350671839       -2.73072273902187
H            4.25963953263151       -0.19889950175736       -4.47963941818523
H            5.97084884860068        1.48887493066666       -3.90838545971583
H            6.22341352456961        2.24310176849241       -1.56594331773019
H            5.94437509582357        0.08192663526276        3.07773728343875
H            5.51850733870195       -2.18791837534642        3.96615283370933
H            3.87202965287777       -3.65416166170580        2.84994766343344
H            2.60056921124675       -2.82872089734488        0.90748553059528
H           -1.17555240575897        1.12138866989552       -1.90265977972400
H           -1.82062920938359       -1.85015163111754       -1.52829926388884
H           -2.99484313699055       -3.69746402892796       -2.59413211557596
H           -5.45979404356071       -3.90753060117047       -2.37109162173269
H           -6.69072405697518       -2.22260243773491       -1.03551072711689
H           -6.41256954138253        2.49686512284494        1.48085125554655
H           -4.96755039834252        4.41461484756175        2.09146137863608
H           -2.51958514164764        4.24598047942172        1.70399409920448
H           -1.57114821137008        2.23814711414140        0.71085977029341

          :  Hamiltonian                  GFN2-xTB          :
         :: gradient norm              0.000052346952 Eh/a0 ::
         :: HOMO-LUMO gap              2.218348644254 eV    ::
         :: SCC energy               -96.788165875893 Eh    ::
         :: -> dispersion             -0.080637638090 Eh    ::
         :: -> Gsolv                  -0.038609147848 Eh    ::
         :: repulsion energy           1.505573312833 Eh    ::

    * Orbital Energies and Occupations

         #    Occupation            Energy/Eh            Energy/eV
      -------------------------------------------------------------
         1        2.0000           -0.8351365             -22.7252
       ...           ...                  ...                  ...
        75        2.0000           -0.4351084             -11.8399
        76        2.0000           -0.4314452             -11.7402
        77        2.0000           -0.4299715             -11.7001
        78        2.0000           -0.4265797             -11.6078
        79        2.0000           -0.4258882             -11.5890
        80        2.0000           -0.4241272             -11.5411
        81        2.0000           -0.4197299             -11.4214
        82        2.0000           -0.4179691             -11.3735
        83        2.0000           -0.4148958             -11.2899
        84        2.0000           -0.3904965             -10.6260
        85        2.0000           -0.3847454             -10.4695
        86        2.0000           -0.3681939             -10.0191
        87        2.0000           -0.3437720              -9.3545 (HOMO)
        88                         -0.2622492              -7.1362 (LUMO)
        89                         -0.2546473              -6.9293
        90                         -0.2498944              -6.8000
        91                         -0.2461602              -6.6984
        92                         -0.2449755              -6.6661
        93                         -0.2415305              -6.5724
        94                         -0.2348722              -6.3912
        95                         -0.2339955              -6.3673
        96                         -0.2286661              -6.2223
        97                         -0.2098825              -5.7112
        98                         -0.2042131              -5.5569
       ...                                ...                  ...
       172                          0.6663428              18.1321
      -------------------------------------------------------------
                  HL-Gap            0.0815228 Eh            2.2183 eV

     #   Z          covCN         q      C6AA      α(0)
     1   9 F        0.787    -0.230    11.547     4.014
     2   6 C        2.784     0.155    24.635     8.130
     3   6 C        2.928    -0.084    30.106     8.998
     4   6 C        2.907     0.058    26.690     8.471
     5   7 N        2.751    -0.053    22.273     7.009
     6   6 C        2.979     0.059    26.681     8.473
     7   6 C        2.922    -0.035    28.881     8.813
     8   6 C        2.920    -0.029    28.730     8.790
     9   6 C        2.921    -0.029    28.731     8.790
    10   6 C        2.954    -0.036    28.886     8.815
    11   6 C        2.972     0.037    27.173     8.551
    12  16 S        2.109    -0.147   147.247    20.423
    13   6 C        2.972     0.038    27.141     8.546
    14   6 C        2.955    -0.035    28.861     8.811
    15   6 C        2.920    -0.028    28.711     8.787
    16   6 C        2.919    -0.030    28.751     8.793
    17   6 C        2.921    -0.044    29.082     8.844
    18   6 C        2.979     0.051    26.858     8.501
    19   6 C        2.784     0.137    25.000     8.190
    20   9 F        0.787    -0.237    11.620     4.027
    21   6 C        2.925    -0.061    29.505     8.908
    22   6 C        2.926     0.039    27.125     8.541
    23   7 N        2.748    -0.069    22.570     7.056
    24   6 C        2.942     0.061    26.628     8.463
    25   6 C        2.928    -0.060    29.481     8.904
    26   6 C        2.919    -0.035    28.859     8.809
    27   6 C        2.918    -0.040    28.988     8.829
    28   6 C        2.987    -0.041    29.007     8.835
    29   6 C        2.971     0.034    27.233     8.560
    30  16 S        2.134    -0.169   148.190    20.489
    31   6 C        2.971     0.034    27.240     8.561
    32   6 C        2.988    -0.041    29.008     8.835
    33   6 C        2.918    -0.040    28.987     8.829
    34   6 C        2.919    -0.034    28.853     8.808
    35   6 C        2.928    -0.060    29.481     8.904
    36   6 C        2.941     0.061    26.631     8.464
    37   1 H        0.926     0.081     1.972     2.196
    38   1 H        0.926     0.048     2.348     2.396
    39   1 H        0.926     0.052     2.291     2.367
    40   1 H        0.926     0.053     2.281     2.362
    41   1 H        0.926     0.054     2.272     2.357
    42   1 H        0.926     0.056     2.242     2.342
    43   1 H        0.926     0.055     2.257     2.349
    44   1 H        0.926     0.055     2.264     2.353
    45   1 H        0.926     0.054     2.268     2.355
    46   1 H        0.926     0.080     1.981     2.201
    47   1 H        0.926     0.032     2.562     2.503
    48   1 H        0.926     0.041     2.440     2.443
    49   1 H        0.926     0.041     2.432     2.439
    50   1 H        0.926     0.043     2.409     2.427
    51   1 H        0.926     0.043     2.409     2.427
    52   1 H        0.926     0.041     2.433     2.439
    53   1 H        0.926     0.040     2.445     2.445
    54   1 H        0.926     0.032     2.559     2.502

molecular dipole:
                 x           y           z       tot (Debye)
 q only:        2.233      -0.713      -0.377
   full:        2.345      -0.819      -0.529       6.454

 projected vibrational frequencies (cm⁻¹)
eigval :       -0.00    -0.00    -0.00     0.00     0.00     0.00
eigval :        9.95    12.94    19.64    27.13    35.62    50.92
eigval :       59.86    66.57    97.14   103.32   127.86   131.08
eigval :      142.41   151.00   189.10   204.35   209.75   217.44
eigval :      230.46   246.28   265.43   279.05   291.37   312.44
eigval :      325.27   342.35   348.78   362.79   370.79   408.42
eigval :      409.40   414.00   415.53   419.56   424.56   426.06
eigval :      431.47   448.04   465.03   483.56   494.09   495.90
eigval :      500.37   520.11   524.50   553.30   574.58   595.03
eigval :      615.26   619.81   637.22   649.44   650.74   650.82
eigval :      658.40   664.33   685.86   688.58   696.60   701.55
eigval :      716.57   760.21   770.26   771.73   776.29   781.49
eigval :      839.72   846.36   859.69   860.41   876.16   876.74
eigval :      887.12   897.81   899.89   900.85   906.01   912.29
eigval :      914.97   915.52   916.85   922.96   930.36   939.67
eigval :     1027.76  1038.44  1041.29  1045.83  1084.10  1084.85
eigval :     1103.67  1104.60  1115.14  1131.60  1147.17  1150.94
eigval :     1152.23  1158.88  1171.13  1173.87  1179.02  1180.09
eigval :     1187.49  1209.70  1225.58  1234.70  1239.06  1245.47
eigval :     1255.41  1273.92  1277.33  1307.17  1312.26  1315.28
eigval :     1316.00  1317.09  1331.93  1389.48  1406.81  1408.00
eigval :     1417.18  1420.00  1422.43  1439.59  1456.99  1461.88
eigval :     1478.05  1499.15  1531.55  1556.35  1563.56  1569.63
eigval :     1569.94  1570.96  1574.75  1581.05  1592.47  1598.47
eigval :     3084.64  3085.01  3085.15  3087.12  3087.77  3088.80
eigval :     3090.93  3093.28  3098.00  3099.58  3099.66  3100.11
eigval :     3105.74  3105.90  3106.78  3107.08  3111.31  3132.27

   temp. (K)  partition function   enthalpy   heat capacity  entropy
                                   cal/mol     cal/K/mol   cal/K/mol   J/K/mol
 298.15  VIB  0.479E+13            16550.628    105.228    101.617
         ROT  0.368E+08              888.752      2.981     37.602
         INT  0.176E+21            17439.381    108.209    139.219
         TR   0.111E+29             1481.254      4.968     44.546
         TOT                       18920.6347   113.1768   183.7651   768.8731

       T/K    H(0)-H(T)+PV         H(T)/Eh          T*S/Eh         G(T)/Eh
   ------------------------------------------------------------------------
    298.15    0.301520E-01    0.415731E+00    0.873127E-01    0.328418E+00
   ------------------------------------------------------------------------

         :::::::::::::::::::::::::::::::::::::::::::::::::::::
         ::                  THERMODYNAMIC                  ::
         :::::::::::::::::::::::::::::::::::::::::::::::::::::
         :: total free energy         -94.954174379698 Eh   ::
         ::.................................................::
         :: total energy              -95.282592566351 Eh   ::
         :: zero point energy           0.385578954565 Eh   ::
         :: G(RRHO) w/o ZPVE           -0.057160767912 Eh   ::
         :: G(RRHO) contrib.            0.328418186653 Eh   ::
         :::::::::::::::::::::::::::::::::::::::::::::::::::::

           -------------------------------------------------
          | TOTAL ENERGY              -95.282592566351 Eh   |
          | TOTAL ENTHALPY            -94.866861661216 Eh   |
          | TOTAL FREE ENERGY         -94.954174379698 Eh   |
          | GRADIENT NORM               0.000052350047 Eh/α |
          | HOMO-LUMO GAP               2.218348551327 eV   |
           -------------------------------------------------

 * finished run on 2025/08/24 at 17:47:32.485
