   * xtb version 6.7.1 (edcfbbe) compiled by 'albert@albert-system' on 2024-07-22

   ID    Z sym.   atoms
    1    9 F      1, 20
    2    6 C      2-4, 6-11, 13-19, 21, 22, 24-29, 31-36
    3    7 N      5, 23
    4   16 S      12, 30
    5    1 H      37-54

          program call               : xtb data2507/toluene/2PS-2FPh/2PS-2FPh_toluene_S0_finalOpt.xtbopt.xyz --gfn 2 --uhf 2 --gbsa toluene --ohess vtight --parallel 40 --molden --ceasefiles --namespace data2507/toluene/2PS-2FPh/2PS-2FPh_toluene_T1_preOpt
      * Solvation model:               GBSA
        Solvent                        toluene
        Solvent mass                       9.2140E+01 g/mol
          :  Hamiltonian                  GFN2-xTB          :
 * total energy  :   -95.1828020 Eh     change       -0.1883123E-08 Eh
 * total energy  :   -95.1876749 Eh     change       -0.4872864E-02 Eh
 * total energy  :   -95.1896520 Eh     change       -0.1977056E-02 Eh
 * total energy  :   -95.1898273 Eh     change       -0.1753828E-03 Eh
 * total energy  :   -95.1899425 Eh     change       -0.1151304E-03 Eh
 * total energy  :   -95.1899714 Eh     change       -0.2890550E-04 Eh
 * total energy  :   -95.1900150 Eh     change       -0.4364073E-04 Eh
 * total energy  :   -95.1900355 Eh     change       -0.2050015E-04 Eh
 * total energy  :   -95.1900507 Eh     change       -0.1515603E-04 Eh
 * total energy  :   -95.1900672 Eh     change       -0.1656189E-04 Eh
 * total energy  :   -95.1901101 Eh     change       -0.2824920E-05 Eh
 * total energy  :   -95.1901120 Eh     change       -0.1865956E-05 Eh
 * total energy  :   -95.1901131 Eh     change       -0.1138717E-05 Eh
 * total energy  :   -95.1901136 Eh     change       -0.4420076E-06 Eh
 * total energy  :   -95.1901144 Eh     change       -0.8103272E-06 Eh
 * total energy  :   -95.1901146 Eh     change       -0.2445310E-06 Eh
 * total energy  :   -95.1901149 Eh     change       -0.2533365E-06 Eh
 * total energy  :   -95.1901150 Eh     change       -0.1806120E-06 Eh
 * total energy  :   -95.1901151 Eh     change       -0.4404272E-07 Eh
   *** GEOMETRY OPTIMIZATION CONVERGED AFTER 27 ITERATIONS ***

 final structure:
================
54
 xtb: 6.7.1 (edcfbbe)
F           -1.47954647233735       -1.15554912519341        1.85456241535206
C           -0.76517936542107       -0.60211308465270        0.84341221241368
C            0.60373605366532       -0.71478590214565        0.87229418968341
C            1.40255336759135       -0.16732531760545       -0.16052038792728
N            2.76899069081021       -0.29818202241273       -0.13677234060019
C            3.62384106617574        0.14527164260535       -1.17051140448170
C            3.49562209719292       -0.32197649593184       -2.47449239253272
C            4.35702591491096        0.12602580597855       -3.45754800002119
C            5.37051486070542        1.02057197927762       -3.14709291680810
C            5.54182371541830        1.44907703076146       -1.84220718727680
C            4.67516845257725        1.00536801884734       -0.85812021444339
S            4.90044096418111        1.48854967882742        0.83741877001655
C            4.50089072125552       -0.09562274743138        1.53775539393258
C            5.22009538340376       -0.58997964274709        2.61287396104054
C            4.93586990740743       -1.85204569237452        3.10597036065378
C            3.96605087262354       -2.63225203693490        2.49361413447438
C            3.25030773512091       -2.14209244020737        1.41694178097790
C            3.47758576650173       -0.84683721733763        0.95788742065941
C            0.70469850321264        0.55892585577313       -1.13890372407848
F            1.36750185512224        1.24292499952022       -2.11172433288689
C           -0.66925316840009        0.66609938064115       -1.16691669027343
C           -1.44538481971358        0.05989304522941       -0.17085171645266
N           -2.86705385532638        0.13908350618362       -0.17641663499626
C           -3.54287331290358       -0.92038629943868       -0.72665436592136
C           -2.85719308845938       -1.90584146778821       -1.45881781162807
C           -3.50465562214808       -2.98352877768299       -2.00278526417721
C           -4.89818964516168       -3.15201568703037       -1.81626739654621
C           -5.59561628936848       -2.22509235107518       -1.09249182067101
C           -4.96148692692887       -1.09535772937910       -0.55888297605093
S           -5.90180469985997       -0.05492442631943        0.45179547593221
C           -4.84874355836175        1.29185142308145        0.71226690942208
C           -5.38143655139803        2.40527133970401        1.37692081577725
C           -4.58961157862806        3.46013663166924        1.73608191240092
C           -3.20025871378500        3.40754936834569        1.47191042084615
C           -2.65182828533970        2.31377269964980        0.85412527034816
C           -3.43849383180808        1.22738996714519        0.43501274639186
H            1.05854281913503       -1.20574091822626        1.71434598278672
H            2.70181519324045       -1.01519664310349       -2.71086082906916
H            4.23835461798455       -0.22692249090455       -4.47048919141628
H            6.03736736647666        1.37453255639250       -3.91794807040579
H            6.33804764376429        2.12849543776343       -1.57922767982748
H            5.99465063554325        0.01836562448112        3.05368696398032
H            5.48711736481719       -2.23353122068340        3.95122848167054
H            3.76988746160805       -3.63135570227397        2.85174540721854
H            2.51325747729020       -2.75807875908088        0.92433455698117
H           -1.13653998967587        1.23632252472074       -1.95293941247397
H           -1.79407961203140       -1.79547233145967       -1.60742703668991
H           -2.95071115512224       -3.71093192086268       -2.57430904515292
H           -5.39809395976192       -4.00672650294618       -2.24243766762612
H           -6.65662424292042       -2.33459957040402       -0.92413569291907
H           -6.44080841744595        2.40816948275911        1.58609439232105
H           -5.01159923345070        4.32352846951283        2.22456957833694
H           -2.56846144319167        4.23095603990082        1.76411809305825
H           -1.58900830403370        2.28917359751849        0.67075089633279

          :  Hamiltonian                  GFN2-xTB          :
         :: gradient norm              0.000187226232 Eh/a0 ::
         :: HOMO-LUMO gap              0.127968497503 eV    ::
         :: SCC energy               -96.678694637803 Eh    ::
         :: -> dispersion             -0.080856208890 Eh    ::
         :: -> Gsolv                  -0.037754405701 Eh    ::
         :: repulsion energy           1.488579545481 Eh    ::

    * Orbital Energies and Occupations

         #    Occupation            Energy/Eh            Energy/eV
      -------------------------------------------------------------
         1        2.0000           -0.8317948             -22.6343
       ...           ...                  ...                  ...
        76        2.0000           -0.4293306             -11.6827
        77        2.0000           -0.4272005             -11.6247
        78        2.0000           -0.4244068             -11.5487
        79        2.0000           -0.4218277             -11.4785
        80        2.0000           -0.4195104             -11.4155
        81        2.0000           -0.4183345             -11.3835
        82        2.0000           -0.4152721             -11.3001
        83        2.0000           -0.4131994             -11.2437
        84        2.0000           -0.3966313             -10.7929
        85        2.0000           -0.3842001             -10.4546
        86        1.9977           -0.3617440              -9.8436
        87        1.0023           -0.3502262              -9.5301
        88        0.9223           -0.2602311              -7.0812 (HOMO)
        89        0.0777           -0.2555292              -6.9533 (LUMO)
        90        0.0000           -0.2462942              -6.7020
        91        0.0000           -0.2436105              -6.6290
        92                         -0.2405172              -6.5448
        93                         -0.2357346              -6.4147
        94                         -0.2337566              -6.3608
        95                         -0.2314997              -6.2994
        96                         -0.2276806              -6.1955
        97                         -0.2096084              -5.7037
        98                         -0.2048166              -5.5733
        99                         -0.2021707              -5.5013
       ...                                ...                  ...
       172                          0.6782519              18.4562
      -------------------------------------------------------------
                  HL-Gap            0.0047019 Eh            0.1279 eV

     #   Z          covCN         q      C6AA      α(0)
     1   9 F        0.787    -0.240    11.654     4.032
     2   6 C        2.780     0.154    24.657     8.133
     3   6 C        2.925    -0.093    30.343     9.033
     4   6 C        2.905     0.046    26.959     8.514
     5   7 N        2.750    -0.057    22.339     7.020
     6   6 C        2.983     0.059    26.677     8.472
     7   6 C        2.922    -0.038    28.950     8.823
     8   6 C        2.919    -0.031    28.784     8.798
     9   6 C        2.921    -0.034    28.844     8.807
    10   6 C        2.953    -0.038    28.936     8.823
    11   6 C        2.972     0.036    27.196     8.554
    12  16 S        2.111    -0.163   147.927    20.470
    13   6 C        2.972     0.037    27.171     8.550
    14   6 C        2.954    -0.037    28.920     8.821
    15   6 C        2.920    -0.034    28.846     8.808
    16   6 C        2.919    -0.032    28.808     8.802
    17   6 C        2.921    -0.047    29.164     8.856
    18   6 C        2.980     0.050    26.874     8.504
    19   6 C        2.782     0.136    25.024     8.194
    20   9 F        0.787    -0.245    11.710     4.042
    21   6 C        2.922    -0.072    29.803     8.952
    22   6 C        2.937     0.017    27.625     8.620
    23   7 N        2.747     0.007    21.144     6.829
    24   6 C        2.949     0.041    27.071     8.534
    25   6 C        2.916    -0.048    29.189     8.859
    26   6 C        2.914    -0.042    29.039     8.836
    27   6 C        2.914    -0.040    28.985     8.828
    28   6 C        2.982    -0.038    28.941     8.824
    29   6 C        2.962     0.009    27.814     8.650
    30  16 S        2.155    -0.002   141.138    19.995
    31   6 C        2.962     0.009    27.818     8.651
    32   6 C        2.983    -0.038    28.947     8.826
    33   6 C        2.913    -0.039    28.960     8.825
    34   6 C        2.914    -0.042    29.035     8.836
    35   6 C        2.916    -0.048    29.196     8.860
    36   6 C        2.946     0.042    27.057     8.531
    37   1 H        0.926     0.072     2.062     2.245
    38   1 H        0.926     0.042     2.416     2.431
    39   1 H        0.926     0.047     2.353     2.399
    40   1 H        0.926     0.048     2.346     2.395
    41   1 H        0.926     0.049     2.331     2.387
    42   1 H        0.926     0.051     2.309     2.376
    43   1 H        0.926     0.049     2.333     2.389
    44   1 H        0.926     0.049     2.335     2.390
    45   1 H        0.926     0.049     2.331     2.388
    46   1 H        0.926     0.071     2.071     2.251
    47   1 H        0.926     0.036     2.501     2.473
    48   1 H        0.926     0.039     2.465     2.455
    49   1 H        0.926     0.042     2.424     2.435
    50   1 H        0.926     0.046     2.366     2.405
    51   1 H        0.926     0.047     2.362     2.403
    52   1 H        0.926     0.042     2.419     2.432
    53   1 H        0.926     0.039     2.466     2.456
    54   1 H        0.926     0.037     2.491     2.468

molecular dipole:
                 x           y           z       tot (Debye)
 q only:       -0.286      -0.664      -0.244
   full:       -0.156      -0.821      -0.352       2.305

 projected vibrational frequencies (cm⁻¹)
eigval :       -0.00    -0.00    -0.00    -0.00     0.00     0.00
eigval :        1.23    17.27    23.74    30.38    46.33    49.88
eigval :       58.45    66.47    79.62   101.11   109.81   129.62
eigval :      139.02   149.75   175.48   186.33   205.18   208.25
eigval :      216.38   242.95   261.52   272.23   290.84   323.43
eigval :      334.06   346.30   355.00   360.52   363.28   366.84
eigval :      370.33   403.34   408.40   412.99   419.03   419.82
eigval :      423.09   428.96   445.10   458.89   470.59   479.66
eigval :      492.38   513.78   519.76   557.90   565.52   589.42
eigval :      592.47   596.17   602.02   620.48   621.53   635.51
eigval :      653.23   660.16   681.68   685.70   694.02   712.07
eigval :      713.14   732.02   738.40   756.86   771.29   775.67
eigval :      801.29   818.32   830.50   835.51   837.03   874.74
eigval :      882.15   883.05   884.30   886.60   892.92   893.87
eigval :      895.65   907.84   908.45   917.33   924.49   931.50
eigval :     1023.61  1025.82  1035.22  1041.62  1054.08  1058.95
eigval :     1082.28  1083.50  1095.50  1118.56  1140.33  1145.56
eigval :     1149.84  1160.19  1165.61  1166.72  1171.87  1173.66
eigval :     1182.73  1201.69  1205.76  1214.27  1226.65  1236.68
eigval :     1238.61  1268.71  1278.29  1311.37  1315.65  1320.86
eigval :     1322.17  1325.33  1333.36  1343.08  1369.59  1399.58
eigval :     1404.67  1410.44  1416.62  1420.36  1430.83  1434.87
eigval :     1437.34  1443.22  1446.48  1463.35  1474.74  1490.68
eigval :     1503.00  1527.11  1537.27  1544.30  1552.00  1574.02
eigval :     3080.79  3084.32  3084.85  3085.42  3088.41  3091.20
eigval :     3092.25  3094.19  3094.54  3096.60  3100.71  3102.06
eigval :     3103.43  3104.88  3109.34  3110.36  3120.70  3142.00

   temp. (K)  partition function   enthalpy   heat capacity  entropy
                                   cal/mol     cal/K/mol   cal/K/mol   J/K/mol
 298.15  VIB  0.374E+14            16925.899    107.430    105.946
         ROT  0.368E+08              888.752      2.981     37.599
         INT  0.138E+22            17814.652    110.411    143.545
         TR   0.111E+29             1481.254      4.968     44.546
         TOT                       19295.9054   115.3792   188.0910   786.9728

       T/K    H(0)-H(T)+PV         H(T)/Eh          T*S/Eh         G(T)/Eh
   ------------------------------------------------------------------------
    298.15    0.307500E-01    0.411712E+00    0.893681E-01    0.322343E+00
   ------------------------------------------------------------------------

         :::::::::::::::::::::::::::::::::::::::::::::::::::::
         ::                  THERMODYNAMIC                  ::
         :::::::::::::::::::::::::::::::::::::::::::::::::::::
         :: total free energy         -94.867771619538 Eh   ::
         ::.................................................::
         :: total energy              -95.190115091893 Eh   ::
         :: zero point energy           0.380961599415 Eh   ::
         :: G(RRHO) w/o ZPVE           -0.058618127060 Eh   ::
         :: G(RRHO) contrib.            0.322343472355 Eh   ::
         :::::::::::::::::::::::::::::::::::::::::::::::::::::

           -------------------------------------------------
          | TOTAL ENERGY              -95.190115091893 Eh   |
          | TOTAL ENTHALPY            -94.778403509828 Eh   |
          | TOTAL FREE ENERGY         -94.867771619538 Eh   |
          | GRADIENT NORM               0.000187877846 Eh/α |
          | HOMO-LUMO GAP               0.127945334932 eV   |
           -------------------------------------------------

 * finished run on 2025/08/24 at 17:47:35.991
