   * xtb version 6.7.1 (edcfbbe) compiled by 'albert@albert-system' on 2024-07-22

   ID    Z sym.   atoms
    1    9 F      1, 20
    2    6 C      2-4, 6-11, 13-19, 21, 22, 24-29, 31-36
    3    7 N      5, 23
    4   16 S      12, 30
    5    1 H      37-54

          program call               : xtb data2507/toluene/2PS-2FPh/2PS-2FPh_toluene_T1_crest.xyz --gfn 2 --uhf 2 --gbsa toluene --ohess vtight --parallel 40 --molden --ceasefiles --namespace data2507/toluene/2PS-2FPh/2PS-2FPh_toluene_T1_finalOpt
      * Solvation model:               GBSA
        Solvent                        toluene
        Solvent mass                       9.2140E+01 g/mol
          :  Hamiltonian                  GFN2-xTB          :
 * total energy  :   -95.1964034 Eh     change       -0.1268248E-08 Eh
 * total energy  :   -95.1964797 Eh     change       -0.7635850E-04 Eh
 * total energy  :   -95.1965186 Eh     change       -0.3887104E-04 Eh
 * total energy  :   -95.1965337 Eh     change       -0.1507769E-04 Eh
 * total energy  :   -95.1965447 Eh     change       -0.1104192E-04 Eh
 * total energy  :   -95.1965522 Eh     change       -0.7508425E-05 Eh
 * total energy  :   -95.1965593 Eh     change       -0.7033878E-05 Eh
 * total energy  :   -95.1965676 Eh     change       -0.8299002E-05 Eh
 * total energy  :   -95.1965775 Eh     change       -0.9943659E-05 Eh
 * total energy  :   -95.1965884 Eh     change       -0.1092372E-04 Eh
 * total energy  :   -95.1966248 Eh     change       -0.8015633E-05 Eh
 * total energy  :   -95.1966317 Eh     change       -0.6817162E-05 Eh
 * total energy  :   -95.1966359 Eh     change       -0.4251889E-05 Eh
 * total energy  :   -95.1966375 Eh     change       -0.1613456E-05 Eh
 * total energy  :   -95.1966381 Eh     change       -0.5982261E-06 Eh
 * total energy  :   -95.1966384 Eh     change       -0.3176119E-06 Eh
 * total energy  :   -95.1966388 Eh     change       -0.3999855E-06 Eh
 * total energy  :   -95.1966392 Eh     change       -0.3940803E-06 Eh
 * total energy  :   -95.1966393 Eh     change       -0.1378018E-07 Eh
   *** GEOMETRY OPTIMIZATION CONVERGED AFTER 22 ITERATIONS ***

 final structure:
================
54
 xtb: 6.7.1 (edcfbbe)
F           -1.58840418467818       -0.00586044085969        2.22018163851045
C           -0.79133657856503       -0.00272879545170        1.11844776335986
C            0.56877265073331       -0.00361279406075        1.28903527612568
C            1.40530924272846       -0.00059428592100        0.13675668813274
N            2.82180786434468       -0.00074622193033        0.25037435660158
C            3.46206994245187       -1.22720986324837        0.25049410431232
C            2.72798333776107       -2.39674292678159        0.48493754228975
C            3.32452916523388       -3.63838572809990        0.47039961224192
C            4.68858808791538       -3.76268024189754        0.20512396356107
C            5.43312437852477       -2.62942386367377       -0.03244040909662
C            4.84227709852513       -1.36850710031374       -0.00256839479190
S            5.88064250365490       -0.00270960606194       -0.36825513834911
C            4.84223191766968        1.36558432950337       -0.01234467523557
C            5.43265438460273        2.62638191599194       -0.05115176695568
C            4.68800303218534        3.76100167069753        0.17956748864343
C            3.32429101829516        3.63801936426535        0.44764690455871
C            2.72814924348268        2.39642338406460        0.47094710085488
C            3.46218919000369        1.22555501180012        0.24263559403467
C            0.79406958072650        0.00345436272780       -1.11744650432523
F            1.59101866525886        0.00651801111484       -2.21925286661521
C           -0.56612200284453        0.00433774310372       -1.28806988751701
C           -1.40263206295767        0.00131962848053       -0.13578183751269
N           -2.81917383953759        0.00082950020304       -0.24867597479902
C           -3.45880824550932       -1.22565547824820       -0.23438478999150
C           -2.72496414937877       -2.39696440030284       -0.46138978111604
C           -3.31989347855631       -3.63883015107627       -0.43007816460334
C           -4.68248387238959       -3.76178931569990       -0.15482270452443
C           -5.42701702922613       -2.62692380375664        0.07421212004951
C           -4.83797598985233       -1.36564605974963        0.02706072195952
S           -5.87547035013882        0.00311513473663        0.38195386965167
C           -4.83934748160739        1.36823449696638        0.00920010222084
C           -5.43024705394990        2.62925563449201        0.03988517197595
C           -4.68684733622520        3.76224129315514       -0.20166821578365
C           -3.32344619157690        3.63795467418220       -0.47167052851370
C           -2.72671782410352        2.39649169192864       -0.48690499511733
C           -3.45971010186786        1.22701542655422       -0.24864244915258
H            1.00215746476823       -0.00648703290966        2.27442949473404
H            1.67157665263088       -2.31587562033302        0.68632349993995
H            2.72800444626336       -4.51606463825920        0.66475377173733
H            5.15578313258734       -4.73432235820717        0.18510269086979
H            6.48930618841669       -2.69412242178166       -0.24628619144610
H            6.48864225691051        2.68999440996889       -0.26629908623168
H            5.15481497712362        4.73264972756608        0.15239199157008
H            2.72785587164523        4.51677900478471        0.63733990900453
H            1.67209382431486        2.31636510879076        0.67465723528987
H           -0.99944516419858        0.00711789352648       -2.27349683236684
H           -1.66996291871108       -2.31677605471776       -0.67048828751026
H           -2.72375474693035       -4.51797821192257       -0.61883516879374
H           -5.14816026824251       -4.73376601018332       -0.12106872353961
H           -6.48198534936235       -2.69052238412149        0.29431542990645
H           -6.48564167540201        2.69403496199676        0.25756919082462
H           -5.15406183164781        4.73385264841430       -0.18100016600872
H           -2.72788497724693        4.51562512016278       -0.66893456460107
H           -1.67098218295208        2.31556812159055       -0.69178161816098

          :  Hamiltonian                  GFN2-xTB          :
         :: gradient norm              0.000058151185 Eh/a0 ::
         :: HOMO-LUMO gap              0.131458744458 eV    ::
         :: SCC energy               -96.684606828168 Eh    ::
         :: -> dispersion             -0.081188583617 Eh    ::
         :: -> Gsolv                  -0.037740334605 Eh    ::
         :: repulsion energy           1.487967565120 Eh    ::

    * Orbital Energies and Occupations

         #    Occupation            Energy/Eh            Energy/eV
      -------------------------------------------------------------
         1        2.0000           -0.8258774             -22.4733
       ...           ...                  ...                  ...
        76        2.0000           -0.4321955             -11.7606
        77        2.0000           -0.4304545             -11.7133
        78        2.0000           -0.4232135             -11.5162
        79        2.0000           -0.4225188             -11.4973
        80        2.0000           -0.4220595             -11.4848
        81        2.0000           -0.4218197             -11.4783
        82        2.0000           -0.4184822             -11.3875
        83        2.0000           -0.4097913             -11.1510
        84        2.0000           -0.3947060             -10.7405
        85        2.0000           -0.3946673             -10.7394
        86        1.5202           -0.3522562              -9.5854
        87        1.4798           -0.3521026              -9.5812
        88        0.9260           -0.2598946              -7.0721 (HOMO)
        89        0.0719           -0.2550637              -6.9406 (LUMO)
        90        0.0021           -0.2516234              -6.8470
        91                         -0.2395560              -6.5187
        92                         -0.2385817              -6.4921
        93                         -0.2377004              -6.4682
        94                         -0.2345668              -6.3829
        95                         -0.2344979              -6.3810
        96                         -0.2114840              -5.7548
        97                         -0.2114658              -5.7543
        98                         -0.2080176              -5.6604
        99                         -0.2079435              -5.6584
       ...                                ...                  ...
       172                          0.6655496              18.1105
      -------------------------------------------------------------
                  HL-Gap            0.0048309 Eh            0.1315 eV

     #   Z          covCN         q      C6AA      α(0)
     1   9 F        0.786    -0.249    11.750     4.049
     2   6 C        2.776     0.148    24.761     8.150
     3   6 C        2.914    -0.088    30.207     9.012
     4   6 C        2.931     0.005    27.905     8.663
     5   7 N        2.748    -0.027    21.770     6.930
     6   6 C        2.946     0.058    26.695     8.474
     7   6 C        2.923    -0.051    29.273     8.873
     8   6 C        2.917    -0.034    28.853     8.808
     9   6 C        2.917    -0.036    28.895     8.815
    10   6 C        2.985    -0.039    28.953     8.826
    11   6 C        2.968     0.023    27.479     8.598
    12  16 S        2.144    -0.060   143.543    20.165
    13   6 C        2.968     0.023    27.479     8.598
    14   6 C        2.985    -0.039    28.953     8.826
    15   6 C        2.917    -0.036    28.897     8.815
    16   6 C        2.917    -0.034    28.853     8.808
    17   6 C        2.923    -0.051    29.272     8.872
    18   6 C        2.946     0.058    26.696     8.474
    19   6 C        2.776     0.148    24.760     8.150
    20   9 F        0.786    -0.249    11.750     4.049
    21   6 C        2.914    -0.088    30.208     9.013
    22   6 C        2.931     0.005    27.905     8.663
    23   7 N        2.748    -0.027    21.763     6.929
    24   6 C        2.946     0.058    26.700     8.475
    25   6 C        2.923    -0.051    29.270     8.872
    26   6 C        2.917    -0.034    28.856     8.809
    27   6 C        2.917    -0.036    28.899     8.815
    28   6 C        2.985    -0.039    28.953     8.826
    29   6 C        2.967     0.023    27.484     8.599
    30  16 S        2.144    -0.059   143.504    20.162
    31   6 C        2.967     0.023    27.483     8.599
    32   6 C        2.985    -0.039    28.954     8.827
    33   6 C        2.917    -0.036    28.896     8.815
    34   6 C        2.917    -0.034    28.856     8.809
    35   6 C        2.923    -0.051    29.272     8.873
    36   6 C        2.946     0.058    26.698     8.475
    37   1 H        0.926     0.061     2.186     2.312
    38   1 H        0.926     0.042     2.418     2.432
    39   1 H        0.926     0.045     2.387     2.416
    40   1 H        0.926     0.047     2.361     2.403
    41   1 H        0.926     0.049     2.326     2.385
    42   1 H        0.926     0.049     2.327     2.385
    43   1 H        0.926     0.047     2.362     2.403
    44   1 H        0.926     0.045     2.387     2.416
    45   1 H        0.926     0.042     2.420     2.433
    46   1 H        0.926     0.061     2.185     2.312
    47   1 H        0.926     0.042     2.421     2.433
    48   1 H        0.926     0.045     2.389     2.417
    49   1 H        0.926     0.047     2.363     2.404
    50   1 H        0.926     0.049     2.328     2.386
    51   1 H        0.926     0.049     2.327     2.386
    52   1 H        0.926     0.047     2.362     2.403
    53   1 H        0.926     0.045     2.388     2.416
    54   1 H        0.926     0.042     2.418     2.432

molecular dipole:
                 x           y           z       tot (Debye)
 q only:       -0.000       0.001       0.003
   full:       -0.001       0.001       0.003       0.009

 projected vibrational frequencies (cm⁻¹)
eigval :       -0.00     0.00     0.00     0.00     0.00     0.00
eigval :       14.56    17.81    20.45    22.67    33.09    42.04
eigval :       50.42    53.59    95.27    99.97   108.41   111.92
eigval :      127.82   136.58   179.25   198.87   200.15   217.81
eigval :      222.05   235.92   256.14   263.06   270.70   320.50
eigval :      324.15   344.40   344.62   364.27   364.82   379.22
eigval :      398.73   402.22   402.94   409.00   409.20   417.44
eigval :      420.74   445.00   458.30   470.65   471.16   471.72
eigval :      487.12   492.49   513.81   553.69   572.25   582.15
eigval :      597.92   604.10   605.21   623.90   634.62   635.30
eigval :      638.46   638.67   654.91   688.38   699.79   700.28
eigval :      714.69   717.46   752.32   760.28   760.62   761.07
eigval :      763.60   767.32   827.25   830.82   859.17   859.74
eigval :      860.54   861.19   893.82   894.05   898.11   898.34
eigval :      899.15   899.36   905.05   905.09   905.31   905.46
eigval :      922.98  1026.01  1041.55  1041.57  1072.08  1084.25
eigval :     1084.69  1085.15  1095.22  1098.36  1107.42  1149.44
eigval :     1149.78  1161.36  1163.32  1167.65  1172.48  1173.48
eigval :     1179.91  1180.07  1202.63  1216.14  1227.24  1228.78
eigval :     1238.78  1241.07  1244.60  1304.29  1304.60  1304.84
eigval :     1326.88  1335.06  1335.39  1345.17  1351.84  1352.07
eigval :     1392.85  1393.11  1397.21  1399.44  1421.12  1426.22
eigval :     1426.73  1452.47  1453.69  1469.88  1470.58  1500.97
eigval :     1502.11  1503.57  1505.67  1525.24  1525.93  1557.37
eigval :     3089.30  3089.41  3089.57  3089.74  3092.28  3092.30
eigval :     3092.46  3092.59  3103.69  3104.09  3104.36  3104.43
eigval :     3109.39  3110.10  3110.20  3110.66  3126.14  3127.35

   temp. (K)  partition function   enthalpy   heat capacity  entropy
                                   cal/mol     cal/K/mol   cal/K/mol   J/K/mol
 298.15  VIB  0.120E+14            17075.794    107.331    104.660
         ROT  0.181E+08              888.752      2.981     36.186
         INT  0.216E+21            17964.547    110.312    140.845
         TR   0.111E+29             1481.254      4.968     44.546
         TOT                       19445.8007   115.2799   185.3915   775.6782

       T/K    H(0)-H(T)+PV         H(T)/Eh          T*S/Eh         G(T)/Eh
   ------------------------------------------------------------------------
    298.15    0.309889E-01    0.410301E+00    0.880855E-01    0.322216E+00
   ------------------------------------------------------------------------

         :::::::::::::::::::::::::::::::::::::::::::::::::::::
         ::                  THERMODYNAMIC                  ::
         :::::::::::::::::::::::::::::::::::::::::::::::::::::
         :: total free energy         -94.874423616064 Eh   ::
         ::.................................................::
         :: total energy              -95.196639266010 Eh   ::
         :: zero point energy           0.379312294133 Eh   ::
         :: G(RRHO) w/o ZPVE           -0.057096644187 Eh   ::
         :: G(RRHO) contrib.            0.322215649946 Eh   ::
         :::::::::::::::::::::::::::::::::::::::::::::::::::::

           -------------------------------------------------
          | TOTAL ENERGY              -95.196639266010 Eh   |
          | TOTAL ENTHALPY            -94.786338116007 Eh   |
          | TOTAL FREE ENERGY         -94.874423616064 Eh   |
          | GRADIENT NORM               0.000058051371 Eh/α |
          | HOMO-LUMO GAP               0.131455425612 eV   |
           -------------------------------------------------

 * finished run on 2025/08/24 at 17:50:30.879
