   * xtb version 6.7.1 (edcfbbe) compiled by 'albert@albert-system' on 2024-07-22

   ID    Z sym.   atoms
    1    6 C      1-5, 8-17, 19-32, 34-43, 45-52
    2    7 N      6, 7, 18, 33, 44
    3    1 H      53-83

          program call               : xtb data2507/toluene/TAZ-PPI/TAZ-PPI_toluene_S0_finalOpt.xtbopt.xyz --gfn 2 --uhf 2 --gbsa toluene --ohess vtight --parallel 40 --molden --ceasefiles --namespace data2507/toluene/TAZ-PPI/TAZ-PPI_toluene_T1_preOpt
      * Solvation model:               GBSA
        Solvent                        toluene
        Solvent mass                       9.2140E+01 g/mol
          :  Hamiltonian                  GFN2-xTB          :
 * total energy  :  -131.0769942 Eh     change       -0.4641481E-07 Eh
 * total energy  :  -131.0829632 Eh     change       -0.5969039E-02 Eh
 * total energy  :  -131.0861772 Eh     change       -0.3214008E-02 Eh
 * total energy  :  -131.0869724 Eh     change       -0.7952309E-03 Eh
 * total energy  :  -131.0880321 Eh     change       -0.1059664E-02 Eh
 * total energy  :  -131.0886198 Eh     change       -0.5876514E-03 Eh
 * total energy  :  -131.0889551 Eh     change       -0.3353685E-03 Eh
 * total energy  :  -131.0891765 Eh     change       -0.2213943E-03 Eh
 * total energy  :  -131.0893405 Eh     change       -0.1639402E-03 Eh
 * total energy  :  -131.0894636 Eh     change       -0.1231102E-03 Eh
 * total energy  :  -131.0905357 Eh     change       -0.1578819E-06 Eh
 * total energy  :  -131.0905359 Eh     change       -0.1392572E-06 Eh
 * total energy  :  -131.0905361 Eh     change       -0.2006273E-06 Eh
 * total energy  :  -131.0905363 Eh     change       -0.2250386E-06 Eh
 * total energy  :  -131.0905366 Eh     change       -0.2899888E-06 Eh
 * total energy  :  -131.0905368 Eh     change       -0.2377363E-06 Eh
 * total energy  :  -131.0905370 Eh     change       -0.1580914E-06 Eh
 * total energy  :  -131.0905371 Eh     change       -0.1056822E-06 Eh
 * total energy  :  -131.0905372 Eh     change       -0.8237100E-07 Eh
   *** GEOMETRY OPTIMIZATION CONVERGED AFTER 143 ITERATIONS ***

 final structure:
================
83
 xtb: 6.7.1 (edcfbbe)
C           12.09742720225202       -0.39878531888556       -0.01598696286777
C           11.73835707467581        0.75166623375075        0.67043584045788
C           10.42377491529948        1.17333150801414        0.67868587006615
C            9.44336406818646        0.44351110567365        0.00156881518983
C            8.08144997167807        0.93769524158982        0.03046549987876
N            7.77045608196438        2.21276755959273        0.10443295947677
N            6.45389879534326        2.33634359448378        0.07662535246800
C            5.91229592663219        1.12920662036260       -0.00138966782540
C            4.50412418455537        0.89929759010295        0.01510168689683
C            3.90337990021525       -0.31933071918308        0.39341518725099
C            2.54611759234410       -0.46762136959387        0.38520361650375
C            1.66940626583997        0.58963334459011        0.01674437686397
C            0.25742609101907        0.42364698508711        0.00343111161675
C           -0.35807991426367       -0.86506134534479       -0.00529947174542
C           -1.70489543162738       -1.01908366179205       -0.02135059621171
C           -2.59548851773064        0.10076976447320       -0.01937741607555
C           -3.97209382455609       -0.16912295542978       -0.01849759881643
N           -4.44389082654120       -1.42620046894848        0.06385749712002
C           -5.77104855035020       -1.34105173920899        0.07479802304870
C           -6.71305329671058       -2.40688669979800        0.16831337680873
C           -6.28559838423365       -3.73473919946891        0.26247798943710
C           -7.20166746485661       -4.75647903751767        0.36060129109052
C           -8.55967278752981       -4.45261257046813        0.36733368032524
C           -8.99187732834129       -3.14646980002108        0.27476969737740
C           -8.08913283291500       -2.07874705218913        0.16962246912414
C           -8.51412272439334       -0.69251813126240        0.05986531553784
C           -9.86755610952834       -0.34003223387851        0.04476864982265
C          -10.28562493112554        0.96833885880203       -0.06754344203909
C           -9.34884057322805        1.99447653086662       -0.17955691348812
C           -8.01096083396798        1.69610733308230       -0.16772708100852
C           -7.55750198807142        0.36717596758518       -0.04258521537062
C           -6.19167477376027        0.01149928947179       -0.01491288159120
N           -5.03674990233191        0.74578478479271       -0.07331273639819
C           -4.93951384070390        2.15088654670509       -0.20523293471077
C           -5.01739940000369        2.96091051974769        0.92405639835078
C           -4.92405767859708        4.33456399820995        0.78673576704424
C           -4.75436109165924        4.89959936120786       -0.46756493924055
C           -4.67873661892457        4.09095381968869       -1.59033284667264
C           -4.77170415877000        2.71583687091542       -1.46542733910636
C           -1.98833794288167        1.38937234912746        0.00155396714608
C           -0.63723239822925        1.53534235089733        0.00519014474960
C            2.29170973440694        1.82507633092390       -0.31916286333690
C            3.64677555319409        1.97268865871912       -0.31787192744393
N            6.92741857339632        0.18889732570522       -0.03540966511756
C            6.82773171438930       -1.21053870807845       -0.14511942295304
C            7.37139235062841       -2.02161912219222        0.84596823954971
C            7.28512216887033       -3.39690015154057        0.72624977838496
C            6.65900106443286       -3.96407368068124       -0.37206496939516
C            6.11802746439593       -3.15350412360420       -1.35778506851892
C            6.20192367061578       -1.77740541572571       -1.25179888555516
C            9.81614980922502       -0.69931227279952       -0.70673327861531
C           11.13475580064123       -1.11482701272819       -0.70887501078525
H           13.12500070226944       -0.73065511316217       -0.01802870632528
H           12.48693985045500        1.32062611277246        1.20184775755060
H           10.12893101911625        2.06812457981793        1.20533730493591
H            4.51949963078894       -1.14114773698489        0.72622527799304
H            2.13276208155274       -1.40722657806216        0.71653548088444
H            0.26364407623109       -1.74591989812061       -0.03864121495213
H           -2.15100007999527       -2.00070611189378       -0.04556802193481
H           -5.22324061621102       -3.92449490811185        0.25689391421995
H           -6.87366959523751       -5.78256550446643        0.43293617368542
H           -9.28629088469405       -5.24828154900812        0.44621525146255
H          -10.05417934074813       -2.96340077929082        0.28490952481163
H          -10.62155577370770       -1.10627152516940        0.12201535445050
H          -11.34080742387700        1.19737434293852       -0.07330884645754
H           -9.67408689608778        3.01954672651982       -0.27570726453481
H           -7.28946916007194        2.49072360795017       -0.25926748692428
H           -5.14892959342087        2.50734374306591        1.89559113347504
H           -4.98235161793980        4.96325640868241        1.66230538603084
H           -4.68061183900774        5.97154107282884       -0.56979049003056
H           -4.54719453563184        4.52997724973625       -2.56762640676171
H           -4.71188098295200        2.07401047492521       -2.33215007871614
H           -2.60496602257419        2.27171942884162        0.03507467018564
H           -0.23273563962404        2.53419431450584        0.05437250789066
H            1.68258703138102        2.66234624625753       -0.62066051012446
H            4.10252692961165        2.91342814453598       -0.58709165802655
H            7.85594245922777       -1.56854848767041        1.69880123453289
H            7.70628964323069       -4.02508493409008        1.49647372800024
H            6.59247008091242       -5.03770293988495       -0.46023001538230
H            5.63155972029301       -3.59204971690493       -2.21593283069739
H            5.78383515841908       -1.13533726770047       -2.01368290243265
H            9.08261963323208       -1.25311829077927       -1.27332024500600
H           11.41123680782526       -2.00150594864673       -1.26046493561662

          :  Hamiltonian                  GFN2-xTB          :
         :: gradient norm              0.000052402675 Eh/a0 ::
         :: HOMO-LUMO gap              0.626651950947 eV    ::
         :: SCC energy              -133.487085761553 Eh    ::
         :: -> dispersion             -0.117768164825 Eh    ::
         :: -> Gsolv                  -0.058198599431 Eh    ::
         :: repulsion energy           2.396548583894 Eh    ::

    * Orbital Energies and Occupations

         #    Occupation            Energy/Eh            Energy/eV
      -------------------------------------------------------------
         1        2.0000           -0.6988010             -19.0153
       ...           ...                  ...                  ...
       111        2.0000           -0.4106535             -11.1745
       112        2.0000           -0.4091446             -11.1334
       113        2.0000           -0.4083345             -11.1113
       114        2.0000           -0.4065553             -11.0629
       115        2.0000           -0.4059686             -11.0470
       116        2.0000           -0.4051842             -11.0256
       117        2.0000           -0.3970405             -10.8040
       118        2.0000           -0.3896620             -10.6032
       119        2.0000           -0.3831298             -10.4255
       120        2.0000           -0.3790529             -10.3146
       121        1.9740           -0.3665298              -9.9738
       122        1.0260           -0.3596471              -9.7865
       123        1.0000           -0.2855845              -7.7712 (HOMO)
       124        0.0000           -0.2625555              -7.1445 (LUMO)
       125                         -0.2569525              -6.9920
       126                         -0.2531915              -6.8897
       127                         -0.2448971              -6.6640
       128                         -0.2423884              -6.5957
       129                         -0.2423404              -6.5944
       130                         -0.2417080              -6.5772
       131                         -0.2376071              -6.4656
       132                         -0.2295349              -6.2460
       133                         -0.2198716              -5.9830
       134                         -0.2164609              -5.8902
       ...                                ...                  ...
       239                          0.7201979              19.5976
      -------------------------------------------------------------
                  HL-Gap            0.0230290 Eh            0.6267 eV

     #   Z          covCN         q      C6AA      α(0)
     1   6 C        2.919    -0.029    28.718     8.788
     2   6 C        2.918    -0.027    28.679     8.782
     3   6 C        2.928    -0.030    28.755     8.794
     4   6 C        2.973    -0.005    28.147     8.703
     5   6 C        3.112     0.135    24.904     8.175
     6   7 N        2.056    -0.208    26.242     7.599
     7   7 N        2.062    -0.217    26.437     7.627
     8   6 C        3.103     0.134    24.954     8.186
     9   6 C        2.970    -0.015    28.393     8.740
    10   6 C        2.913    -0.039    28.979     8.827
    11   6 C        2.918    -0.037    28.926     8.820
    12   6 C        2.968     0.006    27.875     8.660
    13   6 C        2.968     0.007    27.853     8.657
    14   6 C        2.914    -0.037    28.920     8.818
    15   6 C        2.921    -0.033    28.811     8.802
    16   6 C        2.968    -0.013    28.326     8.730
    17   6 C        3.140     0.131    24.908     8.167
    18   7 N        1.887    -0.314    28.987     7.981
    19   6 C        3.168     0.080    25.880     8.312
    20   6 C        2.984    -0.005    28.147     8.703
    21   6 C        2.922    -0.027    28.676     8.782
    22   6 C        2.916    -0.031    28.763     8.795
    23   6 C        2.917    -0.028    28.704     8.786
    24   6 C        2.921    -0.034    28.841     8.807
    25   6 C        2.977    -0.000    28.034     8.685
    26   6 C        2.977     0.001    28.003     8.680
    27   6 C        2.920    -0.032    28.804     8.801
    28   6 C        2.916    -0.030    28.747     8.792
    29   6 C        2.915    -0.031    28.773     8.796
    30   6 C        2.918    -0.037    28.909     8.817
    31   6 C        2.974    -0.009    28.235     8.716
    32   6 C        3.046     0.039    27.078     8.535
    33   7 N        2.821    -0.064    22.477     7.041
    34   6 C        2.911     0.068    26.478     8.438
    35   6 C        2.920    -0.037    28.916     8.818
    36   6 C        2.919    -0.025    28.631     8.775
    37   6 C        2.919    -0.028    28.692     8.784
    38   6 C        2.920    -0.025    28.619     8.773
    39   6 C        2.920    -0.037    28.914     8.818
    40   6 C        2.910    -0.042    29.042     8.837
    41   6 C        2.915    -0.036    28.890     8.814
    42   6 C        2.917    -0.037    28.909     8.817
    43   6 C        2.920    -0.034    28.845     8.807
    44   7 N        2.823    -0.069    22.574     7.057
    45   6 C        2.911     0.065    26.554     8.450
    46   6 C        2.921    -0.039    28.974     8.827
    47   6 C        2.920    -0.026    28.643     8.776
    48   6 C        2.919    -0.029    28.736     8.791
    49   6 C        2.920    -0.026    28.646     8.777
    50   6 C        2.921    -0.038    28.954     8.824
    51   6 C        2.922    -0.035    28.881     8.813
    52   6 C        2.918    -0.029    28.728     8.789
    53   1 H        0.926     0.042     2.427     2.436
    54   1 H        0.926     0.042     2.426     2.436
    55   1 H        0.926     0.045     2.382     2.414
    56   1 H        0.926     0.023     2.695     2.567
    57   1 H        0.926     0.037     2.495     2.470
    58   1 H        0.926     0.037     2.484     2.465
    59   1 H        0.926     0.050     2.315     2.379
    60   1 H        0.926     0.049     2.331     2.388
    61   1 H        0.926     0.039     2.462     2.454
    62   1 H        0.926     0.040     2.454     2.450
    63   1 H        0.926     0.042     2.427     2.436
    64   1 H        0.926     0.043     2.411     2.428
    65   1 H        0.926     0.039     2.466     2.455
    66   1 H        0.926     0.037     2.492     2.469
    67   1 H        0.926     0.034     2.529     2.487
    68   1 H        0.926     0.042     2.422     2.434
    69   1 H        0.926     0.049     2.333     2.389
    70   1 H        0.926     0.049     2.333     2.389
    71   1 H        0.926     0.049     2.333     2.389
    72   1 H        0.926     0.041     2.433     2.439
    73   1 H        0.926     0.029     2.595     2.519
    74   1 H        0.926     0.036     2.497     2.471
    75   1 H        0.926     0.038     2.474     2.460
    76   1 H        0.926     0.043     2.406     2.425
    77   1 H        0.926     0.035     2.510     2.478
    78   1 H        0.926     0.048     2.350     2.397
    79   1 H        0.926     0.049     2.335     2.390
    80   1 H        0.926     0.048     2.347     2.396
    81   1 H        0.926     0.037     2.495     2.470
    82   1 H        0.926     0.027     2.634     2.538
    83   1 H        0.926     0.039     2.462     2.454

molecular dipole:
                 x           y           z       tot (Debye)
 q only:       -2.130      -0.851      -0.193
   full:       -2.360      -1.080      -0.244       6.626

 projected vibrational frequencies (cm⁻¹)
eigval :       -0.00    -0.00    -0.00     0.00     0.00     0.00
eigval :        9.53    11.78    14.46    21.24    24.66    29.01
eigval :       34.61    37.88    45.93    49.07    58.36    61.60
eigval :       70.54    74.28    86.14    87.93    94.90    97.41
eigval :      111.67   119.31   134.50   151.17   157.44   176.12
eigval :      208.16   216.95   224.08   236.65   238.04   242.66
eigval :      259.93   266.28   272.22   281.85   321.85   337.58
eigval :      356.07   358.97   362.60   372.83   375.86   376.99
eigval :      380.19   391.60   394.71   401.19   405.64   430.64
eigval :      432.09   437.31   443.87   454.91   469.82   474.28
eigval :      483.22   490.90   503.31   508.03   527.47   545.00
eigval :      572.86   582.01   584.77   585.52   587.90   594.29
eigval :      603.92   615.00   629.44   634.87   639.26   644.30
eigval :      654.64   660.46   662.31   667.90   671.76   674.20
eigval :      678.24   682.23   690.33   695.27   705.07   716.13
eigval :      733.14   752.40   759.18   759.97   761.68   768.54
eigval :      776.71   790.46   796.76   797.22   810.99   818.25
eigval :      856.55   869.13   871.65   873.46   873.75   896.51
eigval :      899.89   900.68   901.21   902.69   904.13   910.46
eigval :      912.73   915.06   918.73   918.93   923.39   926.60
eigval :      927.97   928.55   929.72   930.70   931.48   932.18
eigval :      940.93   943.87   946.33   971.20   983.58   991.62
eigval :     1002.07  1019.19  1027.08  1059.22  1075.93  1076.52
eigval :     1080.00  1081.89  1094.62  1100.15  1103.39  1112.79
eigval :     1114.41  1118.52  1131.85  1138.70  1148.89  1153.75
eigval :     1158.80  1162.04  1175.92  1177.20  1177.86  1178.49
eigval :     1181.52  1184.59  1188.68  1196.66  1199.04  1204.32
eigval :     1212.68  1243.59  1246.40  1251.06  1260.33  1270.34
eigval :     1271.67  1274.12  1277.16  1279.19  1282.70  1295.10
eigval :     1299.36  1304.29  1304.64  1312.14  1320.06  1324.41
eigval :     1332.12  1335.57  1337.68  1352.63  1372.70  1379.26
eigval :     1391.13  1395.59  1408.97  1421.14  1424.78  1428.71
eigval :     1431.40  1432.13  1437.61  1440.73  1443.46  1454.98
eigval :     1463.00  1471.41  1475.18  1484.97  1490.92  1499.42
eigval :     1506.57  1519.60  1539.90  1545.32  1565.20  1572.39
eigval :     1577.02  1577.16  1578.14  1583.42  1585.34  1587.82
eigval :     1588.74  1591.55  3074.69  3075.29  3078.67  3079.06
eigval :     3079.37  3080.95  3082.46  3083.18  3084.73  3086.20
eigval :     3087.66  3088.17  3088.64  3088.93  3089.35  3091.24
eigval :     3092.66  3094.12  3094.26  3094.88  3100.16  3100.62
eigval :     3100.83  3102.03  3102.42  3102.71  3103.71  3108.80
eigval :     3112.29  3128.05  3131.09

   temp. (K)  partition function   enthalpy   heat capacity  entropy
                                   cal/mol     cal/K/mol   cal/K/mol   J/K/mol
 298.15  VIB  0.413E+20            24168.165    150.837    151.902
         ROT  0.149E+09              888.752      2.981     40.376
         INT  0.615E+28            25056.918    153.818    192.278
         TR   0.166E+29             1481.254      4.968     45.348
         TOT                       26538.1717   158.7862   237.6264   994.2288

       T/K    H(0)-H(T)+PV         H(T)/Eh          T*S/Eh         G(T)/Eh
   ------------------------------------------------------------------------
    298.15    0.422913E-01    0.671793E+00    0.112904E+00    0.558889E+00
   ------------------------------------------------------------------------

         :::::::::::::::::::::::::::::::::::::::::::::::::::::
         ::                  THERMODYNAMIC                  ::
         :::::::::::::::::::::::::::::::::::::::::::::::::::::
         :: total free energy        -130.531648571614 Eh   ::
         ::.................................................::
         :: total energy             -131.090537178927 Eh   ::
         :: zero point energy           0.629501303392 Eh   ::
         :: G(RRHO) w/o ZPVE           -0.070612696079 Eh   ::
         :: G(RRHO) contrib.            0.558888607314 Eh   ::
         :::::::::::::::::::::::::::::::::::::::::::::::::::::

           -------------------------------------------------
          | TOTAL ENERGY             -131.090537178927 Eh   |
          | TOTAL ENTHALPY           -130.418744606977 Eh   |
          | TOTAL FREE ENERGY        -130.531648571614 Eh   |
          | GRADIENT NORM               0.000051792715 Eh/α |
          | HOMO-LUMO GAP               0.626651742155 eV   |
           -------------------------------------------------

 * finished run on 2025/07/16 at 14:49:47.917
