   * xtb version 6.7.1 (edcfbbe) compiled by 'albert@albert-system' on 2024-07-22

   ID    Z sym.   atoms
    1    6 C      1-5, 8-17, 19-32, 34-43, 45-52
    2    7 N      6, 7, 18, 33, 44
    3    1 H      53-83

          program call               : xtb data2507/toluene/TAZ-PPI/TAZ-PPI_toluene_S0_crest.xyz --gfn 2 --gbsa toluene --ohess vtight --parallel 40 --molden --ceasefiles --namespace data2507/toluene/TAZ-PPI/TAZ-PPI_toluene_S0_finalOpt
      * Solvation model:               GBSA
        Solvent                        toluene
        Solvent mass                       9.2140E+01 g/mol
          :  Hamiltonian                  GFN2-xTB          :
 * total energy  :  -131.1746628 Eh     change       -0.2590667E-08 Eh
 * total energy  :  -131.1747123 Eh     change       -0.4946589E-04 Eh
 * total energy  :  -131.1747362 Eh     change       -0.2387342E-04 Eh
 * total energy  :  -131.1747443 Eh     change       -0.8165172E-05 Eh
 * total energy  :  -131.1747525 Eh     change       -0.8204030E-05 Eh
 * total energy  :  -131.1747591 Eh     change       -0.6559223E-05 Eh
 * total energy  :  -131.1747638 Eh     change       -0.4659958E-05 Eh
 * total energy  :  -131.1747675 Eh     change       -0.3723855E-05 Eh
 * total energy  :  -131.1747716 Eh     change       -0.4120923E-05 Eh
 * total energy  :  -131.1747761 Eh     change       -0.4544461E-05 Eh
 * total energy  :  -131.1748237 Eh     change       -0.9730573E-06 Eh
 * total energy  :  -131.1748245 Eh     change       -0.7830937E-06 Eh
 * total energy  :  -131.1748251 Eh     change       -0.6170929E-06 Eh
 * total energy  :  -131.1748256 Eh     change       -0.5302475E-06 Eh
 * total energy  :  -131.1748261 Eh     change       -0.5147985E-06 Eh
 * total energy  :  -131.1748267 Eh     change       -0.5784904E-06 Eh
 * total energy  :  -131.1748273 Eh     change       -0.5927863E-06 Eh
 * total energy  :  -131.1748278 Eh     change       -0.5170858E-06 Eh
 * total energy  :  -131.1748278 Eh     change       -0.7764925E-08 Eh
   *** GEOMETRY OPTIMIZATION CONVERGED AFTER 44 ITERATIONS ***

 final structure:
================
83
 xtb: 6.7.1 (edcfbbe)
C           11.97835115372667       -0.50231915568491       -0.24260889163118
C           11.69190570405677        0.36609651947712        0.79925848616889
C           10.40197856173014        0.82516689333417        0.98529588669708
C            9.38033378595134        0.41411260409572        0.12975631331748
C            8.03856757219253        0.92673400625257        0.35387482105435
N            7.77028008487847        2.13585830400873        0.77668961488006
N            6.44224468665724        2.27806703160375        0.83832642983309
C            5.88732503356303        1.15494888209981        0.45868592236211
C            4.45541529866706        0.91492424249652        0.42889725755556
C            3.90262602063026       -0.32017856160195        0.76315519399631
C            2.53502089248037       -0.50264003706102        0.72843453754260
C            1.68063105326596        0.54029735015930        0.37321428524565
C            0.22616696495141        0.33761689796719        0.33504640917362
C           -0.31804918970915       -0.84518674509702       -0.16646279589297
C           -1.68311744027422       -1.03060077423284       -0.20844533461745
C           -2.55218262948014       -0.03865375850871        0.25064003391553
C           -3.98063856105283       -0.30216520945499        0.19455804883150
N           -4.48574573378157       -1.50201083189451        0.35758486244159
C           -5.83295201335519       -1.35818784070073        0.25436950175679
C           -6.83003147031541       -2.36391308268907        0.39611933815577
C           -6.48866707525847       -3.69025841631646        0.68337153559784
C           -7.46693719769633       -4.63830152197756        0.85249366355381
C           -8.80572845047779       -4.26648292884602        0.74214771311462
C           -9.15265816130671       -2.96741392981165        0.45178196104895
C           -8.18167788128845       -1.97192648689808        0.25975831716967
C           -8.51469097537464       -0.59910196425766       -0.08191994224744
C           -9.84039024953027       -0.19923793244209       -0.30527109057028
C          -10.16457004760464        1.08744306563012       -0.66602392801414
C           -9.16249646416720        2.03756870994893       -0.83682707255281
C           -7.85165236153989        1.68836226626270       -0.62303122613082
C           -7.50116302741907        0.38825797524689       -0.23045301624776
C           -6.15872199104408       -0.02631087818231        0.00235709087075
N           -4.95623498584708        0.64500637366867       -0.02202181644934
C           -4.71763665507780        2.01886621799186       -0.24868548260260
C           -5.13250619303657        2.96322016044916        0.68596611147253
C           -4.86850726894797        4.30327636038495        0.46748636847821
C           -4.18914863507331        4.70309047532603       -0.67268581036857
C           -3.77396023783560        3.76079256003873       -1.59908830543634
C           -4.03595012016444        2.41770160148393       -1.39207103706964
C           -2.01103259899155        1.13332399812783        0.77741878700004
C           -0.64343516548262        1.31781396888556        0.81036014289679
C            2.23860021397435        1.78122961039734        0.06430226926641
C            3.60466490954964        1.96791518135453        0.09228284420491
N            6.86528110359259        0.24445581554068        0.13193153241009
C            6.70282731000409       -1.07713106301921       -0.32692885060816
C            7.31239223855660       -2.12501882428651        0.35436962555070
C            7.15214399091310       -3.42044547558741       -0.10329630124154
C            6.38501001041644       -3.67278203807276       -1.22920478098273
C            5.77715715348948       -2.62617227226324       -1.90372081952229
C            5.93458012162412       -1.32583208918788       -1.45913125979509
C            9.67814394798311       -0.44060578884924       -0.92954497159325
C           10.97158305412095       -0.89653235900951       -1.10850803737651
H           12.98575221379896       -0.86451965283058       -0.38430930660631
H           12.47643457603089        0.68542131940633        1.46928690738927
H           10.16252293727061        1.50410165377733        1.78957508272053
H            4.53976535715418       -1.13654435696977        1.07038205618938
H            2.12114560363277       -1.46019354377708        1.00728993330812
H            0.33669828889309       -1.61495529563701       -0.54718220223812
H           -2.10479281006606       -1.94393081144228       -0.59928745125224
H           -5.44080223857579       -3.93372135756987        0.77276753300886
H           -7.20630697286806       -5.66249916319335        1.07600568990476
H           -9.58031302253056       -5.00632293410950        0.88504876400442
H          -10.20121857750419       -2.72624566638434        0.37923266030919
H          -10.63999974099565       -0.91487892884791       -0.20294309350202
H          -11.19788676097039        1.35688647033880       -0.82885216904500
H           -9.41187906373715        3.04381972278615       -1.13982286569726
H           -7.07687555183007        2.42272129200562       -0.77346502641319
H           -5.66014786955277        2.63919163808151        1.57164509594053
H           -5.19153998213361        5.03527171756426        1.19234707511085
H           -3.98319251779550        5.74972873690963       -0.83769848487542
H           -3.24530334204774        4.06974554092345       -2.48808234642786
H           -3.71546021911678        1.67371017609543       -2.10661289411105
H           -2.65544593595443        1.89637198352798        1.18577776593523
H           -0.24204466273926        2.22433212621981        1.23857245227765
H            1.59438064509386        2.59971516206247       -0.22026844544959
H            4.03766616972807        2.92698672737211       -0.14800727690079
H            7.90565405282763       -1.91737175546109        1.23313256014521
H            7.62623151228083       -4.23335406312074        0.42540896513264
H            6.26088923919692       -4.68547110735795       -1.58105995413197
H            5.18025172602327       -2.81925316924384       -2.78209701779034
H            5.46774497476043       -0.50208545225348       -1.97957980728136
H            8.90573629893156       -0.73686023066081       -1.62417772483148
H           11.19311197675741       -1.55986833489804       -1.93161814111548

          :  Hamiltonian                  GFN2-xTB          :
         :: gradient norm              0.000067423523 Eh/a0 ::
         :: HOMO-LUMO gap              2.510280487195 eV    ::
         :: SCC energy              -133.590460032796 Eh    ::
         :: -> dispersion             -0.118209508206 Eh    ::
         :: -> Gsolv                  -0.058311473742 Eh    ::
         :: repulsion energy           2.415632204424 Eh    ::

    * Orbital Energies and Occupations

         #    Occupation            Energy/Eh            Energy/eV
      -------------------------------------------------------------
         1        2.0000           -0.7035437             -19.1444
       ...           ...                  ...                  ...
       110        2.0000           -0.4151047             -11.2956
       111        2.0000           -0.4144716             -11.2783
       112        2.0000           -0.4126639             -11.2292
       113        2.0000           -0.4112177             -11.1898
       114        2.0000           -0.4085605             -11.1175
       115        2.0000           -0.4063372             -11.0570
       116        2.0000           -0.4025509             -10.9540
       117        2.0000           -0.3989496             -10.8560
       118        2.0000           -0.3855239             -10.4906
       119        2.0000           -0.3835142             -10.4360
       120        2.0000           -0.3806311             -10.3575
       121        2.0000           -0.3688283             -10.0363
       122        2.0000           -0.3653254              -9.9410 (HOMO)
       123                         -0.2730742              -7.4307 (LUMO)
       124                         -0.2600279              -7.0757
       125                         -0.2521666              -6.8618
       126                         -0.2498768              -6.7995
       127                         -0.2444742              -6.6525
       128                         -0.2435495              -6.6273
       129                         -0.2410181              -6.5584
       130                         -0.2405748              -6.5464
       131                         -0.2348523              -6.3907
       132                         -0.2321081              -6.3160
       133                         -0.2314322              -6.2976
       ...                                ...                  ...
       239                          0.7242468              19.7078
      -------------------------------------------------------------
                  HL-Gap            0.0922511 Eh            2.5103 eV

     #   Z          covCN         q      C6AA      α(0)
     1   6 C        2.919    -0.028    28.689     8.783
     2   6 C        2.918    -0.027    28.666     8.780
     3   6 C        2.927    -0.029    28.732     8.790
     4   6 C        2.974    -0.004    28.122     8.699
     5   6 C        3.127     0.137    24.841     8.161
     6   7 N        2.064    -0.220    26.510     7.638
     7   7 N        2.064    -0.220    26.507     7.637
     8   6 C        3.127     0.137    24.844     8.161
     9   6 C        2.974    -0.006    28.173     8.706
    10   6 C        2.920    -0.034    28.851     8.808
    11   6 C        2.924    -0.034    28.838     8.806
    12   6 C        2.976     0.014    27.697     8.633
    13   6 C        2.976     0.012    27.739     8.639
    14   6 C        2.923    -0.033    28.811     8.802
    15   6 C        2.926    -0.029    28.729     8.790
    16   6 C        2.974    -0.002    28.082     8.692
    17   6 C        3.190     0.135    24.612     8.092
    18   7 N        1.895    -0.318    29.083     7.995
    19   6 C        3.204     0.060    26.094     8.321
    20   6 C        2.985    -0.003    28.095     8.695
    21   6 C        2.921    -0.033    28.834     8.806
    22   6 C        2.917    -0.032    28.794     8.799
    23   6 C        2.917    -0.034    28.853     8.808
    24   6 C        2.921    -0.036    28.907     8.817
    25   6 C        2.979    -0.005    28.136     8.701
    26   6 C        2.979    -0.001    28.057     8.689
    27   6 C        2.922    -0.035    28.873     8.812
    28   6 C        2.916    -0.034    28.846     8.807
    29   6 C        2.917    -0.032    28.808     8.802
    30   6 C        2.919    -0.041    29.028     8.835
    31   6 C        2.977    -0.005    28.143     8.702
    32   6 C        3.073     0.022    27.441     8.589
    33   7 N        2.840    -0.054    22.276     7.010
    34   6 C        2.912     0.066    26.514     8.444
    35   6 C        2.921    -0.037    28.917     8.818
    36   6 C        2.920    -0.026    28.651     8.778
    37   6 C        2.919    -0.028    28.707     8.786
    38   6 C        2.920    -0.025    28.623     8.773
    39   6 C        2.921    -0.038    28.942     8.822
    40   6 C        2.920    -0.036    28.893     8.815
    41   6 C        2.924    -0.034    28.837     8.806
    42   6 C        2.923    -0.032    28.794     8.800
    43   6 C        2.925    -0.030    28.746     8.793
    44   7 N        2.829    -0.062    22.433     7.034
    45   6 C        2.912     0.063    26.589     8.455
    46   6 C        2.921    -0.038    28.955     8.824
    47   6 C        2.920    -0.025    28.626     8.774
    48   6 C        2.919    -0.028    28.703     8.786
    49   6 C        2.920    -0.025    28.628     8.774
    50   6 C        2.921    -0.039    28.958     8.825
    51   6 C        2.922    -0.034    28.843     8.807
    52   6 C        2.919    -0.029    28.717     8.788
    53   1 H        0.926     0.043     2.409     2.427
    54   1 H        0.926     0.043     2.410     2.428
    55   1 H        0.926     0.045     2.385     2.415
    56   1 H        0.926     0.029     2.607     2.525
    57   1 H        0.926     0.043     2.406     2.426
    58   1 H        0.926     0.044     2.399     2.422
    59   1 H        0.926     0.048     2.349     2.397
    60   1 H        0.926     0.043     2.404     2.425
    61   1 H        0.926     0.033     2.551     2.498
    62   1 H        0.926     0.032     2.558     2.501
    63   1 H        0.926     0.035     2.521     2.483
    64   1 H        0.926     0.037     2.488     2.467
    65   1 H        0.926     0.033     2.547     2.496
    66   1 H        0.926     0.032     2.558     2.501
    67   1 H        0.926     0.030     2.590     2.517
    68   1 H        0.926     0.042     2.426     2.436
    69   1 H        0.926     0.048     2.347     2.396
    70   1 H        0.926     0.048     2.342     2.393
    71   1 H        0.926     0.048     2.349     2.397
    72   1 H        0.926     0.038     2.471     2.458
    73   1 H        0.926     0.032     2.559     2.502
    74   1 H        0.926     0.042     2.422     2.434
    75   1 H        0.926     0.045     2.377     2.411
    76   1 H        0.926     0.046     2.365     2.405
    77   1 H        0.926     0.037     2.491     2.468
    78   1 H        0.926     0.049     2.328     2.386
    79   1 H        0.926     0.051     2.312     2.378
    80   1 H        0.926     0.050     2.326     2.385
    81   1 H        0.926     0.037     2.486     2.466
    82   1 H        0.926     0.027     2.627     2.534
    83   1 H        0.926     0.040     2.443     2.444

molecular dipole:
                 x           y           z       tot (Debye)
 q only:        0.122      -0.517      -0.882
   full:       -0.125      -0.740      -1.114       3.415

 projected vibrational frequencies (cm⁻¹)
eigval :       -0.00     0.00     0.00     0.00     0.00     0.00
eigval :        6.37    10.41    11.24    21.33    26.45    31.32
eigval :       32.92    41.98    46.82    51.43    59.73    65.51
eigval :       70.33    77.34    82.12    90.89    93.43   104.30
eigval :      109.97   115.92   130.92   146.76   166.40   188.44
eigval :      205.33   216.40   233.30   236.44   238.49   255.29
eigval :      262.27   268.60   271.73   308.32   339.44   340.78
eigval :      351.76   357.26   368.19   371.13   375.34   378.66
eigval :      381.23   397.10   400.73   418.18   423.78   437.08
eigval :      438.09   449.02   460.11   475.28   479.98   487.38
eigval :      498.21   510.96   521.98   535.57   538.15   545.65
eigval :      575.28   584.58   585.53   588.49   592.97   600.72
eigval :      608.17   632.67   640.75   649.53   652.96   657.48
eigval :      663.19   668.55   676.12   678.25   681.08   685.75
eigval :      690.85   697.70   702.18   708.45   715.43   727.00
eigval :      733.44   760.70   762.94   765.09   767.66   774.07
eigval :      783.05   804.77   810.31   835.93   863.24   870.19
eigval :      873.03   874.07   876.85   877.98   878.97   898.88
eigval :      903.49   903.81   907.72   913.66   917.98   925.52
eigval :      926.87   926.99   927.94   929.20   930.30   930.95
eigval :      931.20   933.79   933.91   934.59   938.71   945.09
eigval :      950.35   959.00   973.01   987.52  1006.01  1014.84
eigval :     1027.22  1039.65  1067.83  1077.28  1079.17  1080.11
eigval :     1080.59  1085.26  1106.86  1108.18  1114.79  1115.06
eigval :     1118.55  1132.93  1137.42  1145.55  1151.31  1164.98
eigval :     1172.94  1176.36  1177.46  1177.66  1180.41  1183.86
eigval :     1184.02  1188.12  1189.98  1196.83  1197.18  1205.26
eigval :     1208.39  1252.32  1256.28  1268.45  1273.38  1274.09
eigval :     1274.78  1277.80  1281.95  1285.46  1301.79  1307.66
eigval :     1310.64  1313.02  1314.74  1316.92  1318.41  1321.44
eigval :     1331.36  1336.61  1347.10  1371.17  1382.68  1394.77
eigval :     1405.61  1409.83  1417.37  1428.02  1429.16  1430.62
eigval :     1432.66  1434.68  1449.56  1454.06  1472.01  1477.47
eigval :     1483.41  1511.82  1512.40  1528.90  1531.18  1539.83
eigval :     1554.26  1560.05  1564.66  1568.36  1580.08  1581.52
eigval :     1583.05  1587.72  1591.03  1591.61  1593.23  1596.04
eigval :     1600.60  1603.18  3069.39  3073.43  3075.52  3078.61
eigval :     3079.26  3079.54  3079.65  3080.76  3081.72  3081.90
eigval :     3082.43  3083.55  3083.87  3085.41  3085.96  3087.61
eigval :     3088.75  3092.02  3092.89  3092.92  3094.45  3095.72
eigval :     3098.00  3099.52  3099.60  3099.88  3101.53  3101.78
eigval :     3103.34  3109.09  3117.70

   temp. (K)  partition function   enthalpy   heat capacity  entropy
                                   cal/mol     cal/K/mol   cal/K/mol   J/K/mol
 298.15  VIB  0.430E+20            23810.311    148.825    150.560
         ROT  0.143E+09              888.752      2.981     40.300
         INT  0.615E+28            24699.063    151.806    190.860
         TR   0.166E+29             1481.254      4.968     45.348
         TOT                       26180.3172   156.7738   236.2081   988.2949

       T/K    H(0)-H(T)+PV         H(T)/Eh          T*S/Eh         G(T)/Eh
   ------------------------------------------------------------------------
    298.15    0.417210E-01    0.675623E+00    0.112230E+00    0.563393E+00
   ------------------------------------------------------------------------

         :::::::::::::::::::::::::::::::::::::::::::::::::::::
         ::                  THERMODYNAMIC                  ::
         :::::::::::::::::::::::::::::::::::::::::::::::::::::
         :: total free energy        -130.611435210825 Eh   ::
         ::.................................................::
         :: total energy             -131.174827826127 Eh   ::
         :: zero point energy           0.633901734276 Eh   ::
         :: G(RRHO) w/o ZPVE           -0.070509118974 Eh   ::
         :: G(RRHO) contrib.            0.563392615302 Eh   ::
         :::::::::::::::::::::::::::::::::::::::::::::::::::::

           -------------------------------------------------
          | TOTAL ENERGY             -131.174827826127 Eh   |
          | TOTAL ENTHALPY           -130.499205100812 Eh   |
          | TOTAL FREE ENERGY        -130.611435210825 Eh   |
          | GRADIENT NORM               0.000067423568 Eh/α |
          | HOMO-LUMO GAP               2.510280569376 eV   |
           -------------------------------------------------

 * finished run on 2025/07/16 at 14:49:30.919
