   * xtb version 6.7.1 (edcfbbe) compiled by 'albert@albert-system' on 2024-07-22

   ID    Z sym.   atoms
    1    6 C      1-5, 8-17, 19-32, 34-43, 45-52
    2    7 N      6, 7, 18, 33, 44
    3    1 H      53-83

          program call               : xtb data2507/toluene/TAZ-PPI/TAZ-PPI_toluene_T1_crest.xyz --gfn 2 --uhf 2 --gbsa toluene --ohess vtight --parallel 40 --molden --ceasefiles --namespace data2507/toluene/TAZ-PPI/TAZ-PPI_toluene_T1_finalOpt
      * Solvation model:               GBSA
        Solvent                        toluene
        Solvent mass                       9.2140E+01 g/mol
          :  Hamiltonian                  GFN2-xTB          :
 * total energy  :  -131.0903628 Eh     change       -0.4355030E-08 Eh
 * total energy  :  -131.0904170 Eh     change       -0.5421347E-04 Eh
 * total energy  :  -131.0904447 Eh     change       -0.2777183E-04 Eh
 * total energy  :  -131.0904537 Eh     change       -0.8933795E-05 Eh
 * total energy  :  -131.0904629 Eh     change       -0.9193531E-05 Eh
 * total energy  :  -131.0904704 Eh     change       -0.7489937E-05 Eh
 * total energy  :  -131.0904773 Eh     change       -0.6971223E-05 Eh
 * total energy  :  -131.0904827 Eh     change       -0.5410466E-05 Eh
 * total energy  :  -131.0904864 Eh     change       -0.3666034E-05 Eh
 * total energy  :  -131.0904894 Eh     change       -0.3019184E-05 Eh
 * total energy  :  -131.0905485 Eh     change       -0.3940050E-06 Eh
 * total energy  :  -131.0905488 Eh     change       -0.3289897E-06 Eh
 * total energy  :  -131.0905490 Eh     change       -0.2649521E-06 Eh
 * total energy  :  -131.0905493 Eh     change       -0.2894723E-06 Eh
 * total energy  :  -131.0905497 Eh     change       -0.3263285E-06 Eh
 * total energy  :  -131.0905499 Eh     change       -0.2583568E-06 Eh
 * total energy  :  -131.0905501 Eh     change       -0.1913828E-06 Eh
 * total energy  :  -131.0905502 Eh     change       -0.1231972E-06 Eh
 * total energy  :  -131.0905502 Eh     change       -0.2351783E-08 Eh
   *** GEOMETRY OPTIMIZATION CONVERGED AFTER 55 ITERATIONS ***

 final structure:
================
83
 xtb: 6.7.1 (edcfbbe)
C           12.09867923020317       -0.31847271818375        0.03535502731609
C           11.72884216996736        0.81805600761560        0.73905769528757
C           10.41118907249565        1.22994458983471        0.74965065592027
C            9.43840579996407        0.50438887573114        0.05704900882503
C            8.07274877434516        0.98774488535348        0.09061159162683
N            7.75240479072448        2.25882698774616        0.18927091201202
N            6.43508431950363        2.37364282816694        0.16033680283848
C            5.90233977948982        1.16452817895077        0.05675144420472
C            4.49577057588764        0.92452927018923        0.06606860628332
C            3.90307654563510       -0.30579401415442        0.41837091471423
C            2.54682471008152       -0.46290666108614        0.40634215195285
C            1.66334971433005        0.59616099778948        0.06007295350527
C            0.25246904148059        0.42117063024766        0.04318795470410
C           -0.35408565888746       -0.87106859685255        0.00230750187691
C           -1.69981308069232       -1.03379800249517       -0.01799493572120
C           -2.59802235931047        0.07956202986579        0.01201090721930
C           -3.97269219000623       -0.19999734556716        0.00302857491565
N           -4.43523442088728       -1.46228256079925        0.05233249494964
C           -5.76300795773796       -1.38743395997474        0.06003720083799
C           -6.69712220717787       -2.46221130316569        0.12552234396166
C           -6.25980492401049       -3.78841645825459        0.19358751758771
C           -7.16836994447417       -4.81888571900818        0.26689986371721
C           -8.52868486727215       -4.52550410676590        0.27467596903712
C           -8.97054837794745       -3.22107588527331        0.20722223604981
C           -8.07566619231689       -2.14457720820205        0.12785122143067
C           -8.51079156717944       -0.75964274947803        0.04474150474185
C           -9.86682784875857       -0.41750810308248        0.02569231179127
C          -10.29434527293271        0.88955937795277       -0.06362811432409
C           -9.36490951068836        1.92510510701786       -0.14633614988524
C           -8.02480683605239        1.63713087644504       -0.12851970578431
C           -7.56189830024396        0.30943447781934       -0.02745821089895
C           -6.19356319309206       -0.03636322217326        0.00159401919449
N           -5.04407677167934        0.70786129493663       -0.03341753832627
C           -4.95799765345102        2.11741664384868       -0.11598106505902
C           -5.05160449331336        2.88625193818232        1.04048123682897
C           -4.96955899807097        4.26466592997815        0.95255056627965
C           -4.79579514378932        4.87527856849599       -0.27958827157365
C           -4.70487840588570        4.10753399733228       -1.42969847405239
C           -4.78631641961895        2.72812754879167       -1.35414641863616
C           -1.99971893218381        1.37131716212558        0.06677342385443
C           -0.64960163090729        1.52638007150202        0.07378829756027
C            2.27735600337785        1.84236850418358       -0.25004601348222
C            3.63144323887813        1.99883925447453       -0.24528302189920
N            6.92420394971473        0.23223048215127        0.00638669885683
C            6.83393600032058       -1.16499261476719       -0.13505557937368
C            7.37979005105831       -1.99517744392454        0.83887617067557
C            7.30329564648726       -3.36785945783342        0.68686237318818
C            6.68456766068882       -3.91363652412912       -0.42639379499442
C            6.14114252765195       -3.08407845318211       -1.39480543124337
C            6.21533057992936       -1.71030107852792       -1.25655402092562
C            9.82217400169090       -0.62348156025397       -0.66916356758914
C           11.14371167670622       -1.02956286570438       -0.67313233087203
H           13.12859707725431       -0.64296515837842        0.03172191395190
H           12.47142440459879        1.38375536714732        1.28224655132081
H           10.10805583852207        2.11366240500565        1.29012243763957
H            4.52457889870721       -1.13021105764802        0.73430693696868
H            2.13938469506686       -1.41176959201714        0.71806513951693
H            0.27384865621566       -1.74639706350634       -0.05331123068864
H           -2.13918321802895       -2.01749415039787       -0.06754130723004
H           -5.19598499993326       -3.96985956998191        0.18829724770561
H           -6.83281452336974       -5.84374801126289        0.31901076951819
H           -9.24943309350691       -5.32816114463319        0.33425058486833
H          -10.03424457420373       -3.04628569947303        0.21749503495808
H          -10.61530450063823       -1.19107375052068        0.08029609768418
H          -11.35124155942592        1.11038991633249       -0.07409904358497
H           -9.69753682654668        2.94934480825494       -0.22436553657305
H           -7.30901223730414        2.43925926229639       -0.19651469093839
H           -5.18626722772976        2.39753444874501        1.99438127428583
H           -5.03984012881437        4.86138708038813        1.84935997197755
H           -4.73105698362857        5.95080961334115       -0.34305308860041
H           -4.57051713940688        4.58199420190829       -2.38995416233784
H           -4.71459961161967        2.11783639290026       -2.24238847255288
H           -2.62239772348632        2.24820084994467        0.12368163777430
H           -0.25157800501536        2.52624644335038        0.14888033199313
H            1.66250376095382        2.68146477137663       -0.53444720428379
H            4.08101930781597        2.94798263549115       -0.49465182945726
H            7.85865419636563       -1.55902896274317        1.70366670983507
H            7.72638412535751       -4.01095326382074        1.44362380702761
H            6.62604401563721       -4.98534790153797       -0.53991833204659
H            5.66049544212893       -3.50575206264418       -2.26462261107836
H            5.79524865581835       -1.05357274062022       -2.00476709393437
H            9.09481758250810       -1.17284980753679       -1.24785757183324
H           11.42848348936054       -1.90500212314213       -1.23829586090065

          :  Hamiltonian                  GFN2-xTB          :
         :: gradient norm              0.000137635018 Eh/a0 ::
         :: HOMO-LUMO gap              0.625427427376 eV    ::
         :: SCC energy              -133.487119160871 Eh    ::
         :: -> dispersion             -0.117767057892 Eh    ::
         :: -> Gsolv                  -0.058196571514 Eh    ::
         :: repulsion energy           2.396568924781 Eh    ::

    * Orbital Energies and Occupations

         #    Occupation            Energy/Eh            Energy/eV
      -------------------------------------------------------------
         1        2.0000           -0.6987825             -19.0148
       ...           ...                  ...                  ...
       111        2.0000           -0.4106434             -11.1742
       112        2.0000           -0.4091440             -11.1334
       113        2.0000           -0.4083470             -11.1117
       114        2.0000           -0.4065564             -11.0630
       115        2.0000           -0.4059640             -11.0468
       116        2.0000           -0.4052225             -11.0267
       117        2.0000           -0.3970282             -10.8037
       118        2.0000           -0.3896615             -10.6032
       119        2.0000           -0.3831280             -10.4254
       120        2.0000           -0.3790394             -10.3142
       121        1.9738           -0.3665294              -9.9738
       122        1.0262           -0.3596603              -9.7869
       123        1.0000           -0.2855597              -7.7705 (HOMO)
       124        0.0000           -0.2625757              -7.1450 (LUMO)
       125                         -0.2569589              -6.9922
       126                         -0.2531971              -6.8898
       127                         -0.2448804              -6.6635
       128                         -0.2423904              -6.5958
       129                         -0.2423279              -6.5941
       130                         -0.2416997              -6.5770
       131                         -0.2376147              -6.4658
       132                         -0.2295063              -6.2452
       133                         -0.2198763              -5.9831
       134                         -0.2164791              -5.8907
       ...                                ...                  ...
       239                          0.7202250              19.5983
      -------------------------------------------------------------
                  HL-Gap            0.0229840 Eh            0.6254 eV

     #   Z          covCN         q      C6AA      α(0)
     1   6 C        2.919    -0.029    28.718     8.788
     2   6 C        2.918    -0.027    28.680     8.782
     3   6 C        2.928    -0.030    28.756     8.794
     4   6 C        2.973    -0.005    28.148     8.703
     5   6 C        3.112     0.135    24.904     8.175
     6   7 N        2.056    -0.208    26.241     7.599
     7   7 N        2.062    -0.217    26.437     7.627
     8   6 C        3.103     0.134    24.954     8.185
     9   6 C        2.970    -0.015    28.393     8.740
    10   6 C        2.913    -0.039    28.979     8.827
    11   6 C        2.918    -0.037    28.926     8.820
    12   6 C        2.968     0.006    27.875     8.660
    13   6 C        2.968     0.007    27.853     8.657
    14   6 C        2.914    -0.037    28.920     8.818
    15   6 C        2.921    -0.033    28.811     8.802
    16   6 C        2.968    -0.013    28.326     8.730
    17   6 C        3.140     0.131    24.909     8.167
    18   7 N        1.887    -0.314    28.987     7.981
    19   6 C        3.168     0.080    25.880     8.312
    20   6 C        2.984    -0.005    28.147     8.703
    21   6 C        2.922    -0.027    28.676     8.782
    22   6 C        2.916    -0.031    28.763     8.795
    23   6 C        2.917    -0.028    28.704     8.786
    24   6 C        2.921    -0.034    28.841     8.807
    25   6 C        2.977    -0.000    28.034     8.685
    26   6 C        2.977     0.001    28.003     8.680
    27   6 C        2.920    -0.032    28.804     8.801
    28   6 C        2.916    -0.030    28.747     8.792
    29   6 C        2.915    -0.031    28.773     8.796
    30   6 C        2.918    -0.037    28.908     8.817
    31   6 C        2.974    -0.009    28.235     8.716
    32   6 C        3.046     0.039    27.078     8.535
    33   7 N        2.822    -0.064    22.476     7.041
    34   6 C        2.911     0.068    26.478     8.438
    35   6 C        2.920    -0.037    28.917     8.818
    36   6 C        2.919    -0.025    28.630     8.774
    37   6 C        2.919    -0.028    28.693     8.784
    38   6 C        2.920    -0.025    28.620     8.773
    39   6 C        2.920    -0.037    28.914     8.818
    40   6 C        2.910    -0.042    29.041     8.837
    41   6 C        2.915    -0.036    28.889     8.814
    42   6 C        2.917    -0.037    28.909     8.817
    43   6 C        2.920    -0.034    28.845     8.807
    44   7 N        2.823    -0.069    22.575     7.057
    45   6 C        2.911     0.065    26.553     8.450
    46   6 C        2.921    -0.039    28.974     8.827
    47   6 C        2.920    -0.026    28.643     8.776
    48   6 C        2.919    -0.029    28.737     8.791
    49   6 C        2.920    -0.026    28.646     8.777
    50   6 C        2.921    -0.038    28.954     8.824
    51   6 C        2.922    -0.035    28.882     8.813
    52   6 C        2.918    -0.029    28.728     8.789
    53   1 H        0.926     0.042     2.427     2.436
    54   1 H        0.926     0.042     2.426     2.436
    55   1 H        0.926     0.045     2.381     2.413
    56   1 H        0.926     0.023     2.695     2.567
    57   1 H        0.926     0.037     2.495     2.470
    58   1 H        0.926     0.037     2.484     2.465
    59   1 H        0.926     0.050     2.314     2.379
    60   1 H        0.926     0.049     2.331     2.388
    61   1 H        0.926     0.039     2.462     2.454
    62   1 H        0.926     0.040     2.454     2.450
    63   1 H        0.926     0.042     2.427     2.436
    64   1 H        0.926     0.043     2.411     2.428
    65   1 H        0.926     0.039     2.465     2.455
    66   1 H        0.926     0.037     2.492     2.469
    67   1 H        0.926     0.034     2.529     2.487
    68   1 H        0.926     0.042     2.425     2.435
    69   1 H        0.926     0.049     2.334     2.389
    70   1 H        0.926     0.049     2.333     2.389
    71   1 H        0.926     0.049     2.333     2.389
    72   1 H        0.926     0.041     2.431     2.438
    73   1 H        0.926     0.029     2.595     2.519
    74   1 H        0.926     0.036     2.497     2.471
    75   1 H        0.926     0.038     2.474     2.460
    76   1 H        0.926     0.043     2.405     2.425
    77   1 H        0.926     0.035     2.510     2.477
    78   1 H        0.926     0.048     2.350     2.397
    79   1 H        0.926     0.049     2.335     2.390
    80   1 H        0.926     0.048     2.347     2.396
    81   1 H        0.926     0.037     2.496     2.470
    82   1 H        0.926     0.027     2.634     2.538
    83   1 H        0.926     0.039     2.462     2.454

molecular dipole:
                 x           y           z       tot (Debye)
 q only:       -2.127      -0.860      -0.203
   full:       -2.355      -1.090      -0.258       6.628

 projected vibrational frequencies (cm⁻¹)
eigval :       -0.00    -0.00    -0.00     0.00     0.00     0.00
eigval :        6.88    11.91    13.56    21.55    22.33    27.89
eigval :       34.05    38.59    44.20    48.66    56.02    60.98
eigval :       69.17    74.01    86.76    87.06    94.95    97.48
eigval :      111.64   118.77   134.58   151.24   157.41   176.29
eigval :      208.14   217.09   223.88   237.12   238.35   242.16
eigval :      260.17   265.72   272.42   281.92   323.05   337.64
eigval :      356.09   359.11   362.61   372.34   375.74   376.69
eigval :      379.97   390.95   394.56   400.96   405.90   430.53
eigval :      432.35   437.37   444.50   455.12   469.86   474.53
eigval :      483.56   492.06   503.63   508.08   527.00   544.97
eigval :      572.92   582.27   584.83   585.61   587.87   594.18
eigval :      603.91   613.90   629.60   634.82   639.38   644.39
eigval :      654.04   659.59   661.81   666.38   671.73   674.35
eigval :      677.98   682.10   690.34   695.29   705.05   716.44
eigval :      732.05   752.65   758.49   759.64   761.89   768.93
eigval :      776.00   793.15   797.08   803.49   812.07   825.33
eigval :      857.03   868.80   871.94   872.78   874.29   896.92
eigval :      900.58   900.62   902.37   904.78   911.15   912.94
eigval :      914.12   915.27   918.62   919.63   922.76   927.75
eigval :      927.78   928.97   930.69   930.95   931.99   932.41
eigval :      940.93   943.87   946.30   971.10   983.70   991.67
eigval :     1002.30  1019.19  1027.09  1059.31  1076.22  1076.74
eigval :     1080.01  1082.08  1094.45  1100.11  1104.03  1112.10
eigval :     1115.01  1118.48  1131.85  1139.02  1148.88  1153.84
eigval :     1158.66  1161.86  1175.72  1176.22  1178.00  1179.67
eigval :     1182.04  1185.08  1189.59  1196.75  1199.16  1205.16
eigval :     1212.37  1244.45  1245.93  1252.35  1260.37  1271.08
eigval :     1271.63  1274.47  1277.15  1279.62  1282.83  1295.20
eigval :     1299.43  1304.36  1304.84  1312.02  1320.11  1324.48
eigval :     1332.09  1336.01  1337.74  1352.79  1372.67  1379.42
eigval :     1391.77  1395.54  1409.09  1421.61  1424.78  1429.19
eigval :     1431.43  1432.22  1437.81  1440.82  1443.53  1455.05
eigval :     1462.95  1471.59  1475.13  1484.99  1490.88  1499.31
eigval :     1506.36  1519.88  1539.98  1545.41  1565.41  1572.34
eigval :     1576.99  1577.21  1578.08  1583.48  1585.31  1588.15
eigval :     1588.68  1591.49  3075.20  3075.22  3078.58  3079.10
eigval :     3080.02  3081.12  3082.90  3083.14  3084.94  3086.40
eigval :     3087.65  3088.17  3088.77  3089.05  3089.77  3091.42
eigval :     3092.88  3094.14  3094.30  3094.97  3100.04  3100.49
eigval :     3100.83  3102.02  3102.38  3102.96  3103.62  3108.97
eigval :     3112.38  3130.19  3131.00

   temp. (K)  partition function   enthalpy   heat capacity  entropy
                                   cal/mol     cal/K/mol   cal/K/mol   J/K/mol
 298.15  VIB  0.746E+20            24180.682    150.653    152.391
         ROT  0.149E+09              888.752      2.981     40.377
         INT  0.111E+29            25069.435    153.634    192.768
         TR   0.166E+29             1481.254      4.968     45.348
         TOT                       26550.6884   158.6017   238.1159   996.2769

       T/K    H(0)-H(T)+PV         H(T)/Eh          T*S/Eh         G(T)/Eh
   ------------------------------------------------------------------------
    298.15    0.423112E-01    0.671895E+00    0.113137E+00    0.558759E+00
   ------------------------------------------------------------------------

         :::::::::::::::::::::::::::::::::::::::::::::::::::::
         ::                  THERMODYNAMIC                  ::
         :::::::::::::::::::::::::::::::::::::::::::::::::::::
         :: total free energy        -130.531791488601 Eh   ::
         ::.................................................::
         :: total energy             -131.090550238822 Eh   ::
         :: zero point energy           0.629584083350 Eh   ::
         :: G(RRHO) w/o ZPVE           -0.070825333129 Eh   ::
         :: G(RRHO) contrib.            0.558758750221 Eh   ::
         :::::::::::::::::::::::::::::::::::::::::::::::::::::

           -------------------------------------------------
          | TOTAL ENERGY             -131.090550238822 Eh   |
          | TOTAL ENTHALPY           -130.418654940231 Eh   |
          | TOTAL FREE ENERGY        -130.531791488601 Eh   |
          | GRADIENT NORM               0.000136733491 Eh/α |
          | HOMO-LUMO GAP               0.625426557972 eV   |
           -------------------------------------------------

 * finished run on 2025/07/16 at 14:55:13.024
