   * xtb version 6.7.1 (edcfbbe) compiled by 'albert@albert-system' on 2024-07-22

   ID    Z sym.   atoms
    1    6 C      1-5, 8-17, 19-32, 34-43, 45-52
    2    7 N      6, 7, 18, 33, 44
    3    1 H      53-83

          program call               : xtb data2507/toluene/TAZ-PPI/TAZ-PPI.xyz --gfn 2 --gbsa toluene --ohess vtight --parallel 40 --molden --ceasefiles --namespace data2507/toluene/TAZ-PPI/TAZ-PPI_toluene_S0_preOpt
      * Solvation model:               GBSA
        Solvent                        toluene
        Solvent mass                       9.2140E+01 g/mol
          :  Hamiltonian                  GFN2-xTB          :
 * total energy  :  -131.1520946 Eh     change       -0.2698954E-08 Eh
 * total energy  :  -131.1642979 Eh     change       -0.1220328E-01 Eh
 * total energy  :  -131.1675927 Eh     change       -0.3294754E-02 Eh
 * total energy  :  -131.1688583 Eh     change       -0.1265590E-02 Eh
 * total energy  :  -131.1699125 Eh     change       -0.1054189E-02 Eh
 * total energy  :  -131.1705609 Eh     change       -0.6484441E-03 Eh
 * total energy  :  -131.1711540 Eh     change       -0.5930734E-03 Eh
 * total energy  :  -131.1716510 Eh     change       -0.4970739E-03 Eh
 * total energy  :  -131.1720761 Eh     change       -0.4250482E-03 Eh
 * total energy  :  -131.1724320 Eh     change       -0.3558848E-03 Eh
 * total energy  :  -131.1748916 Eh     change       -0.3578974E-06 Eh
 * total energy  :  -131.1748919 Eh     change       -0.3537702E-06 Eh
 * total energy  :  -131.1748922 Eh     change       -0.2631435E-06 Eh
 * total energy  :  -131.1748924 Eh     change       -0.2073278E-06 Eh
 * total energy  :  -131.1748926 Eh     change       -0.1737137E-06 Eh
 * total energy  :  -131.1748927 Eh     change       -0.1443435E-06 Eh
 * total energy  :  -131.1748929 Eh     change       -0.1559588E-06 Eh
 * total energy  :  -131.1748930 Eh     change       -0.1251040E-06 Eh
 * total energy  :  -131.1748931 Eh     change       -0.7570819E-07 Eh
   *** GEOMETRY OPTIMIZATION CONVERGED AFTER 121 ITERATIONS ***

 final structure:
================
83
 xtb: 6.7.1 (edcfbbe)
C           11.94551254307944        0.06864401779411       -0.32168605946300
C           11.65979734536852        0.86892933488796        0.77360078564890
C           10.35567693010559        1.23851837177884        1.04154783207436
C            9.31898610066153        0.80552149785234        0.21524687593166
C            7.96371733339242        1.23243767077791        0.52155581474729
N            7.65556632987232        2.40128854153981        1.02352999131388
N            6.32576008936558        2.47569207684070        1.13887710265429
C            5.80964144606857        1.35034809152856        0.71384227143350
C            4.38911922355761        1.04885198961417        0.70745129997829
C            3.89603686168490       -0.22555430257841        0.98199164591849
C            2.53690846644119       -0.46592631260188        0.95735754531869
C            1.63303979083765        0.55628177482319        0.67196132310910
C            0.18843096559075        0.29471858865818        0.61944878865798
C           -0.30504634840424       -0.87060501950303        0.03230562351205
C           -1.66230537708050       -1.09602354822049       -0.05368475589561
C           -2.57247307040525       -0.16216745659504        0.44474418440026
C           -3.99180503642213       -0.44577545377802        0.30458160695709
N           -4.49008477588628       -1.65677080922156        0.37812517001917
C           -5.82902388941945       -1.52254573189085        0.18502471044300
C           -6.82029205325165       -2.54375793392172        0.20356546914823
C           -6.48600394588178       -3.87639313416280        0.46939607022515
C           -7.46031253030772       -4.84264491075341        0.50854007855167
C           -8.78810738717124       -4.48426071996855        0.28241278475130
C           -9.12782896910225       -3.17821904973768        0.01585431124520
C           -8.16027588439618       -2.16252243639837       -0.03853020372208
C           -8.48493485415090       -0.77892442930413       -0.34266064427543
C           -9.79286839692732       -0.38347160064347       -0.65942144819233
C          -10.10518925314355        0.91600707862383       -0.98296554660360
C           -9.10764784230170        1.88545367118654       -1.01842382315006
C           -7.81468402198409        1.54108665123728       -0.70919235038977
C           -7.47865828609641        0.22657539460095       -0.35364139604307
C           -6.15391745875130       -0.18428826764066       -0.03107857240691
N           -4.96273269155839        0.50038680932373        0.06376104886454
C           -4.73121961427893        1.88861924871070       -0.05826717469553
C           -5.22879063779288        2.76376496579990        0.90309736486319
C           -4.97186356982775        4.11834874496180        0.79351495255045
C           -4.21820185343361        4.60131981985247       -0.26478924053525
C           -3.72147763883275        3.72783636374580       -1.21811373802805
C           -3.97486039030670        2.37080708773685       -1.11949894241265
C           -2.08202230963575        0.98340905994380        1.06974459677219
C           -0.72239042941403        1.20834357747733        1.14727866180427
C            2.13133585310762        1.83678620408314        0.42936716104455
C            3.48814075180069        2.08153062413840        0.44722540571956
N            6.81571629168690        0.50750645094561        0.30215162917501
C            6.69647046217004       -0.79361936969072       -0.22374305022521
C            7.37316395288686       -1.84739159630821        0.38067001265626
C            7.25790216299477       -3.12209506418718       -0.14398187699481
C            6.46834306957703       -3.34845212050771       -1.25986489224424
C            5.79233138752727       -2.29644504874500       -1.85667017832157
C            5.90415477210023       -1.01632800836410       -1.34475394832560
C            9.61435150063444        0.01872789830134       -0.89617566595145
C           10.92219827277047       -0.34760314221858       -1.15723052815752
H           12.96450080830281       -0.22297894585689       -0.52832704584375
H           12.45620232355869        1.20514772642634        1.42094582034882
H           10.11632815767642        1.86547852492612        1.88695883561008
H            4.57336956491689       -1.02919612162980        1.23165602001574
H            2.16930606701729       -1.45512721727327        1.18617371641249
H            0.38302922318931       -1.59144564895184       -0.38378701953272
H           -2.04524892970086       -1.99303479602437       -0.51593862307242
H           -5.44716908474116       -4.11034759014378        0.64665620514155
H           -7.20526624776942       -5.87161782181255        0.71595868935946
H           -9.55994739075491       -5.23976435585901        0.31767706682825
H          -10.16844967187008       -2.94810205173919       -0.14855516003837
H          -10.58716979941567       -1.11221194240503       -0.66167387584032
H          -11.12485257586190        1.18121849375572       -1.22140031484156
H           -9.34602328632412        2.90280771087256       -1.29175469888694
H           -7.04184417624838        2.29142357255072       -0.75369906527605
H           -5.81405902632942        2.37525129832593        1.72423816584078
H           -5.35905807438139        4.79614695644848        1.53931765165590
H           -4.01823807278097        5.65899311498992       -0.34503460644941
H           -3.13469380250354        4.10135777008433       -2.04357103802825
H           -3.59022583039072        1.68096300058163       -1.85620110727857
H           -2.76071754292354        1.69488888852107        1.51430189287429
H           -0.36004472079895        2.09530771210648        1.64552593567421
H            1.44741756381235        2.64071439306399        0.20152795826976
H            3.87542673076716        3.07041746224656        0.25468765204209
H            7.98383901560560       -1.66007378848097        1.25204131568824
H            7.78497042795628       -3.93936022344390        0.32440162368974
H            6.37990070480403       -4.34493631091964       -1.66473972153429
H            5.17749903690148       -2.46913264642952       -2.72689958840942
H            5.38430583993320       -0.18841449433582       -1.80474767279261
H            8.82796946594640       -0.29262669898235       -1.56800595093295
H           11.14165891525433       -0.95770611041824       -2.02113314415197

          :  Hamiltonian                  GFN2-xTB          :
         :: gradient norm              0.000060579696 Eh/a0 ::
         :: HOMO-LUMO gap              2.518640112185 eV    ::
         :: SCC energy              -133.590632490877 Eh    ::
         :: -> dispersion             -0.118284814543 Eh    ::
         :: -> Gsolv                  -0.058444690607 Eh    ::
         :: repulsion energy           2.415739426198 Eh    ::

    * Orbital Energies and Occupations

         #    Occupation            Energy/Eh            Energy/eV
      -------------------------------------------------------------
         1        2.0000           -0.7035620             -19.1449
       ...           ...                  ...                  ...
       110        2.0000           -0.4151884             -11.2979
       111        2.0000           -0.4144475             -11.2777
       112        2.0000           -0.4128115             -11.2332
       113        2.0000           -0.4113190             -11.1926
       114        2.0000           -0.4085652             -11.1176
       115        2.0000           -0.4063767             -11.0581
       116        2.0000           -0.4025255             -10.9533
       117        2.0000           -0.3990379             -10.8584
       118        2.0000           -0.3854930             -10.4898
       119        2.0000           -0.3835323             -10.4364
       120        2.0000           -0.3806936             -10.3592
       121        2.0000           -0.3688356             -10.0365
       122        2.0000           -0.3654479              -9.9443 (HOMO)
       123                         -0.2728895              -7.4257 (LUMO)
       124                         -0.2600142              -7.0753
       125                         -0.2522484              -6.8640
       126                         -0.2499677              -6.8020
       127                         -0.2445428              -6.6543
       128                         -0.2435996              -6.6287
       129                         -0.2410301              -6.5588
       130                         -0.2405242              -6.5450
       131                         -0.2349124              -6.3923
       132                         -0.2321127              -6.3161
       133                         -0.2314526              -6.2981
       ...                                ...                  ...
       239                          0.7242091              19.7067
      -------------------------------------------------------------
                  HL-Gap            0.0925583 Eh            2.5186 eV

     #   Z          covCN         q      C6AA      α(0)
     1   6 C        2.919    -0.028    28.689     8.784
     2   6 C        2.918    -0.027    28.666     8.780
     3   6 C        2.927    -0.029    28.733     8.791
     4   6 C        2.974    -0.004    28.124     8.699
     5   6 C        3.127     0.137    24.844     8.161
     6   7 N        2.064    -0.220    26.508     7.637
     7   7 N        2.064    -0.220    26.507     7.637
     8   6 C        3.127     0.137    24.843     8.161
     9   6 C        2.974    -0.006    28.172     8.706
    10   6 C        2.920    -0.034    28.849     8.808
    11   6 C        2.923    -0.034    28.836     8.806
    12   6 C        2.976     0.014    27.697     8.633
    13   6 C        2.976     0.012    27.737     8.639
    14   6 C        2.923    -0.033    28.811     8.802
    15   6 C        2.926    -0.029    28.727     8.790
    16   6 C        2.974    -0.002    28.080     8.692
    17   6 C        3.191     0.135    24.604     8.090
    18   7 N        1.894    -0.318    29.084     7.995
    19   6 C        3.204     0.060    26.095     8.321
    20   6 C        2.985    -0.003    28.094     8.695
    21   6 C        2.921    -0.034    28.835     8.806
    22   6 C        2.917    -0.032    28.794     8.799
    23   6 C        2.917    -0.034    28.853     8.808
    24   6 C        2.921    -0.036    28.907     8.817
    25   6 C        2.979    -0.005    28.137     8.701
    26   6 C        2.979    -0.001    28.057     8.689
    27   6 C        2.922    -0.035    28.873     8.812
    28   6 C        2.916    -0.034    28.846     8.807
    29   6 C        2.917    -0.032    28.808     8.802
    30   6 C        2.919    -0.041    29.027     8.835
    31   6 C        2.978    -0.005    28.143     8.702
    32   6 C        3.074     0.022    27.441     8.589
    33   7 N        2.840    -0.054    22.278     7.010
    34   6 C        2.912     0.066    26.514     8.444
    35   6 C        2.921    -0.037    28.917     8.818
    36   6 C        2.920    -0.026    28.651     8.778
    37   6 C        2.919    -0.028    28.707     8.786
    38   6 C        2.920    -0.025    28.624     8.774
    39   6 C        2.921    -0.038    28.942     8.822
    40   6 C        2.920    -0.036    28.885     8.813
    41   6 C        2.924    -0.034    28.837     8.806
    42   6 C        2.923    -0.032    28.794     8.800
    43   6 C        2.925    -0.030    28.746     8.793
    44   7 N        2.829    -0.062    22.434     7.035
    45   6 C        2.912     0.063    26.588     8.455
    46   6 C        2.921    -0.038    28.954     8.824
    47   6 C        2.920    -0.025    28.626     8.774
    48   6 C        2.919    -0.028    28.702     8.785
    49   6 C        2.920    -0.025    28.628     8.774
    50   6 C        2.921    -0.039    28.958     8.825
    51   6 C        2.922    -0.034    28.847     8.808
    52   6 C        2.919    -0.029    28.718     8.788
    53   1 H        0.926     0.043     2.410     2.428
    54   1 H        0.926     0.043     2.410     2.428
    55   1 H        0.926     0.045     2.381     2.413
    56   1 H        0.926     0.029     2.606     2.525
    57   1 H        0.926     0.043     2.406     2.426
    58   1 H        0.926     0.044     2.398     2.422
    59   1 H        0.926     0.047     2.356     2.400
    60   1 H        0.926     0.043     2.405     2.425
    61   1 H        0.926     0.032     2.551     2.498
    62   1 H        0.926     0.032     2.559     2.501
    63   1 H        0.926     0.035     2.521     2.483
    64   1 H        0.926     0.037     2.488     2.467
    65   1 H        0.926     0.033     2.547     2.496
    66   1 H        0.926     0.032     2.559     2.501
    67   1 H        0.926     0.030     2.592     2.517
    68   1 H        0.926     0.042     2.428     2.437
    69   1 H        0.926     0.048     2.347     2.396
    70   1 H        0.926     0.048     2.342     2.393
    71   1 H        0.926     0.048     2.349     2.397
    72   1 H        0.926     0.038     2.471     2.458
    73   1 H        0.926     0.032     2.560     2.502
    74   1 H        0.926     0.042     2.420     2.433
    75   1 H        0.926     0.045     2.378     2.411
    76   1 H        0.926     0.047     2.364     2.404
    77   1 H        0.926     0.037     2.490     2.467
    78   1 H        0.926     0.049     2.328     2.386
    79   1 H        0.926     0.051     2.312     2.378
    80   1 H        0.926     0.049     2.326     2.385
    81   1 H        0.926     0.037     2.486     2.466
    82   1 H        0.926     0.027     2.626     2.534
    83   1 H        0.926     0.040     2.444     2.445

molecular dipole:
                 x           y           z       tot (Debye)
 q only:        0.190      -0.457      -0.901
   full:       -0.038      -0.672      -1.163       3.415

 projected vibrational frequencies (cm⁻¹)
eigval :       -0.00    -0.00    -0.00    -0.00     0.00     0.00
eigval :       11.41    12.18    15.85    25.16    29.02    35.01
eigval :       36.21    41.93    50.23    51.76    62.13    68.19
eigval :       74.03    79.21    83.16    92.00    93.97   105.67
eigval :      111.60   117.25   133.12   148.61   165.66   188.24
eigval :      206.22   216.81   233.98   236.71   239.88   256.10
eigval :      262.02   270.55   271.55   309.42   340.24   341.72
eigval :      351.13   356.79   371.61   372.79   377.79   378.71
eigval :      382.87   399.41   401.20   418.79   424.75   437.61
eigval :      438.58   448.98   459.92   475.75   480.37   488.02
eigval :      498.36   511.54   522.26   536.18   538.29   545.87
eigval :      575.65   584.82   585.86   588.20   593.11   600.84
eigval :      608.09   632.33   640.59   649.41   654.10   658.79
eigval :      664.14   668.54   677.27   678.72   682.36   685.83
eigval :      690.06   699.20   702.24   708.61   716.48   726.96
eigval :      735.22   761.13   762.12   764.29   766.47   774.49
eigval :      781.24   804.84   809.35   834.35   860.92   869.58
eigval :      872.13   873.67   874.64   875.43   877.09   899.42
eigval :      902.79   903.53   906.80   912.47   916.71   922.09
eigval :      923.94   925.79   926.44   927.04   928.45   931.72
eigval :      932.16   932.28   932.86   934.69   938.83   945.12
eigval :      950.57   959.18   973.15   987.66  1006.10  1014.97
eigval :     1027.15  1039.67  1067.91  1077.55  1078.19  1079.88
eigval :     1080.50  1084.86  1106.61  1108.24  1114.34  1115.80
eigval :     1118.01  1132.77  1136.33  1144.48  1151.32  1164.71
eigval :     1173.03  1177.33  1177.64  1177.86  1180.04  1183.66
eigval :     1184.57  1188.09  1190.48  1195.84  1196.38  1204.01
eigval :     1207.85  1252.24  1255.54  1267.32  1272.14  1273.30
eigval :     1274.42  1277.76  1281.54  1284.94  1301.34  1307.80
eigval :     1310.79  1312.94  1315.28  1316.55  1318.78  1321.43
eigval :     1330.94  1336.77  1346.85  1371.31  1382.67  1394.75
eigval :     1405.68  1409.64  1417.12  1428.02  1429.21  1430.74
eigval :     1432.88  1434.81  1449.64  1454.04  1472.14  1477.50
eigval :     1483.65  1512.30  1512.99  1528.19  1531.18  1540.90
eigval :     1554.60  1560.44  1564.97  1568.86  1580.24  1581.56
eigval :     1583.07  1588.05  1591.24  1591.63  1593.18  1596.17
eigval :     1600.66  1603.24  3069.22  3073.43  3075.20  3078.22
eigval :     3078.76  3079.54  3080.56  3080.72  3081.71  3081.98
eigval :     3083.00  3083.54  3083.72  3085.87  3085.95  3088.46
eigval :     3089.28  3091.04  3092.76  3093.41  3094.38  3095.77
eigval :     3097.94  3097.98  3099.43  3099.67  3100.48  3101.99
eigval :     3103.73  3108.98  3116.81

   temp. (K)  partition function   enthalpy   heat capacity  entropy
                                   cal/mol     cal/K/mol   cal/K/mol   J/K/mol
 298.15  VIB  0.720E+19            23730.730    149.174    148.853
         ROT  0.142E+09              888.752      2.981     40.288
         INT  0.102E+28            24619.483    152.155    189.141
         TR   0.166E+29             1481.254      4.968     45.348
         TOT                       26100.7367   157.1234   234.4889   981.1016

       T/K    H(0)-H(T)+PV         H(T)/Eh          T*S/Eh         G(T)/Eh
   ------------------------------------------------------------------------
    298.15    0.415942E-01    0.675592E+00    0.111413E+00    0.564179E+00
   ------------------------------------------------------------------------

         :::::::::::::::::::::::::::::::::::::::::::::::::::::
         ::                  THERMODYNAMIC                  ::
         :::::::::::::::::::::::::::::::::::::::::::::::::::::
         :: total free energy        -130.610714200955 Eh   ::
         ::.................................................::
         :: total energy             -131.174893061721 Eh   ::
         :: zero point energy           0.633997941935 Eh   ::
         :: G(RRHO) w/o ZPVE           -0.069819081169 Eh   ::
         :: G(RRHO) contrib.            0.564178860766 Eh   ::
         :::::::::::::::::::::::::::::::::::::::::::::::::::::

           -------------------------------------------------
          | TOTAL ENERGY             -131.174893061721 Eh   |
          | TOTAL ENTHALPY           -130.499300948241 Eh   |
          | TOTAL FREE ENERGY        -130.610714200955 Eh   |
          | GRADIENT NORM               0.000060569515 Eh/α |
          | HOMO-LUMO GAP               2.518640331155 eV   |
           -------------------------------------------------

 * finished run on 2025/07/16 at 14:45:37.153
