   * xtb version 6.7.1 (edcfbbe) compiled by 'albert@albert-system' on 2024-07-22

   ID    Z sym.   atoms
    1    6 C      1-20, 22-25, 27-30, 32-55
    2    7 N      21, 26, 31
    3    1 H      56-110

          program call               : xtb data2507/toluene/tBuCz2/tBuCz2_toluene_T1_crest.xyz --gfn 2 --uhf 2 --gbsa toluene --ohess vtight --parallel 40 --molden --ceasefiles --namespace data2507/toluene/tBuCz2/tBuCz2_toluene_T1_finalOpt
      * Solvation model:               GBSA
        Solvent                        toluene
        Solvent mass                       9.2140E+01 g/mol
          :  Hamiltonian                  GFN2-xTB          :
 * total energy  :  -148.3090451 Eh     change       -0.2284222E-07 Eh
 * total energy  :  -148.3090842 Eh     change       -0.3904516E-04 Eh
 * total energy  :  -148.3091005 Eh     change       -0.1633672E-04 Eh
 * total energy  :  -148.3091045 Eh     change       -0.3937912E-05 Eh
 * total energy  :  -148.3091069 Eh     change       -0.2460188E-05 Eh
 * total energy  :  -148.3091091 Eh     change       -0.2144346E-05 Eh
 * total energy  :  -148.3091112 Eh     change       -0.2099509E-05 Eh
 * total energy  :  -148.3091132 Eh     change       -0.2045313E-05 Eh
 * total energy  :  -148.3091154 Eh     change       -0.2133818E-05 Eh
 * total energy  :  -148.3091176 Eh     change       -0.2276943E-05 Eh
 * total energy  :  -148.3091528 Eh     change       -0.7150106E-06 Eh
 * total energy  :  -148.3091530 Eh     change       -0.1671611E-06 Eh
 * total energy  :  -148.3091535 Eh     change       -0.5211367E-06 Eh
 * total energy  :  -148.3091536 Eh     change       -0.1285329E-06 Eh
 * total energy  :  -148.3091538 Eh     change       -0.1628320E-06 Eh
 * total energy  :  -148.3091540 Eh     change       -0.1587990E-06 Eh
 * total energy  :  -148.3091542 Eh     change       -0.1993406E-06 Eh
 * total energy  :  -148.3091543 Eh     change       -0.1474153E-06 Eh
 * total energy  :  -148.3091544 Eh     change       -0.9928098E-07 Eh
   *** GEOMETRY OPTIMIZATION CONVERGED AFTER 51 ITERATIONS ***

 final structure:
================
110
 xtb: 6.7.1 (edcfbbe)
C            3.50806184814919        5.42566287279638        0.64978266292153
C            4.71434039301595        4.82763814550389       -0.09032446271018
C            5.97888430055171        5.18540343744820        0.69675802270059
C            4.82975927634969        5.45543711650256       -1.48779961377666
C            4.51622357543735        3.32545203460404       -0.23263597398841
C            3.39463215111733        2.85362331936845       -0.92612267435327
C            3.13171863013688        1.50426245357061       -1.09863396964671
C            4.01385953407356        0.59225682217936       -0.54264622471654
C            5.17114172252086        1.04147293729308        0.13521488808155
C            5.41315997355392        2.40144935782199        0.28949416385491
C            5.89660798067260       -0.13422164493457        0.52666619513707
C            7.07981371044477       -0.32951998271162        1.22934688625493
C            7.52355350871015       -1.62051863701913        1.48866319577957
C            8.81215463499315       -1.90490497807067        2.24671593098064
C            9.74462571059994       -2.74395966044817        1.35973514500286
C            8.47909074993010       -2.68053221440069        3.53040675164880
C            9.55876405714623       -0.62747680553222        2.64357226137705
C            6.74519887613881       -2.69839275704561        1.04796460147934
C            5.56243382093139       -2.53231080894417        0.34577174747246
C            5.14860360758515       -1.24121127639525        0.06199617805728
N            4.01274320163785       -0.78970921079786       -0.58330271954514
C            3.03424597630337       -1.58566940531066       -1.17896007576743
C            3.42342828620520       -2.64639548100679       -2.00574501261486
C            2.46401902358988       -3.45791941614798       -2.62253190587514
C            1.13404188460388       -3.18233706592837       -2.38435590514848
N            0.01147453698230       -3.80963323597682       -2.85929013122555
C           -1.11419395359577       -3.19298169222157       -2.37765407251543
C           -2.44280641570961       -3.48159556240150       -2.60766641502335
C           -3.40630193211535       -2.67810596086308       -1.98665475560611
C           -3.02224269382020       -1.61142737912418       -1.16531631053135
N           -4.00480596256947       -0.82072402487807       -0.56897972333163
C           -4.01970466720203        0.56138340660083       -0.54074867958736
C           -3.14935255702359        1.47682594932907       -1.10949377620312
C           -3.42628221050093        2.82494182534104       -0.95042178648043
C           -4.55033877334626        3.29198077424327       -0.25765374094128
C           -4.76562159735806        4.79341424426447       -0.13303803641287
C           -4.89444463990129        5.40188732319287       -1.53792742767544
C           -3.56361810353476        5.41550694445468        0.59403341901066
C           -6.03107496987621        5.14607866639556        0.65488903949387
C           -5.43463156409655        2.36396891760447        0.27874670383776
C           -5.17860682757950        1.00512351529596        0.13788338384366
C           -5.89028014783071       -0.17433626856441        0.54336668871508
C           -7.06879757857249       -0.37549572963240        1.25216606557259
C           -7.49879548294127       -1.66860600283021        1.52379266732588
C           -8.78187908958902       -1.95928653767679        2.28880263511527
C           -8.43678649654416       -2.72129457038129        3.57744977320243
C           -9.70927639518547       -2.81437934315679        1.41187804389125
C           -9.53945232974986       -0.68599065208775        2.67808015669074
C           -6.71164087046674       -2.74243747604575        1.08883320324821
C           -5.53332866126349       -2.57058220396012        0.38068841862856
C           -5.13324771894076       -1.27780163314610        0.08499405775654
C           -1.67725009183559       -1.31562921449019       -0.92687901519825
C           -0.70177420650728       -2.11434741282570       -1.53685467509397
C            0.71638838323425       -2.10802058806553       -1.54055211702600
C            1.68778534486594       -1.30226051908117       -0.93340757616837
H            3.40499647175583        4.96819988285284        1.63201233449762
H            2.58458151755365        5.26362695969534        0.10085081605774
H            3.64319160583245        6.49745488256132        0.78029986321346
H            5.94014489083692        4.77942448923243        1.70513683016044
H            6.06309742259458        6.26777852091655        0.77340359721417
H            6.87028820254229        4.81475770863839        0.19562752995135
H            5.66757299866530        5.01866594455292       -2.02805255093645
H            3.92772344382812        5.29407853301093       -2.07147479950497
H            4.99393825637519        6.52780391678234       -1.40345599106798
H            2.69954023426404        3.55833639723210       -1.35561885309917
H            2.26844919459648        1.18198263521740       -1.66076078500491
H            6.30244225574645        2.71180064143101        0.81142018594629
H            7.62859173240200        0.53352248296510        1.56644956271739
H            9.29527438073551       -3.69875843758197        1.10129384352307
H           10.68046018476669       -2.93822072674562        1.87986784059872
H            9.96619346292875       -2.21053231797294        0.43720031329100
H            8.00812605832019       -3.63398540203858        3.30747684106225
H            7.79897832901509       -2.10221312676959        4.15301057141143
H            9.38769407463407       -2.87330488863047        4.09727306790352
H            9.83079931691982       -0.04481954811292        1.76625659291331
H           10.47464468963264       -0.89199290492407        3.16864684565252
H            8.95697415066718       -0.01275514118658        3.30918139733891
H            7.06357860203270       -3.70690445278711        1.26195609879017
H            4.97990739882491       -3.38889034804336        0.04264857485993
H            4.47037412456856       -2.80485358384182       -2.20781946650827
H            2.76651223764536       -4.25789132647474       -3.28105935927960
H            0.01340172750836       -4.61561019322463       -3.46360859639875
H           -2.74148659220952       -4.28531453074230       -3.26336633150205
H           -4.45293342865421       -2.84701599683697       -2.18190228514760
H           -2.28483943806110        1.15771617784992       -1.67153535163938
H           -2.74072427389792        3.53250800732781       -1.39042281585612
H           -3.99211063867939        5.24586130472244       -2.12260121136725
H           -5.07334007680601        6.47282696680178       -1.46650683486366
H           -5.72776013706102        4.94666660684305       -2.06987032664781
H           -2.64024193315940        5.25578168981695        0.04425635418769
H           -3.71034157414586        6.48752980848410        0.70932762620345
H           -3.45206364958074        4.97373138118959        1.58248227914994
H           -5.98349572824786        4.75315784109058        1.66804624046501
H           -6.12765163367501        6.22826922328374        0.71849290205932
H           -6.92013178262279        4.75890032037504        0.16215411485998
H           -6.32508321898456        2.67029979434068        0.80107064787687
H           -7.62490324558017        0.48485040388786        1.58413491083283
H           -7.95811809504556       -3.67225750988783        3.36039228966451
H           -9.34138168180370       -2.91758533403191        4.14949539167596
H           -7.75949376222575       -2.13175970628324        4.19258123116597
H           -9.25179303703895       -3.76705892276529        1.15996292769880
H          -10.64159682041947       -3.01304647024930        1.93664071816061
H           -9.93873223732451       -2.29077830898043        0.48565275172396
H          -10.45098433717792       -0.95513770854694        3.20835036321362
H           -9.82001106349113       -0.11295674622551        1.79712033127673
H           -8.94144609735354       -0.06020583358099        3.33674731412351
H           -7.01938976651285       -3.75221178718044        1.31223363409874
H           -4.94379759591910       -3.42377326705253        0.08150607732337
H           -1.40262214408489       -0.52507803698918       -0.24744035106379
H            1.40940241424469       -0.51665445402991       -0.24979930986000

          :  Hamiltonian                  GFN2-xTB          :
         :: gradient norm              0.000044842396 Eh/a0 ::
         :: HOMO-LUMO gap              0.057412210452 eV    ::
         :: SCC energy              -150.883899311722 Eh    ::
         :: -> dispersion             -0.137899888746 Eh    ::
         :: -> Gsolv                  -0.056708894660 Eh    ::
         :: repulsion energy           2.574744900641 Eh    ::

    * Orbital Energies and Occupations

         #    Occupation            Energy/Eh            Energy/eV
      -------------------------------------------------------------
         1        2.0000           -0.6737990             -18.3350
       ...           ...                  ...                  ...
       128        2.0000           -0.4073950             -11.0858
       129        2.0000           -0.4058099             -11.0427
       130        2.0000           -0.4056580             -11.0385
       131        2.0000           -0.4008917             -10.9088
       132        2.0000           -0.3955291             -10.7629
       133        2.0000           -0.3955028             -10.7622
       134        2.0000           -0.3751158             -10.2074
       135        2.0000           -0.3717378             -10.1155
       136        2.0000           -0.3717216             -10.1151
       137        2.0000           -0.3710862             -10.0978
       138        1.9799           -0.3549479              -9.6586
       139        1.0201           -0.3475642              -9.4577
       140        0.6937           -0.2432404              -6.6189 (HOMO)
       141        0.1973           -0.2411304              -6.5615 (LUMO)
       142        0.1090           -0.2404679              -6.5435
       143                         -0.2226044              -6.0574
       144                         -0.2175019              -5.9185
       145                         -0.2174959              -5.9184
       146                         -0.2053814              -5.5887
       147                         -0.1923412              -5.2339
       148                         -0.1828052              -4.9744
       149                         -0.1828006              -4.9743
       150                         -0.1778562              -4.8397
       151                         -0.1754728              -4.7749
       ...                                ...                  ...
       275                          0.7518160              20.4580
      -------------------------------------------------------------
                  HL-Gap            0.0021100 Eh            0.0574 eV

     #   Z          covCN         q      C6AA      α(0)
     1   6 C        3.761    -0.105    22.547     6.769
     2   6 C        3.902     0.025    20.093     6.372
     3   6 C        3.761    -0.107    22.591     6.776
     4   6 C        3.761    -0.105    22.547     6.769
     5   6 C        2.971     0.004    27.923     8.668
     6   6 C        2.929    -0.046    29.132     8.852
     7   6 C        2.907    -0.050    29.244     8.867
     8   6 C        3.074     0.044    26.947     8.511
     9   6 C        3.063    -0.020    28.451     8.747
    10   6 C        2.916    -0.047    29.177     8.858
    11   6 C        3.063    -0.020    28.452     8.747
    12   6 C        2.916    -0.047    29.179     8.858
    13   6 C        2.971     0.004    27.926     8.668
    14   6 C        3.902     0.025    20.094     6.372
    15   6 C        3.761    -0.105    22.548     6.769
    16   6 C        3.761    -0.105    22.546     6.769
    17   6 C        3.761    -0.107    22.591     6.776
    18   6 C        2.929    -0.046    29.138     8.853
    19   6 C        2.907    -0.051    29.256     8.869
    20   6 C        3.074     0.043    26.952     8.512
    21   7 N        2.802    -0.022    21.677     6.915
    22   6 C        2.908     0.057    26.715     8.475
    23   6 C        2.922    -0.072    29.790     8.950
    24   6 C        2.906    -0.065    29.620     8.924
    25   6 C        3.056     0.049    26.839     8.496
    26   7 N        2.758    -0.104    23.277     7.166
    27   6 C        3.056     0.049    26.839     8.496
    28   6 C        2.906    -0.065    29.620     8.924
    29   6 C        2.922    -0.072    29.789     8.950
    30   6 C        2.908     0.057    26.716     8.475
    31   7 N        2.802    -0.023    21.681     6.916
    32   6 C        3.074     0.044    26.945     8.511
    33   6 C        2.907    -0.050    29.244     8.867
    34   6 C        2.929    -0.046    29.131     8.851
    35   6 C        2.971     0.004    27.924     8.668
    36   6 C        3.902     0.025    20.093     6.372
    37   6 C        3.761    -0.105    22.547     6.769
    38   6 C        3.761    -0.105    22.547     6.769
    39   6 C        3.761    -0.107    22.591     6.776
    40   6 C        2.916    -0.047    29.176     8.857
    41   6 C        3.063    -0.020    28.451     8.747
    42   6 C        3.063    -0.020    28.452     8.747
    43   6 C        2.916    -0.047    29.178     8.858
    44   6 C        2.971     0.004    27.927     8.668
    45   6 C        3.902     0.025    20.094     6.372
    46   6 C        3.761    -0.105    22.546     6.769
    47   6 C        3.761    -0.105    22.548     6.769
    48   6 C        3.761    -0.107    22.591     6.776
    49   6 C        2.929    -0.046    29.137     8.852
    50   6 C        2.907    -0.051    29.255     8.869
    51   6 C        3.074     0.043    26.950     8.512
    52   6 C        2.912    -0.066    29.639     8.927
    53   6 C        3.064    -0.027    28.608     8.771
    54   6 C        3.064    -0.027    28.608     8.771
    55   6 C        2.912    -0.066    29.640     8.927
    56   1 H        0.925     0.033     2.548     2.496
    57   1 H        0.925     0.037     2.494     2.470
    58   1 H        0.925     0.039     2.463     2.454
    59   1 H        0.925     0.036     2.501     2.473
    60   1 H        0.925     0.037     2.485     2.465
    61   1 H        0.925     0.036     2.502     2.473
    62   1 H        0.925     0.033     2.550     2.497
    63   1 H        0.925     0.036     2.498     2.471
    64   1 H        0.925     0.039     2.462     2.454
    65   1 H        0.926     0.030     2.583     2.513
    66   1 H        0.926     0.031     2.579     2.511
    67   1 H        0.926     0.040     2.455     2.450
    68   1 H        0.926     0.040     2.455     2.450
    69   1 H        0.925     0.036     2.497     2.471
    70   1 H        0.925     0.039     2.466     2.456
    71   1 H        0.925     0.033     2.548     2.496
    72   1 H        0.925     0.036     2.499     2.472
    73   1 H        0.925     0.033     2.549     2.497
    74   1 H        0.925     0.039     2.462     2.454
    75   1 H        0.925     0.036     2.500     2.473
    76   1 H        0.925     0.037     2.486     2.466
    77   1 H        0.925     0.036     2.500     2.473
    78   1 H        0.926     0.030     2.586     2.515
    79   1 H        0.926     0.030     2.580     2.512
    80   1 H        0.926     0.026     2.638     2.540
    81   1 H        0.926     0.024     2.676     2.558
    82   1 H        0.860     0.165     1.306     1.790
    83   1 H        0.926     0.024     2.676     2.558
    84   1 H        0.926     0.026     2.639     2.540
    85   1 H        0.926     0.030     2.579     2.512
    86   1 H        0.926     0.030     2.583     2.513
    87   1 H        0.925     0.036     2.498     2.472
    88   1 H        0.925     0.039     2.462     2.454
    89   1 H        0.925     0.033     2.551     2.498
    90   1 H        0.925     0.037     2.495     2.470
    91   1 H        0.925     0.039     2.463     2.454
    92   1 H        0.925     0.033     2.548     2.496
    93   1 H        0.925     0.036     2.501     2.473
    94   1 H        0.925     0.037     2.485     2.465
    95   1 H        0.925     0.036     2.502     2.473
    96   1 H        0.926     0.040     2.455     2.450
    97   1 H        0.926     0.040     2.455     2.450
    98   1 H        0.925     0.036     2.499     2.472
    99   1 H        0.925     0.039     2.462     2.454
   100   1 H        0.925     0.033     2.549     2.497
   101   1 H        0.925     0.036     2.497     2.471
   102   1 H        0.925     0.039     2.466     2.456
   103   1 H        0.925     0.033     2.548     2.496
   104   1 H        0.925     0.037     2.486     2.466
   105   1 H        0.925     0.036     2.500     2.473
   106   1 H        0.925     0.036     2.500     2.473
   107   1 H        0.926     0.030     2.585     2.514
   108   1 H        0.926     0.030     2.581     2.512
   109   1 H        0.926     0.028     2.614     2.528
   110   1 H        0.926     0.028     2.613     2.528

molecular dipole:
                 x           y           z       tot (Debye)
 q only:       -0.000       0.256       0.163
   full:        0.000      -0.115      -0.106       0.397

 projected vibrational frequencies (cm⁻¹)
eigval :       -0.00    -0.00    -0.00     0.00     0.00     0.00
eigval :        4.56     9.24    14.17    24.90    26.28    30.90
eigval :       32.29    34.09    37.14    43.51    59.52    62.73
eigval :       65.14    75.49    75.98    86.14    98.91   116.34
eigval :      117.35   124.96   141.61   161.07   161.62   175.51
eigval :      176.75   180.14   184.48   187.90   194.36   199.94
eigval :      200.53   204.42   219.63   220.89   224.43   225.37
eigval :      229.23   229.92   232.22   239.76   254.85   255.26
eigval :      271.18   277.26   280.57   306.20   315.25   316.01
eigval :      319.91   320.04   324.59   326.81   331.44   336.96
eigval :      342.32   350.50   355.39   356.83   357.72   362.03
eigval :      364.27   382.14   384.23   388.35   393.67   403.62
eigval :      406.77   407.31   418.70   437.78   438.04   440.85
eigval :      441.54   455.87   459.73   463.75   464.87   469.38
eigval :      475.24   491.38   495.00   501.25   518.32   518.47
eigval :      545.10   546.71   564.68   581.26   584.82   585.71
eigval :      592.43   594.74   608.45   622.75   625.24   637.61
eigval :      638.19   638.29   648.80   656.12   669.23   685.52
eigval :      685.72   700.90   701.35   710.43   716.13   716.45
eigval :      720.36   767.03   769.33   781.26   783.62   798.41
eigval :      812.13   812.28   814.57   817.19   827.64   829.72
eigval :      832.04   833.45   847.79   848.03   852.55   853.15
eigval :      854.27   854.81   871.19   871.39   898.10   899.28
eigval :      901.69   902.50   921.88   922.88   923.41   929.39
eigval :      937.40   957.95   958.23   959.61   959.84   961.03
eigval :      961.20   961.70   961.93   962.10   962.36   963.30
eigval :      963.73   985.55  1015.50  1029.30  1029.35  1033.11
eigval :     1033.49  1034.18  1034.61  1035.25  1035.45  1039.57
eigval :     1039.69  1096.15  1102.83  1113.01  1120.35  1123.96
eigval :     1124.02  1128.99  1133.08  1145.45  1159.07  1159.45
eigval :     1175.77  1187.63  1195.50  1200.72  1216.19  1219.14
eigval :     1223.20  1223.30  1223.95  1223.99  1227.42  1227.82
eigval :     1228.09  1228.24  1229.15  1230.56  1244.12  1245.02
eigval :     1252.72  1253.11  1264.37  1269.88  1277.15  1277.66
eigval :     1285.86  1286.29  1293.82  1301.32  1329.47  1333.97
eigval :     1334.39  1340.01  1350.83  1358.57  1379.48  1382.59
eigval :     1394.12  1394.75  1400.42  1400.83  1401.08  1401.40
eigval :     1401.95  1402.41  1402.78  1403.40  1405.79  1407.04
eigval :     1418.75  1420.59  1424.93  1426.25  1426.40  1428.29
eigval :     1433.55  1454.00  1454.16  1457.85  1469.57  1471.35
eigval :     1484.63  1488.18  1488.30  1488.51  1489.00  1491.46
eigval :     1491.98  1492.06  1492.22  1497.55  1498.26  1498.46
eigval :     1500.02  1500.82  1500.93  1501.20  1506.59  1510.44
eigval :     1511.01  1511.10  1512.32  1513.47  1514.75  1516.49
eigval :     1517.40  1517.92  1519.04  1528.57  1529.22  1533.06
eigval :     1558.65  1558.77  1558.94  1559.06  1607.93  3018.57
eigval :     3018.62  3018.85  3018.86  3019.71  3019.75  3019.78
eigval :     3019.80  3023.15  3023.18  3023.19  3023.22  3024.44
eigval :     3024.52  3024.57  3024.94  3026.74  3026.76  3026.85
eigval :     3027.00  3030.44  3030.50  3030.71  3030.72  3035.25
eigval :     3035.26  3035.31  3035.41  3044.70  3044.88  3044.88
eigval :     3044.98  3048.11  3048.16  3048.25  3048.30  3079.19
eigval :     3080.05  3080.92  3081.06  3082.50  3082.72  3093.02
eigval :     3093.34  3094.02  3094.18  3099.38  3101.25  3104.31
eigval :     3105.62  3117.72  3118.23  3119.94  3120.49  3457.97

   temp. (K)  partition function   enthalpy   heat capacity  entropy
                                   cal/mol     cal/K/mol   cal/K/mol   J/K/mol
 298.15  VIB  0.327E+24            31201.436    195.717    191.736
         ROT  0.180E+09              888.752      2.981     40.761
         INT  0.590E+32            32090.189    198.698    232.497
         TR   0.188E+29             1481.254      4.968     45.590
         TOT                       33571.4426   203.6660   278.0865  1163.5139

       T/K    H(0)-H(T)+PV         H(T)/Eh          T*S/Eh         G(T)/Eh
   ------------------------------------------------------------------------
    298.15    0.534995E-01    0.966695E+00    0.132128E+00    0.834567E+00
   ------------------------------------------------------------------------

         :::::::::::::::::::::::::::::::::::::::::::::::::::::
         ::                  THERMODYNAMIC                  ::
         :::::::::::::::::::::::::::::::::::::::::::::::::::::
         :: total free energy        -147.474587345197 Eh   ::
         ::.................................................::
         :: total energy             -148.309154411120 Eh   ::
         :: zero point energy           0.913195431780 Eh   ::
         :: G(RRHO) w/o ZPVE           -0.078628365857 Eh   ::
         :: G(RRHO) contrib.            0.834567065923 Eh   ::
         :::::::::::::::::::::::::::::::::::::::::::::::::::::

           -------------------------------------------------
          | TOTAL ENERGY             -148.309154411120 Eh   |
          | TOTAL ENTHALPY           -147.342459480219 Eh   |
          | TOTAL FREE ENERGY        -147.474587345197 Eh   |
          | GRADIENT NORM               0.000043803924 Eh/α |
          | HOMO-LUMO GAP               0.057415668343 eV   |
           -------------------------------------------------

 * finished run on 2025/09/14 at 02:53:47.576
