   * xtb version 6.7.1 (edcfbbe) compiled by 'albert@albert-system' on 2024-07-22

   ID    Z sym.   atoms
    1    6 C      1-20, 22-25, 27-30, 32-55
    2    7 N      21, 26, 31
    3    1 H      56-110

          program call               : xtb data2507/toluene/tBuCz2/tBuCz2_toluene_S0_crest.xyz --gfn 2 --gbsa toluene --ohess vtight --parallel 40 --molden --ceasefiles --namespace data2507/toluene/tBuCz2/tBuCz2_toluene_S0_finalOpt
      * Solvation model:               GBSA
        Solvent                        toluene
        Solvent mass                       9.2140E+01 g/mol
          :  Hamiltonian                  GFN2-xTB          :
 * total energy  :  -148.4105066 Eh     change       -0.9413696E-08 Eh
 * total energy  :  -148.4105407 Eh     change       -0.3416362E-04 Eh
 * total energy  :  -148.4105561 Eh     change       -0.1540118E-04 Eh
 * total energy  :  -148.4105620 Eh     change       -0.5922775E-05 Eh
 * total energy  :  -148.4105677 Eh     change       -0.5680961E-05 Eh
 * total energy  :  -148.4105714 Eh     change       -0.3667581E-05 Eh
 * total energy  :  -148.4105754 Eh     change       -0.3966661E-05 Eh
 * total energy  :  -148.4105784 Eh     change       -0.3060498E-05 Eh
 * total energy  :  -148.4105806 Eh     change       -0.2182111E-05 Eh
 * total energy  :  -148.4105830 Eh     change       -0.2393536E-05 Eh
 * total energy  :  -148.4106766 Eh     change       -0.6120410E-06 Eh
 * total energy  :  -148.4106772 Eh     change       -0.6049208E-06 Eh
 * total energy  :  -148.4106777 Eh     change       -0.5808099E-06 Eh
 * total energy  :  -148.4106783 Eh     change       -0.5653527E-06 Eh
 * total energy  :  -148.4106789 Eh     change       -0.5851521E-06 Eh
 * total energy  :  -148.4106796 Eh     change       -0.6626402E-06 Eh
 * total energy  :  -148.4106803 Eh     change       -0.7701096E-06 Eh
 * total energy  :  -148.4106812 Eh     change       -0.8654084E-06 Eh
 * total energy  :  -148.4106812 Eh     change       -0.4173728E-08 Eh
   *** GEOMETRY OPTIMIZATION CONVERGED AFTER 68 ITERATIONS ***

 final structure:
================
110
 xtb: 6.7.1 (edcfbbe)
C            3.65449709332356        5.48120806321854        0.83985977596151
C            4.84777678006827        4.88088826948182        0.08125622948504
C            6.11876874620748        5.18548135534483        0.88036272300572
C            4.97921705292799        5.55120636203280       -1.29458370064545
C            4.61949446566538        3.38703931426093       -0.10846627805433
C            3.49037981681294        2.96000839959741       -0.82174155966319
C            3.19815349698252        1.62903593104502       -1.03905902294928
C            4.06117210266109        0.67762722674764       -0.51603458541264
C            5.21644297070864        1.08024920017365        0.18787322658742
C            5.48626727112073        2.42836505064159        0.38955591941883
C            5.90747852140041       -0.12404220117226        0.55722041112325
C            7.08061498070705       -0.36757565393175        1.26093834069265
C            7.49367447263059       -1.67085659510176        1.48343517502159
C            8.77001311887740       -2.01109301666566        2.24165420491257
C            9.68982573424825       -2.84573542541013        1.33775584911018
C            8.40945343255754       -2.81534338867038        3.49973296929619
C            9.54400597549454       -0.76396434167614        2.68040667201272
C            6.69413695713826       -2.71635388949531        0.99970903343692
C            5.52579163335321       -2.50468116194348        0.29679894124186
C            5.13719620765353       -1.19520935652721        0.05592915998893
N            4.02431460879978       -0.70029069707612       -0.59307558071325
C            3.04203974160571       -1.46328769562509       -1.24669384364904
C            3.43684135968072       -2.43932820956483       -2.17184217635401
C            2.51053591589087       -3.21507401232204       -2.83799060767637
C            1.16618177861079       -2.98683214248287       -2.58167553057678
N            0.05600774297935       -3.59469386877246       -3.10920915157167
C           -1.06949507174920       -3.02669931943397       -2.57007105890032
C           -2.40739842626016       -3.30470178874333       -2.81088546834073
C           -3.35404636212206       -2.55791890285729       -2.14020180021070
C           -2.98431179278316       -1.55917518408732       -1.22936524459666
N           -3.98573438572995       -0.81533272809470       -0.58186329141624
C           -4.07524622412801        0.56194891403006       -0.55300006617128
C           -3.25839030620758        1.52494209477747       -1.12196236419408
C           -3.59894672843732        2.85514075317810       -0.95709772670483
C           -4.73474797315548        3.26161451950548       -0.24985340658213
C           -5.10751316675888        4.72841204382613       -0.07317644132410
C           -6.48036219069655        4.97667245734923       -0.71631974298365
C           -4.10050824093619        5.68325638477750       -0.72202190501408
C           -5.17123699763200        5.05449809647293        1.42665752176707
C           -5.55554459517631        2.28554649142269        0.29993081555928
C           -5.23774447634562        0.94405118084319        0.15324903317430
C           -5.87428510173656       -0.27309964790419        0.57632592319970
C           -7.02469946779047       -0.53811048647892        1.30865539731591
C           -7.38264640048613       -1.84838642129685        1.58111616157271
C           -8.63138823106610       -2.21203775345950        2.37361463681714
C           -8.21988999893959       -2.97429860717003        3.64213579634311
C           -9.54036704628794       -3.09686616928363        1.50732160879774
C           -9.43741180767691       -0.98110432319084        2.80018209907431
C           -6.55331606914860       -2.87793528367729        1.11410876398311
C           -5.40572559035180       -2.64491822018205        0.38405523066540
C           -5.07015943557735       -1.32994658087844        0.09846493562567
C           -1.64780203921528       -1.28857772403865       -0.97442494508839
C           -0.68291033475755       -2.01842107580704       -1.65434934230210
C            0.75370622903383       -1.99459495773097       -1.65990792008364
C            1.69899591212118       -1.23894833646273       -0.98058417010049
H            3.54150035880111        4.99542050430624        1.80740917494441
H            2.72794838338494        5.35547912965379        0.28629660314153
H            3.81121468066448        6.54557864195658        1.00397972192127
H            6.06803272486390        4.75069407150845        1.87619054928962
H            6.22919561451614        6.26285417368202        0.98915360863423
H            7.00198354787330        4.80757887950511        0.37005682893233
H            5.80916334217537        5.11475814054533       -1.84725353819436
H            4.07532212898239        5.42703521387376       -1.88465795263438
H            5.16492816693539        6.61698703886241       -1.17639930154605
H            2.81231811231359        3.69556337558738       -1.22782621217799
H            2.32545298802353        1.34424151080785       -1.60804833624730
H            6.37621619683750        2.69953310441923        0.93289624994176
H            7.64628750698220        0.47376179998396        1.62555945061604
H            9.22159756039505       -3.78328975808324        1.05084023483206
H           10.61826118041770       -3.07492378994159        1.85724175198680
H            9.92860166207380       -2.29254274517956        0.43125187347033
H            7.91560476466910       -3.74929768801534        3.24533943996361
H            7.73986790753389       -2.23870775066245        4.13529954858653
H            9.30862683063153       -3.04864976741137        4.06668643917714
H            9.83495424309219       -0.16258006297710        1.82187597960738
H           10.45005290365050       -1.06473999742851        3.20323906486191
H            8.95198013247366       -0.15441993058908        3.35948262637867
H            6.99227746254397       -3.73779433463328        1.18257504332355
H            4.93052664027812       -3.33849200823104       -0.04516377726100
H            4.49014955900139       -2.57194373255260       -2.36767817590934
H            2.82537327630917       -3.96692125843362       -3.54581927245793
H            0.06557848441411       -4.33128581541606       -3.79453984828432
H           -2.70208115665954       -4.07177670912760       -3.51101769642993
H           -4.40419836762334       -2.72963636395416       -2.32268050616585
H           -2.38078685641857        1.25187819422049       -1.68933910431521
H           -2.95148254143295        3.59192730973680       -1.40350522438716
H           -6.44876919966900        4.73077186060614       -1.77623133062754
H           -6.76075327882680        6.02307668752125       -0.61227782685960
H           -7.25150285194061        4.36957443671338       -0.24993378436610
H           -4.04264743813472        5.52198741270796       -1.79625248504774
H           -4.41743406410962        6.71103061758880       -0.55434632373325
H           -3.11030272716990        5.56238286515994       -0.28819531865153
H           -4.20690918977530        4.86389573502017        1.89417755138957
H           -5.42499168450600        6.10269690585445        1.57252530674592
H           -5.91917080030511        4.45013585221267        1.93251382728351
H           -6.44990383360174        2.55278824995331        0.84192437400860
H           -7.61685259287322        0.29237326490954        1.65583628875253
H           -7.70213535401837       -3.89831896197769        3.39946094220485
H           -9.09947953446554       -3.22179534642014        4.23327287307602
H           -7.55601665740026       -2.36183675538776        4.24963528181697
H           -9.04589448480666       -4.02401782065585        1.23072396623095
H          -10.44984826903855       -3.34564190509393        2.05075790886894
H           -9.81585176716919       -2.57195465572576        0.59441721501229
H          -10.31947969802179       -1.29903183136283        3.35301404722295
H           -9.77008000026746       -0.41242320800519        1.93454868266537
H           -8.85065146000343       -0.33427005300558        3.44869993308326
H           -6.81035281354639       -3.90361533531698        1.33220957097893
H           -4.78574818432205       -3.46586631529437        0.05497455762160
H           -1.37070395185601       -0.52894915859934       -0.25979657442186
H            1.40156397287698       -0.49706096877351       -0.25566832047848

          :  Hamiltonian                  GFN2-xTB          :
         :: gradient norm              0.000047781970 Eh/a0 ::
         :: HOMO-LUMO gap              2.582984491784 eV    ::
         :: SCC energy              -151.005470877307 Eh    ::
         :: -> dispersion             -0.137691147022 Eh    ::
         :: -> Gsolv                  -0.057095906734 Eh    ::
         :: repulsion energy           2.594789678141 Eh    ::

    * Orbital Energies and Occupations

         #    Occupation            Energy/Eh            Energy/eV
      -------------------------------------------------------------
         1        2.0000           -0.6833400             -18.5946
       ...           ...                  ...                  ...
       127        2.0000           -0.4087854             -11.1236
       128        2.0000           -0.4049861             -11.0202
       129        2.0000           -0.4047040             -11.0126
       130        2.0000           -0.4029451             -10.9647
       131        2.0000           -0.4026097             -10.9556
       132        2.0000           -0.3918858             -10.6638
       133        2.0000           -0.3912846             -10.6474
       134        2.0000           -0.3864900             -10.5169
       135        2.0000           -0.3781178             -10.2891
       136        2.0000           -0.3690437             -10.0422
       137        2.0000           -0.3682515             -10.0206
       138        2.0000           -0.3523221              -9.5872
       139        2.0000           -0.3477167              -9.4619 (HOMO)
       140                         -0.2527938              -6.8789 (LUMO)
       141                         -0.2381977              -6.4817
       142                         -0.2363917              -6.4325
       143                         -0.2296695              -6.2496
       144                         -0.2132214              -5.8021
       145                         -0.2126736              -5.7871
       146                         -0.2080649              -5.6617
       147                         -0.1981425              -5.3917
       148                         -0.1796755              -4.8892
       149                         -0.1790406              -4.8719
       150                         -0.1787730              -4.8647
       ...                                ...                  ...
       275                          0.7490506              20.3827
      -------------------------------------------------------------
                  HL-Gap            0.0949229 Eh            2.5830 eV

     #   Z          covCN         q      C6AA      α(0)
     1   6 C        3.761    -0.104    22.531     6.766
     2   6 C        3.902     0.024    20.108     6.374
     3   6 C        3.761    -0.106    22.565     6.772
     4   6 C        3.761    -0.104    22.533     6.767
     5   6 C        2.972    -0.005    28.141     8.701
     6   6 C        2.931    -0.042    29.033     8.837
     7   6 C        2.908    -0.056    29.381     8.888
     8   6 C        3.081     0.044    26.932     8.508
     9   6 C        3.067    -0.023    28.509     8.755
    10   6 C        2.918    -0.046    29.150     8.854
    11   6 C        3.067    -0.023    28.510     8.755
    12   6 C        2.918    -0.046    29.149     8.854
    13   6 C        2.972    -0.005    28.142     8.702
    14   6 C        3.902     0.024    20.108     6.374
    15   6 C        3.761    -0.104    22.535     6.767
    16   6 C        3.761    -0.104    22.531     6.767
    17   6 C        3.761    -0.106    22.565     6.772
    18   6 C        2.931    -0.042    29.038     8.837
    19   6 C        2.908    -0.056    29.387     8.889
    20   6 C        3.081     0.044    26.935     8.508
    21   7 N        2.802    -0.052    22.236     7.004
    22   6 C        2.912     0.054    26.793     8.488
    23   6 C        2.926    -0.046    29.132     8.851
    24   6 C        2.909    -0.054    29.341     8.882
    25   6 C        3.073     0.051    26.782     8.485
    26   7 N        2.754    -0.113    23.469     7.195
    27   6 C        3.073     0.051    26.780     8.485
    28   6 C        2.909    -0.054    29.341     8.882
    29   6 C        2.926    -0.045    29.127     8.851
    30   6 C        2.912     0.054    26.795     8.488
    31   7 N        2.802    -0.052    22.252     7.006
    32   6 C        3.080     0.044    26.927     8.507
    33   6 C        2.909    -0.056    29.397     8.891
    34   6 C        2.928    -0.046    29.141     8.853
    35   6 C        2.971    -0.005    28.142     8.702
    36   6 C        3.902     0.024    20.108     6.374
    37   6 C        3.761    -0.104    22.530     6.766
    38   6 C        3.761    -0.106    22.566     6.772
    39   6 C        3.761    -0.104    22.531     6.767
    40   6 C        2.920    -0.042    29.043     8.837
    41   6 C        3.066    -0.022    28.497     8.753
    42   6 C        3.066    -0.023    28.511     8.756
    43   6 C        2.918    -0.046    29.142     8.852
    44   6 C        2.972    -0.005    28.144     8.702
    45   6 C        3.902     0.024    20.108     6.374
    46   6 C        3.761    -0.104    22.533     6.767
    47   6 C        3.761    -0.104    22.535     6.767
    48   6 C        3.761    -0.105    22.562     6.771
    49   6 C        2.931    -0.042    29.033     8.837
    50   6 C        2.908    -0.056    29.387     8.889
    51   6 C        3.081     0.044    26.924     8.507
    52   6 C        2.915    -0.047    29.156     8.854
    53   6 C        3.071    -0.015    28.314     8.725
    54   6 C        3.071    -0.015    28.315     8.725
    55   6 C        2.915    -0.047    29.163     8.855
    56   1 H        0.925     0.031     2.568     2.506
    57   1 H        0.925     0.035     2.516     2.480
    58   1 H        0.925     0.037     2.494     2.470
    59   1 H        0.925     0.035     2.520     2.483
    60   1 H        0.925     0.036     2.509     2.477
    61   1 H        0.925     0.035     2.520     2.483
    62   1 H        0.925     0.031     2.567     2.506
    63   1 H        0.925     0.035     2.516     2.481
    64   1 H        0.925     0.037     2.492     2.469
    65   1 H        0.926     0.027     2.627     2.535
    66   1 H        0.926     0.024     2.674     2.557
    67   1 H        0.926     0.035     2.520     2.483
    68   1 H        0.926     0.035     2.521     2.483
    69   1 H        0.925     0.035     2.514     2.480
    70   1 H        0.925     0.037     2.495     2.470
    71   1 H        0.925     0.032     2.565     2.505
    72   1 H        0.925     0.035     2.518     2.482
    73   1 H        0.925     0.031     2.568     2.506
    74   1 H        0.925     0.037     2.492     2.469
    75   1 H        0.925     0.035     2.519     2.482
    76   1 H        0.925     0.036     2.509     2.477
    77   1 H        0.925     0.035     2.521     2.483
    78   1 H        0.926     0.027     2.627     2.535
    79   1 H        0.926     0.024     2.672     2.556
    80   1 H        0.926     0.042     2.416     2.431
    81   1 H        0.926     0.039     2.462     2.454
    82   1 H        0.860     0.166     1.299     1.785
    83   1 H        0.926     0.039     2.461     2.453
    84   1 H        0.926     0.042     2.419     2.432
    85   1 H        0.926     0.024     2.680     2.560
    86   1 H        0.926     0.034     2.527     2.486
    87   1 H        0.925     0.031     2.571     2.507
    88   1 H        0.925     0.037     2.494     2.470
    89   1 H        0.925     0.035     2.514     2.479
    90   1 H        0.925     0.034     2.525     2.485
    91   1 H        0.925     0.036     2.505     2.475
    92   1 H        0.925     0.035     2.522     2.483
    93   1 H        0.925     0.031     2.568     2.506
    94   1 H        0.925     0.036     2.496     2.471
    95   1 H        0.925     0.035     2.513     2.479
    96   1 H        0.926     0.027     2.625     2.534
    97   1 H        0.926     0.034     2.534     2.489
    98   1 H        0.925     0.035     2.517     2.481
    99   1 H        0.925     0.037     2.492     2.469
   100   1 H        0.925     0.031     2.568     2.506
   101   1 H        0.925     0.035     2.514     2.479
   102   1 H        0.925     0.037     2.494     2.470
   103   1 H        0.925     0.032     2.565     2.504
   104   1 H        0.925     0.036     2.508     2.477
   105   1 H        0.925     0.035     2.522     2.484
   106   1 H        0.925     0.034     2.524     2.485
   107   1 H        0.926     0.027     2.625     2.534
   108   1 H        0.926     0.024     2.673     2.557
   109   1 H        0.926     0.042     2.428     2.437
   110   1 H        0.926     0.042     2.426     2.436

molecular dipole:
                 x           y           z       tot (Debye)
 q only:        0.030      -0.800      -0.733
   full:        0.015      -1.074      -0.965       3.671

 projected vibrational frequencies (cm⁻¹)
eigval :       -0.00    -0.00     0.00     0.00     0.00     0.00
eigval :        7.01     9.00    12.74    23.88    26.73    32.40
eigval :       32.65    32.99    35.94    42.22    60.60    64.05
eigval :       67.13    75.26    76.38    85.65    99.72   111.01
eigval :      113.82   123.11   140.99   160.94   165.13   175.73
eigval :      177.61   180.14   182.45   187.40   193.96   196.77
eigval :      203.09   204.32   220.98   222.45   226.66   227.92
eigval :      230.99   236.66   239.93   247.13   260.03   263.20
eigval :      272.27   280.01   298.10   300.93   314.57   315.14
eigval :      317.84   321.54   325.65   328.85   331.95   341.91
eigval :      345.29   355.34   355.94   358.30   360.42   364.43
eigval :      382.66   388.09   391.77   398.22   399.88   408.89
eigval :      410.46   412.34   427.63   440.86   442.09   443.81
eigval :      444.38   456.63   460.52   463.73   465.28   465.58
eigval :      467.64   482.08   502.32   507.05   518.89   521.92
eigval :      549.78   555.21   569.06   582.91   584.16   587.02
eigval :      590.16   606.00   618.87   630.96   631.25   639.50
eigval :      640.77   645.17   658.48   683.02   687.11   689.12
eigval :      707.03   708.39   708.72   714.88   718.23   718.85
eigval :      727.93   804.76   814.87   815.68   818.95   823.09
eigval :      824.03   824.63   829.91   832.88   857.37   860.90
eigval :      868.83   869.87   871.11   872.51   873.03   874.82
eigval :      881.16   883.62   903.72   906.13   907.80   916.87
eigval :      917.31   918.98   925.38   925.62   926.90   930.82
eigval :      951.90   958.52   958.71   959.73   959.99   961.54
eigval :      961.92   962.00   962.15   962.58   962.71   962.77
eigval :      962.84   996.29  1023.35  1030.44  1031.83  1034.68
eigval :     1034.94  1035.62  1035.70  1036.05  1036.11  1039.83
eigval :     1041.00  1106.39  1111.69  1127.51  1128.90  1130.75
eigval :     1133.82  1140.50  1151.14  1162.04  1175.45  1177.98
eigval :     1192.10  1196.69  1204.22  1224.09  1225.12  1225.42
eigval :     1225.63  1225.95  1226.70  1229.46  1230.52  1230.76
eigval :     1234.37  1236.87  1237.35  1246.58  1250.20  1259.07
eigval :     1260.20  1283.38  1284.37  1290.07  1296.86  1306.37
eigval :     1307.58  1311.14  1313.42  1340.21  1345.69  1345.99
eigval :     1357.96  1361.10  1362.57  1379.43  1394.10  1400.04
eigval :     1400.32  1401.61  1401.80  1402.36  1402.72  1402.93
eigval :     1403.19  1411.71  1412.85  1423.65  1426.46  1426.81
eigval :     1427.04  1427.34  1429.06  1445.27  1447.52  1473.95
eigval :     1479.20  1481.76  1483.47  1484.80  1488.96  1489.40
eigval :     1489.60  1489.99  1490.08  1492.83  1492.97  1493.10
eigval :     1493.46  1499.68  1499.86  1499.94  1500.53  1502.56
eigval :     1502.88  1503.21  1503.41  1511.09  1511.61  1511.69
eigval :     1512.20  1518.19  1518.46  1518.63  1519.43  1564.76
eigval :     1566.75  1570.13  1578.77  1580.59  1582.99  1602.97
eigval :     1603.61  1605.27  1616.50  1617.47  1618.37  3016.91
eigval :     3017.00  3017.05  3017.17  3018.14  3018.28  3018.38
eigval :     3018.40  3021.43  3021.90  3022.02  3022.16  3023.19
eigval :     3023.27  3023.46  3023.54  3025.33  3025.62  3025.74
eigval :     3026.17  3029.12  3029.24  3029.27  3029.62  3033.82
eigval :     3033.95  3034.09  3034.50  3042.91  3043.08  3043.20
eigval :     3043.27  3046.43  3046.45  3046.62  3046.66  3073.25
eigval :     3073.48  3073.62  3075.61  3081.93  3082.82  3083.04
eigval :     3086.58  3087.33  3087.66  3094.17  3095.45  3096.54
eigval :     3098.83  3111.05  3112.13  3113.66  3114.39  3480.79

   temp. (K)  partition function   enthalpy   heat capacity  entropy
                                   cal/mol     cal/K/mol   cal/K/mol   J/K/mol
 298.15  VIB  0.187E+24            30898.034    193.366    189.862
         ROT  0.183E+09              888.752      2.981     40.790
         INT  0.343E+32            31786.787    196.347    230.652
         TR   0.188E+29             1481.254      4.968     45.590
         TOT                       33268.0405   201.3153   276.2419  1155.7961

       T/K    H(0)-H(T)+PV         H(T)/Eh          T*S/Eh         G(T)/Eh
   ------------------------------------------------------------------------
    298.15    0.530160E-01    0.972189E+00    0.131251E+00    0.840938E+00
   ------------------------------------------------------------------------

         :::::::::::::::::::::::::::::::::::::::::::::::::::::
         ::                  THERMODYNAMIC                  ::
         :::::::::::::::::::::::::::::::::::::::::::::::::::::
         :: total free energy        -147.569743159497 Eh   ::
         ::.................................................::
         :: total energy             -148.410681199173 Eh   ::
         :: zero point energy           0.919173480676 Eh   ::
         :: G(RRHO) w/o ZPVE           -0.078235441000 Eh   ::
         :: G(RRHO) contrib.            0.840938039676 Eh   ::
         :::::::::::::::::::::::::::::::::::::::::::::::::::::

           -------------------------------------------------
          | TOTAL ENERGY             -148.410681199173 Eh   |
          | TOTAL ENTHALPY           -147.438491721354 Eh   |
          | TOTAL FREE ENERGY        -147.569743159497 Eh   |
          | GRADIENT NORM               0.000047786243 Eh/α |
          | HOMO-LUMO GAP               2.582984348707 eV   |
           -------------------------------------------------

 * finished run on 2025/09/14 at 02:24:24.852
