   * xtb version 6.7.1 (edcfbbe) compiled by 'albert@albert-system' on 2024-07-22

   ID    Z sym.   atoms
    1    6 C      1-20, 22-25, 27-30, 32-55
    2    7 N      21, 26, 31
    3    1 H      56-110

          program call               : xtb data2507/toluene/tBuCz2/tBuCz2_toluene_S0_finalOpt.xtbopt.xyz --gfn 2 --uhf 2 --gbsa toluene --ohess vtight --parallel 40 --molden --ceasefiles --namespace data2507/toluene/tBuCz2/tBuCz2_toluene_T1_preOpt
      * Solvation model:               GBSA
        Solvent                        toluene
        Solvent mass                       9.2140E+01 g/mol
          :  Hamiltonian                  GFN2-xTB          :
 * total energy  :  -148.3064392 Eh     change       -0.2187247E-07 Eh
 * total energy  :  -148.3082284 Eh     change       -0.1789212E-02 Eh
 * total energy  :  -148.3087210 Eh     change       -0.4926094E-03 Eh
 * total energy  :  -148.3087882 Eh     change       -0.6716707E-04 Eh
 * total energy  :  -148.3088322 Eh     change       -0.4401755E-04 Eh
 * total energy  :  -148.3088486 Eh     change       -0.1643251E-04 Eh
 * total energy  :  -148.3088655 Eh     change       -0.1686853E-04 Eh
 * total energy  :  -148.3088782 Eh     change       -0.1268405E-04 Eh
 * total energy  :  -148.3088860 Eh     change       -0.7865536E-05 Eh
 * total energy  :  -148.3088946 Eh     change       -0.8584295E-05 Eh
 * total energy  :  -148.3089795 Eh     change       -0.8231225E-05 Eh
 * total energy  :  -148.3089872 Eh     change       -0.7692902E-05 Eh
 * total energy  :  -148.3089930 Eh     change       -0.5795863E-05 Eh
 * total energy  :  -148.3089960 Eh     change       -0.3048343E-05 Eh
 * total energy  :  -148.3089972 Eh     change       -0.1171042E-05 Eh
 * total energy  :  -148.3089974 Eh     change       -0.2255825E-06 Eh
 * total energy  :  -148.3089982 Eh     change       -0.7398743E-06 Eh
 * total energy  :  -148.3089984 Eh     change       -0.2371657E-06 Eh
 * total energy  :  -148.3089984 Eh     change       -0.2269320E-07 Eh
   *** GEOMETRY OPTIMIZATION CONVERGED AFTER 47 ITERATIONS ***

 final structure:
================
110
 xtb: 6.7.1 (edcfbbe)
C            3.52200508912697        5.46044805416379        0.72686797695589
C            4.72860485986253        4.87157146352982       -0.01990602277576
C            5.99261917467162        5.21766405132983        0.77323659387097
C            4.84597775683755        5.51781814188124       -1.40877534390774
C            4.52986189304355        3.37156305404024       -0.18294423802484
C            3.40941740607984        2.90983506682162       -0.88520243288486
C            3.14750521155715        1.56354045120113       -1.07907198760453
C            4.02987170495986        0.64347031771748       -0.53654391934278
C            5.18427196384504        1.08274682467434        0.15233472501606
C            5.42523415216576        2.44008579309769        0.32816726084511
C            5.90926693619177       -0.09877349680827        0.52766231914364
C            7.08869076352318       -0.30484054498095        1.23326886452209
C            7.53196135379303       -1.59956919339538        1.47357675673811
C            8.81522377378844       -1.89569385562484        2.23626011779010
C            9.75506092514292       -2.71980145049491        1.34311802817290
C            8.47279975185344       -2.69231520373196        3.50456345573633
C            9.55792681659505       -0.62444649470595        2.65946555808414
C            6.75768580879468       -2.67053149436938        1.00915782632346
C            5.57903055750564       -2.49376782030243        0.30336789480959
C            5.16454692407039       -1.19821226741753        0.04085189541057
N            4.03091245223684       -0.73728467555153       -0.60096789606426
C            3.05836261115306       -1.52449844480619       -1.21918188630473
C            3.45732998607949       -2.55983345538481       -2.07252284083148
C            2.50511747757975       -3.36038574094493       -2.71433385411235
C            1.17291331443454       -3.10055910245721       -2.47185189479073
N            0.05616801537052       -3.72339643076932       -2.96662744288078
C           -1.07485039435623       -3.13187002471516       -2.46750896086658
C           -2.40058419761914       -3.42805220225911       -2.70503103575792
C           -3.37180633898339       -2.65563166310442       -2.05787971623974
C           -2.99853395710307       -1.61068406943549       -1.20378842489924
N           -3.99020603930369       -0.85430991606191       -0.57934595363824
C           -4.02630345607771        0.52607259072135       -0.50418435362782
C           -3.17005862949245        1.47329826275902       -1.03685068131732
C           -3.46390075719015        2.81596759121281       -0.83385498139690
C           -4.59419260885649        3.23885446024614       -0.13191308807683
C           -4.91446121014865        4.70989038012881        0.09232960526020
C           -6.26613386170090        5.03331441940177       -0.56260696801153
C           -3.86098209378779        5.64875730692001       -0.50355138361206
C           -4.99199269347494        4.98086194320508        1.60276494492233
C           -5.46763318165648        2.27531790293094        0.36973868751263
C           -5.19518162768323        0.92767523897098        0.18639100347878
C           -5.88846253169625       -0.27594442349140        0.54974005815335
C           -7.06457871895610       -0.52002997186598        1.24924527948551
C           -7.47273079733614       -1.82831962549096        1.47813112124274
C           -8.75179078492881       -2.16547659020799        2.23057655785551
C           -8.39544305521465       -2.96021188975647        3.49621290039876
C           -9.66174616958752       -3.01034920673610        1.32586191217702
C           -9.53338770540049       -0.91862069189988        2.65625984044580
C           -6.66623374839334       -2.87416426302755        1.01100527378937
C           -5.49016480964708       -2.65925251221567        0.31053804485186
C           -5.11225396345700       -1.35110060814746        0.05678288593661
C           -1.65648226917792       -1.30555908541488       -0.95996939165551
C           -0.67295526373677       -2.07415018722834       -1.59540717573634
C            0.74528088668636       -2.05430476439893       -1.59860322171552
C            1.70974510377220       -1.25717962185797       -0.96899751636303
H            3.41850768594098        4.99078839786055        1.70330787033833
H            2.59887741299748        5.30526044381108        0.17534271623159
H            3.65711363723439        6.53054132073592        0.87071615177172
H            5.95239713425067        4.79825815457957        1.77605364958928
H            6.07782668725540        6.29883878376745        0.86442249147136
H            6.88417307643257        4.85282358002182        0.26812680185819
H            5.68242006089577        5.08568251838153       -1.95484910634403
H            3.94343134348744        5.36720640173976       -1.99450901204338
H            5.01357125906179        6.58841802159110       -1.31005287151456
H            2.71490382615791        3.62090665642682       -1.30508647404152
H            2.28515903067530        1.24915577865069       -1.64709937922245
H            6.31288095182883        2.74273318484600        0.85737673023706
H            7.63479184768784        0.55280109560653        1.58808293004556
H            9.30865996691733       -3.67084312861839        1.06636752069303
H           10.68715964535101       -2.92140659846072        1.86716059515855
H            9.98300298269777       -2.17176440845590        0.43076548377216
H            8.00494338104520       -3.64262644700757        3.26242369380134
H            7.78687190824877       -2.12502805133774        4.13092221216532
H            9.37700757386763       -2.89312718316937        4.07566352331271
H            9.83658831333367       -0.02776272203611        1.79372452763702
H           10.46972483155496       -0.89688502696889        3.18760066970783
H            8.95045681924927       -0.02073312427860        3.32997077714400
H            7.07642421747529       -3.68217982330295        1.20732700266763
H            4.99940701873536       -3.34527765263575       -0.01912618874842
H            4.50614605718128       -2.70712748878663       -2.27362774475996
H            2.81443040498438       -4.14007743757413       -3.39369308924530
H            0.06570105759039       -4.50938652968487       -3.59659326653251
H           -2.69086208708352       -4.21505932204995       -3.38434955568161
H           -4.41684373174256       -2.83063774027955       -2.25630144048080
H           -2.29913811580106        1.18754106140134       -1.60684131804664
H           -2.78291528624528        3.53976448427417       -1.24897458240448
H           -6.22670185925796        4.82265404791308       -1.62974210976912
H           -6.50551752881905        6.08605865179995       -0.42655919518226
H           -7.06858196093658        4.44291606105999       -0.12908561153806
H           -3.79152498213206        5.52640075541062       -1.58214997419828
H           -4.14111368074582        6.68080439966947       -0.30092610541348
H           -2.88360763065274        5.47300052965847       -0.05969304759922
H           -4.04383194866757        4.73537388741989        2.07746538858677
H           -5.20712464333468        6.03208138601611        1.78354589304530
H           -5.77147826333344        4.38835841786849        2.07358108246277
H           -6.36387210608155        2.55995643717499        0.89819494415548
H           -7.63569535681939        0.31943967412634        1.60809377911252
H           -7.89977871111385       -3.89554760999578        3.25119900574368
H           -9.29736202780418       -3.18966207859809        4.06009282785686
H           -7.72959041284569       -2.37804192630485        4.13053096702203
H           -9.18732582547675       -3.94731784267028        1.04772818261341
H          -10.59198879277471       -3.24015456555435        1.84153436177048
H           -9.89758334283061       -2.46387238766136        0.41459148643143
H          -10.44090897119940       -1.22037803728281        3.17569737658279
H           -9.82254451377894       -0.32450735540953        1.79216996174716
H           -8.94837624255807       -0.30223852004084        3.33514842379782
H           -6.95645523845861       -3.89564436072189        1.20196833715960
H           -4.88528208227465       -3.49213815499055       -0.01399994824872
H           -1.38967904190835       -0.53353831469829       -0.25656301628171
H            1.42478291117711       -0.49038895722883       -0.26690377000626

          :  Hamiltonian                  GFN2-xTB          :
         :: gradient norm              0.000122665616 Eh/a0 ::
         :: HOMO-LUMO gap              0.056992950436 eV    ::
         :: SCC energy              -150.883724904340 Eh    ::
         :: -> dispersion             -0.137868219549 Eh    ::
         :: -> Gsolv                  -0.056732251820 Eh    ::
         :: repulsion energy           2.574726488079 Eh    ::

    * Orbital Energies and Occupations

         #    Occupation            Energy/Eh            Energy/eV
      -------------------------------------------------------------
         1        2.0000           -0.6738151             -18.3354
       ...           ...                  ...                  ...
       128        2.0000           -0.4072135             -11.0808
       129        2.0000           -0.4058624             -11.0441
       130        2.0000           -0.4057016             -11.0397
       131        2.0000           -0.4008703             -10.9082
       132        2.0000           -0.3955389             -10.7632
       133        2.0000           -0.3947850             -10.7426
       134        2.0000           -0.3750013             -10.2043
       135        2.0000           -0.3723510             -10.1322
       136        2.0000           -0.3717930             -10.1170
       137        2.0000           -0.3710854             -10.0977
       138        1.9792           -0.3548043              -9.6547
       139        1.0208           -0.3474901              -9.4557
       140        0.6908           -0.2432525              -6.6192 (HOMO)
       141        0.1978           -0.2411587              -6.5623 (LUMO)
       142        0.1114           -0.2405157              -6.5448
       143                         -0.2226657              -6.0590
       144                         -0.2180375              -5.9331
       145                         -0.2174876              -5.9181
       146                         -0.2054083              -5.5894
       147                         -0.1923924              -5.2353
       148                         -0.1828130              -4.9746
       149                         -0.1822326              -4.9588
       150                         -0.1779403              -4.8420
       151                         -0.1755477              -4.7769
       ...                                ...                  ...
       275                          0.7516384              20.4531
      -------------------------------------------------------------
                  HL-Gap            0.0020938 Eh            0.0570 eV

     #   Z          covCN         q      C6AA      α(0)
     1   6 C        3.761    -0.105    22.547     6.769
     2   6 C        3.902     0.025    20.094     6.372
     3   6 C        3.761    -0.107    22.591     6.776
     4   6 C        3.761    -0.105    22.548     6.769
     5   6 C        2.971     0.004    27.929     8.669
     6   6 C        2.929    -0.045    29.124     8.850
     7   6 C        2.907    -0.050    29.245     8.867
     8   6 C        3.075     0.044    26.942     8.510
     9   6 C        3.063    -0.020    28.450     8.747
    10   6 C        2.916    -0.047    29.172     8.857
    11   6 C        3.063    -0.020    28.451     8.747
    12   6 C        2.916    -0.047    29.174     8.857
    13   6 C        2.971     0.004    27.932     8.669
    14   6 C        3.902     0.025    20.094     6.372
    15   6 C        3.761    -0.105    22.549     6.769
    16   6 C        3.761    -0.105    22.546     6.769
    17   6 C        3.761    -0.107    22.591     6.776
    18   6 C        2.929    -0.045    29.129     8.851
    19   6 C        2.908    -0.051    29.255     8.869
    20   6 C        3.074     0.044    26.947     8.511
    21   7 N        2.802    -0.023    21.694     6.918
    22   6 C        2.908     0.057    26.720     8.476
    23   6 C        2.922    -0.072    29.784     8.950
    24   6 C        2.906    -0.065    29.620     8.924
    25   6 C        3.056     0.049    26.842     8.496
    26   7 N        2.758    -0.104    23.280     7.166
    27   6 C        3.056     0.050    26.834     8.495
    28   6 C        2.906    -0.065    29.622     8.924
    29   6 C        2.922    -0.072    29.784     8.950
    30   6 C        2.908     0.057    26.717     8.475
    31   7 N        2.802    -0.022    21.669     6.914
    32   6 C        3.072     0.044    26.943     8.511
    33   6 C        2.908    -0.050    29.253     8.869
    34   6 C        2.926    -0.050    29.245     8.869
    35   6 C        2.971     0.005    27.918     8.667
    36   6 C        3.903     0.025    20.092     6.372
    37   6 C        3.761    -0.105    22.545     6.769
    38   6 C        3.761    -0.107    22.592     6.776
    39   6 C        3.761    -0.105    22.547     6.769
    40   6 C        2.918    -0.044    29.084     8.844
    41   6 C        3.062    -0.020    28.450     8.747
    42   6 C        3.062    -0.020    28.454     8.747
    43   6 C        2.916    -0.048    29.182     8.858
    44   6 C        2.971     0.004    27.922     8.668
    45   6 C        3.902     0.025    20.094     6.372
    46   6 C        3.761    -0.105    22.546     6.769
    47   6 C        3.761    -0.105    22.548     6.769
    48   6 C        3.761    -0.107    22.587     6.775
    49   6 C        2.929    -0.046    29.147     8.854
    50   6 C        2.907    -0.051    29.256     8.869
    51   6 C        3.073     0.044    26.948     8.511
    52   6 C        2.911    -0.066    29.638     8.927
    53   6 C        3.064    -0.027    28.606     8.770
    54   6 C        3.064    -0.027    28.608     8.771
    55   6 C        2.912    -0.066    29.637     8.927
    56   1 H        0.925     0.033     2.550     2.497
    57   1 H        0.925     0.037     2.494     2.470
    58   1 H        0.925     0.039     2.464     2.455
    59   1 H        0.925     0.036     2.501     2.473
    60   1 H        0.925     0.037     2.485     2.465
    61   1 H        0.925     0.036     2.502     2.473
    62   1 H        0.925     0.033     2.551     2.497
    63   1 H        0.925     0.036     2.496     2.471
    64   1 H        0.925     0.039     2.462     2.454
    65   1 H        0.926     0.031     2.578     2.511
    66   1 H        0.926     0.031     2.578     2.511
    67   1 H        0.926     0.040     2.454     2.450
    68   1 H        0.926     0.040     2.454     2.450
    69   1 H        0.925     0.036     2.497     2.471
    70   1 H        0.925     0.039     2.466     2.456
    71   1 H        0.925     0.033     2.548     2.496
    72   1 H        0.925     0.036     2.500     2.472
    73   1 H        0.925     0.033     2.549     2.497
    74   1 H        0.925     0.039     2.462     2.454
    75   1 H        0.925     0.036     2.500     2.473
    76   1 H        0.925     0.037     2.486     2.466
    77   1 H        0.925     0.036     2.500     2.473
    78   1 H        0.926     0.030     2.584     2.514
    79   1 H        0.926     0.030     2.581     2.513
    80   1 H        0.926     0.026     2.640     2.541
    81   1 H        0.926     0.024     2.677     2.558
    82   1 H        0.860     0.165     1.306     1.790
    83   1 H        0.926     0.024     2.675     2.558
    84   1 H        0.926     0.026     2.637     2.539
    85   1 H        0.926     0.031     2.575     2.509
    86   1 H        0.926     0.037     2.482     2.464
    87   1 H        0.925     0.032     2.553     2.499
    88   1 H        0.925     0.039     2.463     2.454
    89   1 H        0.925     0.037     2.489     2.467
    90   1 H        0.925     0.036     2.508     2.477
    91   1 H        0.925     0.038     2.481     2.463
    92   1 H        0.925     0.036     2.503     2.474
    93   1 H        0.925     0.033     2.549     2.497
    94   1 H        0.925     0.039     2.464     2.455
    95   1 H        0.925     0.037     2.489     2.467
    96   1 H        0.926     0.032     2.558     2.501
    97   1 H        0.926     0.038     2.470     2.458
    98   1 H        0.925     0.036     2.498     2.472
    99   1 H        0.925     0.039     2.462     2.454
   100   1 H        0.925     0.033     2.549     2.497
   101   1 H        0.925     0.037     2.496     2.470
   102   1 H        0.925     0.039     2.465     2.455
   103   1 H        0.925     0.033     2.548     2.496
   104   1 H        0.925     0.037     2.485     2.465
   105   1 H        0.925     0.036     2.503     2.474
   106   1 H        0.925     0.036     2.503     2.474
   107   1 H        0.926     0.030     2.586     2.515
   108   1 H        0.926     0.030     2.580     2.512
   109   1 H        0.926     0.028     2.612     2.527
   110   1 H        0.926     0.028     2.616     2.529

molecular dipole:
                 x           y           z       tot (Debye)
 q only:        0.006       0.247       0.163
   full:       -0.004      -0.117      -0.107       0.404

 projected vibrational frequencies (cm⁻¹)
eigval :       -0.00    -0.00    -0.00     0.00     0.00     0.00
eigval :        7.85     9.34    15.79    25.75    26.98    30.77
eigval :       33.01    34.88    36.52    44.03    59.89    63.00
eigval :       66.72    73.75    75.33    86.19    99.29   116.71
eigval :      118.33   126.35   142.56   158.62   162.95   173.26
eigval :      176.84   179.67   181.93   185.99   193.43   195.83
eigval :      200.62   204.51   214.61   221.75   224.65   226.13
eigval :      229.62   232.47   234.89   243.81   255.73   262.07
eigval :      273.33   279.16   294.13   299.73   313.37   315.16
eigval :      319.01   322.39   324.77   326.62   330.73   336.85
eigval :      343.89   351.05   354.62   356.59   357.76   361.92
eigval :      364.06   382.78   384.68   388.69   395.21   404.42
eigval :      407.22   408.17   417.72   438.84   439.24   441.31
eigval :      443.40   456.45   460.19   464.55   465.45   469.75
eigval :      475.65   495.15   498.19   501.55   518.51   518.68
eigval :      545.43   546.58   565.12   581.70   585.05   585.85
eigval :      592.61   594.73   608.53   622.62   625.11   637.21
eigval :      638.50   639.37   649.33   656.36   669.50   685.84
eigval :      686.27   700.92   701.53   710.49   715.92   716.56
eigval :      720.28   764.45   767.40   779.96   783.32   797.46
eigval :      811.47   812.46   813.39   817.37   828.37   829.64
eigval :      829.96   831.38   847.70   848.50   853.30   854.60
eigval :      856.31   860.13   871.40   871.91   896.16   901.02
eigval :      901.33   903.01   921.89   922.62   923.02   929.39
eigval :      937.04   958.20   958.69   960.15   960.62   961.29
eigval :      961.47   961.80   962.50   962.65   963.37   963.58
eigval :      963.89   984.81  1015.29  1029.61  1030.40  1033.16
eigval :     1033.50  1034.69  1034.89  1035.64  1035.96  1038.34
eigval :     1039.92  1096.14  1102.62  1113.74  1121.73  1123.56
eigval :     1124.15  1127.56  1133.65  1147.39  1159.95  1160.27
eigval :     1175.87  1188.71  1195.40  1201.22  1214.68  1217.86
eigval :     1223.41  1223.56  1224.29  1224.48  1225.76  1228.34
eigval :     1228.40  1228.46  1229.57  1231.20  1245.34  1245.83
eigval :     1252.47  1254.36  1265.96  1271.55  1277.69  1278.07
eigval :     1284.69  1286.84  1294.16  1300.79  1328.60  1333.78
eigval :     1335.22  1340.21  1352.17  1360.81  1379.57  1382.22
eigval :     1393.97  1395.04  1401.04  1401.22  1401.53  1402.35
eigval :     1402.51  1402.74  1402.87  1404.04  1405.69  1407.07
eigval :     1418.79  1421.96  1425.32  1426.58  1427.01  1428.59
eigval :     1433.12  1449.02  1455.07  1458.15  1466.85  1471.11
eigval :     1485.46  1488.11  1488.33  1488.79  1489.29  1490.97
eigval :     1491.68  1492.27  1492.54  1497.21  1498.14  1498.53
eigval :     1499.23  1501.15  1501.50  1501.63  1505.05  1509.72
eigval :     1510.56  1511.31  1513.09  1515.49  1516.63  1517.15
eigval :     1517.79  1518.39  1518.97  1527.95  1530.47  1532.18
eigval :     1557.51  1559.56  1559.93  1560.37  1608.82  3018.52
eigval :     3018.66  3018.78  3018.80  3019.33  3019.98  3020.00
eigval :     3020.15  3023.27  3023.44  3023.53  3023.62  3024.48
eigval :     3024.82  3024.89  3024.94  3026.89  3027.08  3027.28
eigval :     3027.38  3030.45  3030.50  3030.67  3030.93  3034.98
eigval :     3035.26  3035.41  3035.48  3044.62  3044.80  3044.96
eigval :     3045.05  3048.09  3048.11  3048.37  3048.86  3079.06
eigval :     3079.83  3080.83  3082.45  3082.62  3084.50  3090.04
eigval :     3093.10  3094.11  3094.50  3099.11  3101.21  3104.44
eigval :     3105.47  3118.03  3118.15  3119.86  3120.56  3458.71

   temp. (K)  partition function   enthalpy   heat capacity  entropy
                                   cal/mol     cal/K/mol   cal/K/mol   J/K/mol
 298.15  VIB  0.150E+24            31166.312    195.678    190.898
         ROT  0.181E+09              888.752      2.981     40.770
         INT  0.271E+32            32055.065    198.659    231.668
         TR   0.188E+29             1481.254      4.968     45.590
         TOT                       33536.3184   203.6272   277.2576  1160.0459

       T/K    H(0)-H(T)+PV         H(T)/Eh          T*S/Eh         G(T)/Eh
   ------------------------------------------------------------------------
    298.15    0.534435E-01    0.966815E+00    0.131734E+00    0.835081E+00
   ------------------------------------------------------------------------

         :::::::::::::::::::::::::::::::::::::::::::::::::::::
         ::                  THERMODYNAMIC                  ::
         :::::::::::::::::::::::::::::::::::::::::::::::::::::
         :: total free energy        -147.473917197880 Eh   ::
         ::.................................................::
         :: total energy             -148.308998416394 Eh   ::
         :: zero point energy           0.913371736420 Eh   ::
         :: G(RRHO) w/o ZPVE           -0.078290517907 Eh   ::
         :: G(RRHO) contrib.            0.835081218514 Eh   ::
         :::::::::::::::::::::::::::::::::::::::::::::::::::::

           -------------------------------------------------
          | TOTAL ENERGY             -148.308998416394 Eh   |
          | TOTAL ENTHALPY           -147.342183154714 Eh   |
          | TOTAL FREE ENERGY        -147.473917197880 Eh   |
          | GRADIENT NORM               0.000127178545 Eh/α |
          | HOMO-LUMO GAP               0.056974583275 eV   |
           -------------------------------------------------

 * finished run on 2025/09/14 at 02:24:40.770
