   * xtb version 6.7.1 (edcfbbe) compiled by 'albert@albert-system' on 2024-07-22

   ID    Z sym.   atoms
    1    6 C      1-20, 22-25, 27-30, 32-55
    2    7 N      21, 26, 31
    3    1 H      56-110

          program call               : xtb data2507/toluene/tBuCz2/tBuCz2.xyz --gfn 2 --gbsa toluene --ohess vtight --parallel 40 --molden --ceasefiles --namespace data2507/toluene/tBuCz2/tBuCz2_toluene_S0_preOpt
      * Solvation model:               GBSA
        Solvent                        toluene
        Solvent mass                       9.2140E+01 g/mol
          :  Hamiltonian                  GFN2-xTB          :
 * total energy  :  -148.3846017 Eh     change       -0.1239442E-08 Eh
 * total energy  :  -148.4019726 Eh     change       -0.1737084E-01 Eh
 * total energy  :  -148.4069455 Eh     change       -0.4972955E-02 Eh
 * total energy  :  -148.4083002 Eh     change       -0.1354701E-02 Eh
 * total energy  :  -148.4089319 Eh     change       -0.6316974E-03 Eh
 * total energy  :  -148.4090805 Eh     change       -0.1485460E-03 Eh
 * total energy  :  -148.4091633 Eh     change       -0.8283562E-04 Eh
 * total energy  :  -148.4092316 Eh     change       -0.6834123E-04 Eh
 * total energy  :  -148.4092928 Eh     change       -0.6113464E-04 Eh
 * total energy  :  -148.4093459 Eh     change       -0.5311133E-04 Eh
 * total energy  :  -148.4097057 Eh     change       -0.6584461E-06 Eh
 * total energy  :  -148.4097064 Eh     change       -0.6712563E-06 Eh
 * total energy  :  -148.4097071 Eh     change       -0.7258474E-06 Eh
 * total energy  :  -148.4097079 Eh     change       -0.8309849E-06 Eh
 * total energy  :  -148.4097089 Eh     change       -0.9980247E-06 Eh
 * total energy  :  -148.4097102 Eh     change       -0.1237132E-05 Eh
 * total energy  :  -148.4097117 Eh     change       -0.1578172E-05 Eh
 * total energy  :  -148.4097134 Eh     change       -0.1711849E-05 Eh
 * total energy  :  -148.4097135 Eh     change       -0.4555858E-08 Eh
   *** GEOMETRY OPTIMIZATION CONVERGED AFTER 68 ITERATIONS ***

 final structure:
================
110
 xtb: 6.7.1 (edcfbbe)
C            9.74867382455647       -0.62378329808115       -1.25748417939883
C            9.05746248650939        0.64082175555994       -1.77688544167728
C            8.90161094365100        0.50621231835483       -3.29907445667075
C            9.95794735254780        1.84210869158828       -1.45140485761800
C            7.68771954684920        0.85975477627579       -1.14807442608987
C            6.94016838854439        1.98315519512125       -1.52824966893751
C            5.69728157972810        2.27154731479572       -1.00257769310089
C            5.17559752897153        1.41024630232618       -0.04871098118910
C            5.89312171521374        0.25497083097162        0.32812035686135
C            7.14271260123354       -0.01023947449505       -0.21799520190022
C            5.06821021979800       -0.44419161766011        1.27458576755627
C            5.22914547032994       -1.62238847187651        1.98713355269999
C            4.23638848757548       -2.05261900698375        2.85764658888014
C            4.42896243777790       -3.36264438584890        3.61144872074770
C            3.24422153115915       -3.70967916132335        4.51846230444869
C            5.68569215623540       -3.25958451340742        4.48862777023301
C            4.59780575871593       -4.50297900973651        2.59567798998210
C            3.09543068367831       -1.25859030840787        3.00945078020572
C            2.90878639161701       -0.07799047252386        2.31351611715721
C            3.89209781243375        0.32437584191275        1.42461940697268
N            3.96935332845396        1.44584821636759        0.62250393686719
C            2.98964997649810        2.44503328535825        0.49891093501943
C            3.36627616754637        3.79080227600623        0.60722690291326
C            2.44668583076954        4.80912296221699        0.46193914704562
C            1.12389076166952        4.46299131496808        0.22657612746515
N            0.02553380470963        5.26300701174926        0.04224333345231
C           -1.08007036830560        4.47508176347336       -0.15080634172855
C           -2.39942149366636        4.83580153182594       -0.38356876191911
C           -3.32809901155066        3.82756809630439       -0.54086468450937
C           -2.96396529191332        2.47735259368395       -0.44631073783343
N           -3.95244287833471        1.48841130868220       -0.58199675893841
C           -5.16055141590305        1.45742674155564        0.08657395732633
C           -5.67623199253202        2.31204219045808        1.04709678638866
C           -6.92531118364859        2.03404171688033        1.57193043711327
C           -7.67934883568569        0.92403903398650        1.17945286785056
C           -9.06034931572600        0.62902416898579        1.75151334240963
C           -9.03082411571757       -0.73341580658496        2.46041835023505
C          -10.08098919819369        0.59442016055866        0.60374122314468
C           -9.52424377697871        1.68025036000532        2.76472401602664
C           -7.13783509179637        0.05763371265516        0.23850616203548
C           -5.88835894651025        0.31177338388878       -0.30509471384236
C           -5.06752238947399       -0.38433482184626       -1.25797234336298
C           -5.23837306953427       -1.55188668046674       -1.98511375981889
C           -4.24823710709948       -1.98094417539457       -2.85950466687140
C           -4.45234685680600       -3.27888952258507       -3.63089474509285
C           -3.27184697829398       -3.62265561230048       -4.54466273725722
C           -5.70936747924149       -3.15412572948067       -4.50483469955031
C           -4.62863035833239       -4.43151165610158       -2.63041058660740
C           -3.09905293996362       -1.19684362193358       -2.99824496753926
C           -2.90239907817694       -0.02683272355155       -2.28716864697847
C           -3.88410838906138        0.37498108433798       -1.39631863312415
C           -1.64454817813199        2.11310469859183       -0.21810439918685
C           -0.69329179383468        3.11477870051854       -0.08538763474297
C            0.72460516041815        3.10702425233149        0.14715428681765
C            1.66671393493058        2.09528331701383        0.26848674498458
H           10.72205415630654       -0.72644488318451       -1.73362804216463
H            9.16582841034447       -1.51212261063962       -1.49084802941349
H            9.90459089241180       -0.57093892740429       -0.18218130722041
H            8.24825306981003       -0.33109227334533       -3.53740412969856
H            9.87115091754285        0.33073218697647       -3.76122630182510
H            8.47484929612397        1.40506133065104       -3.73563523150960
H            9.55012229031262        2.76471927553385       -1.85530885612569
H           10.05675397826829        1.95659944767898       -0.37345383613890
H           10.94922192727223        1.69368319606244       -1.87526610138076
H            7.34187016208743        2.66003897764533       -2.26727106827471
H            5.14793439587431        3.13924123369208       -1.33664824436147
H            7.66388844658481       -0.89935247372787        0.09622477414532
H            6.13535260903556       -2.19300439809606        1.85229611091967
H            3.10037168503486       -2.95072833960839        5.28435629322396
H            3.43714773953771       -4.65736972860860        5.01798249759893
H            2.32740236272049       -3.81466955939290        3.94248178173633
H            6.57357757727416       -3.07914552136699        3.88878823840453
H            5.83223180299693       -4.18335052185947        5.04501573038221
H            5.58256180091778       -2.44103059993668        5.19862533913338
H            3.72070056862850       -4.56788024226515        1.95434691343378
H            4.71856431387702       -5.45272909267516        3.11315548741167
H            5.46857664223259       -4.34626210771848        1.96492961550880
H            2.31782002929280       -1.55964743523808        3.69215499924681
H            2.01851900004106        0.51276459934455        2.47157547107882
H            4.39914203521640        4.02498505121568        0.81612536266646
H            2.74979514239294        5.84249885495864        0.53742769407930
H            0.03014022388574        6.26913675115469        0.04747377323995
H           -2.69301436419221        5.87265548470955       -0.44818777312435
H           -4.35848844170412        4.07345601398025       -0.74845174071398
H           -5.11928376051361        3.17096750469723        1.39114058447498
H           -7.31289074276847        2.71169604233902        2.31480668969769
H           -8.76736647858238       -1.53247986142034        1.77275406099839
H          -10.00763135612296       -0.95733378886086        2.88477825944007
H           -8.29829341065278       -0.72239881278781        3.26544379478937
H          -10.08804769788816        1.54749606068870        0.07796989486286
H           -9.84489283118694       -0.18716770651675       -0.11321430835798
H          -11.07948106100449        0.40778256992042        0.99430535461224
H           -9.58472058014196        2.66541687389647        2.30744046297288
H          -10.51587008226337        1.41789250932367        3.12907859370933
H           -8.85404299741379        1.72340014805193        3.62040873887644
H           -7.67547979173100       -0.82262807134733       -0.07969502436722
H           -6.15024707383084       -2.11550413445210       -1.85894713056333
H           -3.47415876746080       -4.56054416104948       -5.05874254358844
H           -2.35538544248469       -3.74522826606465       -3.97163477379902
H           -3.12189871964454       -2.85305099898097       -5.29865442629812
H           -6.59518894064188       -2.97462000664757       -3.90167960283142
H           -5.60054497587180       -2.32719161705619       -5.20416183289017
H           -5.86395592593436       -4.06926266949955       -5.07318077019949
H           -4.75893379027841       -5.37301869848351       -3.16048782257217
H           -5.49643914744202       -4.27576096053110       -1.99529219942598
H           -3.75058428122747       -4.51272532039066       -1.99223962821183
H           -2.32254708964805       -1.49722686784009       -3.68249147703314
H           -2.00560326138713        0.55640870150879       -2.43563694678736
H           -1.37086344806584        1.07286046235554       -0.13317209000966
H            1.38345163635193        1.05851654174514        0.17308553493880

          :  Hamiltonian                  GFN2-xTB          :
         :: gradient norm              0.000052649527 Eh/a0 ::
         :: HOMO-LUMO gap              2.587674638131 eV    ::
         :: SCC energy              -151.004086395950 Eh    ::
         :: -> dispersion             -0.137440857426 Eh    ::
         :: -> Gsolv                  -0.057025736018 Eh    ::
         :: repulsion energy           2.594372944358 Eh    ::

    * Orbital Energies and Occupations

         #    Occupation            Energy/Eh            Energy/eV
      -------------------------------------------------------------
         1        2.0000           -0.6828572             -18.5815
       ...           ...                  ...                  ...
       127        2.0000           -0.4084942             -11.1157
       128        2.0000           -0.4046795             -11.0119
       129        2.0000           -0.4041166             -10.9966
       130        2.0000           -0.4035124             -10.9801
       131        2.0000           -0.4029137             -10.9638
       132        2.0000           -0.3913058             -10.6480
       133        2.0000           -0.3906991             -10.6315
       134        2.0000           -0.3860620             -10.5053
       135        2.0000           -0.3781726             -10.2906
       136        2.0000           -0.3698776             -10.0649
       137        2.0000           -0.3690717             -10.0430
       138        2.0000           -0.3515899              -9.5672
       139        2.0000           -0.3474670              -9.4551 (HOMO)
       140                         -0.2523717              -6.8674 (LUMO)
       141                         -0.2382829              -6.4840
       142                         -0.2366481              -6.4395
       143                         -0.2295529              -6.2465
       144                         -0.2139601              -5.8222
       145                         -0.2133236              -5.8048
       146                         -0.2082569              -5.6670
       147                         -0.1981612              -5.3922
       148                         -0.1790216              -4.8714
       149                         -0.1789498              -4.8695
       150                         -0.1781231              -4.8470
       ...                                ...                  ...
       275                          0.7509907              20.4355
      -------------------------------------------------------------
                  HL-Gap            0.0950953 Eh            2.5877 eV

     #   Z          covCN         q      C6AA      α(0)
     1   6 C        3.761    -0.105    22.562     6.771
     2   6 C        3.902     0.024    20.108     6.374
     3   6 C        3.761    -0.104    22.534     6.767
     4   6 C        3.761    -0.104    22.535     6.767
     5   6 C        2.972    -0.005    28.141     8.701
     6   6 C        2.931    -0.042    29.035     8.837
     7   6 C        2.908    -0.056    29.390     8.889
     8   6 C        3.080     0.044    26.928     8.507
     9   6 C        3.066    -0.023    28.506     8.755
    10   6 C        2.918    -0.046    29.142     8.852
    11   6 C        3.066    -0.022    28.494     8.753
    12   6 C        2.920    -0.042    29.043     8.838
    13   6 C        2.971    -0.005    28.139     8.701
    14   6 C        3.902     0.024    20.108     6.374
    15   6 C        3.761    -0.106    22.567     6.772
    16   6 C        3.761    -0.104    22.530     6.766
    17   6 C        3.761    -0.104    22.530     6.766
    18   6 C        2.928    -0.046    29.144     8.853
    19   6 C        2.909    -0.056    29.398     8.891
    20   6 C        3.078     0.044    26.932     8.508
    21   7 N        2.801    -0.052    22.237     7.004
    22   6 C        2.912     0.054    26.797     8.488
    23   6 C        2.926    -0.046    29.141     8.853
    24   6 C        2.909    -0.054    29.345     8.883
    25   6 C        3.073     0.051    26.785     8.486
    26   7 N        2.754    -0.114    23.478     7.196
    27   6 C        3.073     0.051    26.785     8.486
    28   6 C        2.909    -0.054    29.345     8.883
    29   6 C        2.926    -0.046    29.141     8.853
    30   6 C        2.912     0.054    26.797     8.488
    31   7 N        2.801    -0.052    22.244     7.005
    32   6 C        3.078     0.044    26.927     8.507
    33   6 C        2.909    -0.057    29.407     8.892
    34   6 C        2.928    -0.046    29.145     8.853
    35   6 C        2.971    -0.005    28.141     8.701
    36   6 C        3.902     0.024    20.107     6.374
    37   6 C        3.761    -0.104    22.528     6.766
    38   6 C        3.761    -0.104    22.529     6.766
    39   6 C        3.761    -0.106    22.571     6.773
    40   6 C        2.920    -0.042    29.035     8.836
    41   6 C        3.064    -0.022    28.492     8.753
    42   6 C        3.065    -0.022    28.493     8.753
    43   6 C        2.920    -0.042    29.036     8.836
    44   6 C        2.971    -0.005    28.139     8.701
    45   6 C        3.902     0.024    20.107     6.374
    46   6 C        3.761    -0.106    22.569     6.772
    47   6 C        3.761    -0.104    22.529     6.766
    48   6 C        3.761    -0.104    22.528     6.766
    49   6 C        2.928    -0.046    29.140     8.853
    50   6 C        2.909    -0.056    29.399     8.891
    51   6 C        3.077     0.044    26.924     8.507
    52   6 C        2.915    -0.047    29.174     8.857
    53   6 C        3.071    -0.015    28.317     8.725
    54   6 C        3.071    -0.015    28.317     8.725
    55   6 C        2.915    -0.047    29.172     8.857
    56   1 H        0.925     0.036     2.508     2.477
    57   1 H        0.925     0.034     2.524     2.485
    58   1 H        0.925     0.035     2.522     2.484
    59   1 H        0.925     0.031     2.567     2.505
    60   1 H        0.925     0.037     2.492     2.469
    61   1 H        0.925     0.035     2.515     2.480
    62   1 H        0.925     0.035     2.513     2.479
    63   1 H        0.925     0.031     2.565     2.505
    64   1 H        0.925     0.037     2.493     2.469
    65   1 H        0.926     0.027     2.623     2.533
    66   1 H        0.926     0.025     2.663     2.552
    67   1 H        0.926     0.034     2.532     2.489
    68   1 H        0.926     0.027     2.623     2.533
    69   1 H        0.925     0.034     2.525     2.485
    70   1 H        0.925     0.036     2.505     2.475
    71   1 H        0.925     0.034     2.524     2.484
    72   1 H        0.925     0.035     2.512     2.479
    73   1 H        0.925     0.037     2.494     2.470
    74   1 H        0.925     0.031     2.569     2.506
    75   1 H        0.925     0.031     2.571     2.507
    76   1 H        0.925     0.037     2.496     2.471
    77   1 H        0.925     0.035     2.511     2.478
    78   1 H        0.926     0.034     2.527     2.486
    79   1 H        0.926     0.024     2.669     2.555
    80   1 H        0.926     0.043     2.415     2.430
    81   1 H        0.926     0.039     2.467     2.456
    82   1 H        0.860     0.165     1.301     1.786
    83   1 H        0.926     0.039     2.466     2.456
    84   1 H        0.926     0.043     2.415     2.430
    85   1 H        0.926     0.025     2.661     2.551
    86   1 H        0.926     0.035     2.519     2.482
    87   1 H        0.925     0.035     2.519     2.482
    88   1 H        0.925     0.037     2.494     2.469
    89   1 H        0.925     0.031     2.568     2.506
    90   1 H        0.925     0.031     2.568     2.506
    91   1 H        0.925     0.035     2.516     2.481
    92   1 H        0.925     0.037     2.495     2.470
    93   1 H        0.925     0.035     2.519     2.482
    94   1 H        0.925     0.036     2.504     2.475
    95   1 H        0.925     0.035     2.522     2.483
    96   1 H        0.926     0.026     2.637     2.540
    97   1 H        0.926     0.027     2.635     2.539
    98   1 H        0.925     0.036     2.504     2.475
    99   1 H        0.925     0.035     2.523     2.484
   100   1 H        0.925     0.035     2.523     2.484
   101   1 H        0.925     0.035     2.516     2.481
   102   1 H        0.925     0.031     2.567     2.506
   103   1 H        0.925     0.037     2.494     2.469
   104   1 H        0.925     0.037     2.495     2.470
   105   1 H        0.925     0.035     2.515     2.480
   106   1 H        0.925     0.031     2.569     2.507
   107   1 H        0.926     0.034     2.524     2.484
   108   1 H        0.926     0.025     2.666     2.553
   109   1 H        0.926     0.041     2.430     2.438
   110   1 H        0.926     0.041     2.430     2.438

molecular dipole:
                 x           y           z       tot (Debye)
 q only:        0.011       1.077       0.007
   full:        0.009       1.409      -0.002       3.582

 projected vibrational frequencies (cm⁻¹)
eigval :       -0.00    -0.00    -0.00    -0.00     0.00     0.00
eigval :        9.16    10.17    12.21    23.20    25.72    31.53
eigval :       32.94    35.63    36.29    45.58    58.97    64.75
eigval :       68.29    77.52    78.63    80.72    95.67   113.62
eigval :      116.61   126.84   146.41   158.72   160.04   175.39
eigval :      177.86   179.09   181.75   186.27   191.17   193.03
eigval :      197.05   201.97   221.98   222.89   227.38   230.24
eigval :      235.56   241.61   246.46   261.80   265.56   273.49
eigval :      274.39   298.15   298.62   299.67   303.27   314.24
eigval :      319.53   319.89   325.46   326.98   327.06   342.94
eigval :      350.60   355.52   356.39   357.33   360.67   365.48
eigval :      378.40   390.15   392.15   398.90   403.35   406.65
eigval :      412.45   412.98   427.71   442.09   444.31   445.58
eigval :      446.45   452.58   457.65   460.37   465.34   468.01
eigval :      468.60   470.38   499.06   508.16   518.51   521.41
eigval :      547.14   556.81   569.05   582.24   582.97   586.22
eigval :      589.20   609.35   613.54   626.64   637.07   638.61
eigval :      638.87   642.55   658.53   682.51   687.41   687.75
eigval :      706.69   707.12   708.61   714.78   718.11   718.74
eigval :      727.54   805.08   812.21   814.70   820.27   820.85
eigval :      823.61   825.10   830.77   833.65   857.19   860.81
eigval :      871.37   872.61   873.18   876.00   876.85   880.59
eigval :      884.86   885.91   900.25   904.74   913.30   914.71
eigval :      916.31   917.93   925.43   925.54   926.52   930.13
eigval :      951.41   958.43   958.74   958.87   958.99   961.27
eigval :      961.34   961.51   961.82   962.21   962.23   962.41
eigval :      962.71   996.77  1024.16  1031.73  1034.83  1034.98
eigval :     1035.02  1035.14  1035.42  1035.44  1035.62  1036.60
eigval :     1039.61  1107.62  1113.35  1129.00  1130.03  1132.32
eigval :     1135.64  1141.05  1151.73  1160.89  1178.32  1180.70
eigval :     1194.91  1199.58  1205.56  1223.22  1224.88  1225.16
eigval :     1225.36  1225.41  1225.76  1230.05  1230.60  1230.89
eigval :     1235.72  1236.53  1238.81  1250.12  1253.24  1259.96
eigval :     1260.74  1283.69  1284.59  1289.93  1295.96  1304.52
eigval :     1305.18  1308.67  1311.78  1340.32  1344.70  1346.52
eigval :     1359.43  1361.55  1365.73  1379.76  1394.25  1399.35
eigval :     1399.94  1401.22  1401.54  1402.48  1402.88  1402.91
eigval :     1402.98  1411.56  1412.75  1424.18  1426.71  1426.86
eigval :     1426.92  1426.99  1429.06  1444.39  1446.72  1473.55
eigval :     1474.27  1474.72  1480.13  1482.75  1488.77  1489.51
eigval :     1490.29  1490.33  1490.41  1492.65  1492.77  1493.95
eigval :     1494.07  1499.70  1499.84  1500.61  1500.83  1502.20
eigval :     1504.30  1504.60  1504.91  1511.36  1511.69  1511.76
eigval :     1511.99  1518.14  1518.65  1519.14  1519.19  1565.19
eigval :     1567.52  1570.87  1579.05  1582.33  1584.17  1603.25
eigval :     1603.71  1605.40  1617.41  1618.09  1619.40  3016.75
eigval :     3016.93  3017.34  3017.55  3017.83  3017.85  3018.01
eigval :     3018.37  3021.74  3021.79  3022.41  3022.55  3023.07
eigval :     3023.13  3023.31  3023.43  3025.42  3025.51  3026.14
eigval :     3026.23  3029.06  3029.22  3029.41  3029.51  3033.99
eigval :     3034.20  3034.34  3034.45  3043.25  3043.37  3043.43
eigval :     3043.46  3046.35  3046.53  3046.57  3046.73  3074.43
eigval :     3076.64  3077.55  3078.32  3081.92  3082.62  3082.97
eigval :     3083.63  3084.47  3087.41  3095.89  3096.91  3097.97
eigval :     3100.12  3112.26  3113.51  3113.71  3114.03  3480.20

   temp. (K)  partition function   enthalpy   heat capacity  entropy
                                   cal/mol     cal/K/mol   cal/K/mol   J/K/mol
 298.15  VIB  0.115E+24            30858.083    193.410    189.286
         ROT  0.181E+09              888.752      2.981     40.762
         INT  0.208E+32            31746.835    196.391    230.047
         TR   0.188E+29             1481.254      4.968     45.590
         TOT                       33228.0892   201.3595   275.6372  1153.2661

       T/K    H(0)-H(T)+PV         H(T)/Eh          T*S/Eh         G(T)/Eh
   ------------------------------------------------------------------------
    298.15    0.529523E-01    0.972292E+00    0.130964E+00    0.841328E+00
   ------------------------------------------------------------------------

         :::::::::::::::::::::::::::::::::::::::::::::::::::::
         ::                  THERMODYNAMIC                  ::
         :::::::::::::::::::::::::::::::::::::::::::::::::::::
         :: total free energy        -147.568385632898 Eh   ::
         ::.................................................::
         :: total energy             -148.409713449757 Eh   ::
         :: zero point energy           0.919339624089 Eh   ::
         :: G(RRHO) w/o ZPVE           -0.078011807231 Eh   ::
         :: G(RRHO) contrib.            0.841327816859 Eh   ::
         :::::::::::::::::::::::::::::::::::::::::::::::::::::

           -------------------------------------------------
          | TOTAL ENERGY             -148.409713449757 Eh   |
          | TOTAL ENTHALPY           -147.437421494926 Eh   |
          | TOTAL FREE ENERGY        -147.568385632898 Eh   |
          | GRADIENT NORM               0.000052649158 Eh/α |
          | HOMO-LUMO GAP               2.587674645256 eV   |
           -------------------------------------------------

 * finished run on 2025/09/14 at 02:02:43.907
