   * xtb version 6.7.1 (edcfbbe) compiled by 'albert@albert-system' on 2024-07-22

   ID    Z sym.   atoms
    1    7 N      1, 9, 24, 26, 32
    2    6 C      2-8, 10-23, 25, 27-31, 33-46
    3    1 H      47-71

          program call               : xtb data2507/toluene/CzPm/CzPm_toluene_S0_crest.xyz --gfn 2 --gbsa toluene --ohess vtight --parallel 40 --molden --ceasefiles --namespace data2507/toluene/CzPm/CzPm_toluene_S0_finalOpt
      * Solvation model:               GBSA
        Solvent                        toluene
        Solvent mass                       9.2140E+01 g/mol
          :  Hamiltonian                  GFN2-xTB          :
 * total energy  :  -115.2438639 Eh     change       -0.6848069E-09 Eh
 * total energy  :  -115.2439044 Eh     change       -0.4048894E-04 Eh
 * total energy  :  -115.2439205 Eh     change       -0.1615874E-04 Eh
 * total energy  :  -115.2439255 Eh     change       -0.4910471E-05 Eh
 * total energy  :  -115.2439289 Eh     change       -0.3483136E-05 Eh
 * total energy  :  -115.2439312 Eh     change       -0.2234191E-05 Eh
 * total energy  :  -115.2439339 Eh     change       -0.2696228E-05 Eh
 * total energy  :  -115.2439366 Eh     change       -0.2756622E-05 Eh
 * total energy  :  -115.2439398 Eh     change       -0.3206333E-05 Eh
 * total energy  :  -115.2439437 Eh     change       -0.3895983E-05 Eh
 * total energy  :  -115.2439735 Eh     change       -0.2282025E-06 Eh
 * total energy  :  -115.2439737 Eh     change       -0.2111298E-06 Eh
 * total energy  :  -115.2439739 Eh     change       -0.2332042E-06 Eh
 * total energy  :  -115.2439741 Eh     change       -0.2190898E-06 Eh
 * total energy  :  -115.2439743 Eh     change       -0.2110014E-06 Eh
 * total energy  :  -115.2439745 Eh     change       -0.2038817E-06 Eh
 * total energy  :  -115.2439747 Eh     change       -0.1397442E-06 Eh
 * total energy  :  -115.2439747 Eh     change       -0.2243210E-07 Eh
 * total energy  :  -115.2439748 Eh     change       -0.6499816E-07 Eh
   *** GEOMETRY OPTIMIZATION CONVERGED AFTER 35 ITERATIONS ***

 final structure:
================
71
 xtb: 6.7.1 (edcfbbe)
N           -0.00078590597858       -1.24438274727885        0.68528309226728
C           -0.00089830458572       -0.10724253180123        0.51306986396815
C           -0.00135117005480        1.29524552976774        0.41595287164224
C           -1.20631948842103        2.03325347878651        0.44150569158477
C           -2.52053472628658        1.41716169419320        0.29286091812368
C           -3.61905283594254        1.99016270857650        0.93898079950790
C           -4.87205942433058        1.43006351396164        0.82617651852565
C           -5.06444562066341        0.29195747156160        0.04028751567972
N           -6.32969462831768       -0.28010210943529       -0.07983347659102
C           -7.50625180324752        0.39786101593035       -0.35399958172967
C           -7.71111523653834        1.74358159272847       -0.62291730353126
C           -8.99938954975992        2.15670122559552       -0.90881138423359
C          -10.06252171340494        1.25720626148955       -0.93860656249683
C           -9.85983797762728       -0.08805908486599       -0.70028991455322
C           -8.57390173632089       -0.52622834395686       -0.41191214724923
C           -8.00980306256352       -1.82269746398149       -0.15151451306074
C           -8.55417396073165       -3.09698183642747       -0.05836949463867
C           -7.71599290147100       -4.15450707920292        0.23605180219044
C           -6.35560364088479       -3.94961219675628        0.45441656755720
C           -5.79148244599828       -2.69015252334115        0.36720551006532
C           -6.62351035125028       -1.62851183291477        0.04156437653145
C           -3.97567144958142       -0.26295747370959       -0.63411699246379
C           -2.72001461035050        0.29042633194649       -0.50646704965994
N           -1.17887493642860        3.35432266449847        0.61857802265861
C           -0.00274472542480        3.93368300346221        0.73601534810948
N            1.17388323767395        3.35562387373916        0.61755281787471
C            1.20282646674159        2.03450028054371        0.44071473553440
C            2.51790179463278        1.42029844195586        0.29182170728850
C            2.71895984721497        0.29213992963083       -0.50510592368825
C            3.97569389105123       -0.25889194212306       -0.63285236714041
C            5.06403344674683        0.30021246994849        0.03871987675177
N            6.33081617441873       -0.26843403433032       -0.08180342454347
C            7.50470983063730        0.41293490383214       -0.35880084979201
C            7.70421876706932        1.75835501730983       -0.63320329825068
C            8.99079762649289        2.17537008026096       -0.92101607822108
C           10.05746262109793        1.27994046957294       -0.94722625581662
C            9.86010556754944       -0.06512884859396       -0.70339557046159
C            8.57593749880099       -0.50719672368202       -0.41304800709754
C            8.01689481972267       -1.80472405444642       -0.14708541666966
C            8.56633496339569       -3.07640141108802       -0.04818990548833
C            7.73230560327087       -4.13591983545036        0.25080785680529
C            6.37100649024754       -3.93552580933292        0.46767035227845
C            5.80185782158211       -2.67871749815286        0.37483355312069
C            6.62981389401267       -1.61516549379138        0.04510377483412
C            4.87000887290060        1.43960289684156        0.82235191671597
C            3.61590663644522        1.99704698281171        0.93555313358693
H           -3.46230439876512        2.86731883706732        1.54732807162940
H           -5.70706624837117        1.85563728854971        1.36109379323598
H           -6.89343636089267        2.44793501884784       -0.62516634754339
H           -9.18375187361814        3.20021448840770       -1.11836742887725
H          -11.05503632739942        1.61930068578852       -1.16289427899786
H          -10.67955163176392       -0.78931355607112       -0.74323387789523
H           -9.61199227346755       -3.25219958482486       -0.20835097359313
H           -8.11826097468671       -5.15415848456987        0.30976927715996
H           -5.72630442268394       -4.79197008036580        0.70185899683446
H           -4.73937892104234       -2.54343689052599        0.55911466541766
H           -4.12610343288948       -1.11587249969824       -1.27780443523326
H           -1.89752818901028       -0.13402661332427       -1.06248525917778
H           -0.00323946234185        5.00013825052229        0.92517428727451
H            1.89679926390535       -0.13544676278963       -1.05919256229845
H            4.12721260070768       -1.11314425437291       -1.27451687796442
H            6.88371202248362        2.45941418523043       -0.63813480665264
H            9.17100885459004        3.21872490039509       -1.13492362175408
H           11.04852078909736        1.64501885311635       -1.17311879106717
H           10.68255288670053       -0.76333278259944       -0.74354443731675
H            9.62481479781554       -3.22804508719706       -0.19716653527266
H            8.13856897178710       -5.13358924461163        0.32926578578077
H            5.74501223861636       -4.77935309834555        0.71847871227500
H            4.74907021428977       -2.53538695598701        0.56554194830837
H            5.70478671828872        1.86828817673629        1.35514111809300
H            3.45787151290983        2.87512136683902        1.54222701030826

          :  Hamiltonian                  GFN2-xTB          :
         :: gradient norm              0.000070499346 Eh/a0 ::
         :: HOMO-LUMO gap              1.710479360844 eV    ::
         :: SCC energy              -117.405322177557 Eh    ::
         :: -> dispersion             -0.098994655905 Eh    ::
         :: -> Gsolv                  -0.050740717020 Eh    ::
         :: repulsion energy           2.161347408930 Eh    ::

    * Orbital Energies and Occupations

         #    Occupation            Energy/Eh            Energy/eV
      -------------------------------------------------------------
         1        2.0000           -0.7035360             -19.1442
       ...           ...                  ...                  ...
        95        2.0000           -0.4219722             -11.4824
        96        2.0000           -0.4217059             -11.4752
        97        2.0000           -0.4205604             -11.4440
        98        2.0000           -0.4205555             -11.4439
        99        2.0000           -0.4196936             -11.4204
       100        2.0000           -0.4148872             -11.2897
       101        2.0000           -0.4086927             -11.1211
       102        2.0000           -0.4086871             -11.1209
       103        2.0000           -0.3891228             -10.5886
       104        2.0000           -0.3822527             -10.4016
       105        2.0000           -0.3822505             -10.4016
       106        2.0000           -0.3687878             -10.0352
       107        2.0000           -0.3683179             -10.0224 (HOMO)
       108                         -0.3054588              -8.3120 (LUMO)
       109                         -0.3013773              -8.2009
       110                         -0.2511384              -6.8338
       111                         -0.2485726              -6.7640
       112                         -0.2456893              -6.6855
       113                         -0.2446467              -6.6572
       114                         -0.2434383              -6.6243
       115                         -0.2279916              -6.2040
       116                         -0.2255255              -6.1369
       117                         -0.2255222              -6.1368
       118                         -0.2232238              -6.0742
       ...                                ...                  ...
       209                          1.1406375              31.0383
      -------------------------------------------------------------
                  HL-Gap            0.0628590 Eh            1.7105 eV

     #   Z          covCN         q      C6AA      α(0)
     1   7 N        0.911    -0.273    27.053     7.523
     2   6 C        1.905     0.116    28.240     8.582
     3   6 C        2.962    -0.023    28.566     8.767
     4   6 C        2.978     0.120    25.366     8.261
     5   6 C        2.980    -0.005    28.145     8.702
     6   6 C        2.924    -0.022    28.547     8.762
     7   6 C        2.920    -0.040    29.002     8.831
     8   6 C        2.912     0.073    26.365     8.420
     9   7 N        2.801    -0.037    21.956     6.959
    10   6 C        3.069     0.046    26.910     8.506
    11   6 C        2.910    -0.051    29.264     8.870
    12   6 C        2.924    -0.033    28.833     8.806
    13   6 C        2.920    -0.040    29.000     8.831
    14   6 C        2.912    -0.033    28.830     8.805
    15   6 C        3.066    -0.015    28.327     8.727
    16   6 C        3.066    -0.015    28.330     8.728
    17   6 C        2.912    -0.033    28.832     8.805
    18   6 C        2.920    -0.040    28.997     8.831
    19   6 C        2.924    -0.033    28.828     8.805
    20   6 C        2.910    -0.050    29.251     8.868
    21   6 C        3.069     0.045    26.911     8.506
    22   6 C        2.921    -0.040    28.998     8.831
    23   6 C        2.921    -0.026    28.644     8.777
    24   7 N        1.842    -0.263    27.692     7.799
    25   6 C        2.897     0.160    24.552     8.124
    26   7 N        1.842    -0.263    27.692     7.799
    27   6 C        2.978     0.120    25.367     8.262
    28   6 C        2.980    -0.005    28.145     8.702
    29   6 C        2.921    -0.026    28.644     8.777
    30   6 C        2.921    -0.040    28.998     8.831
    31   6 C        2.912     0.073    26.365     8.420
    32   7 N        2.801    -0.037    21.957     6.959
    33   6 C        3.069     0.046    26.910     8.506
    34   6 C        2.910    -0.051    29.264     8.870
    35   6 C        2.924    -0.033    28.833     8.806
    36   6 C        2.920    -0.040    29.000     8.831
    37   6 C        2.912    -0.033    28.830     8.805
    38   6 C        3.066    -0.015    28.328     8.727
    39   6 C        3.066    -0.015    28.330     8.728
    40   6 C        2.912    -0.033    28.832     8.805
    41   6 C        2.920    -0.040    28.997     8.831
    42   6 C        2.924    -0.033    28.828     8.805
    43   6 C        2.910    -0.050    29.251     8.869
    44   6 C        3.069     0.045    26.911     8.506
    45   6 C        2.920    -0.040    29.002     8.831
    46   6 C        2.924    -0.022    28.547     8.762
    47   1 H        0.926     0.061     2.193     2.316
    48   1 H        0.926     0.059     2.212     2.326
    49   1 H        0.926     0.034     2.533     2.489
    50   1 H        0.926     0.034     2.531     2.488
    51   1 H        0.926     0.032     2.560     2.502
    52   1 H        0.926     0.035     2.523     2.484
    53   1 H        0.926     0.035     2.519     2.482
    54   1 H        0.926     0.032     2.558     2.501
    55   1 H        0.926     0.034     2.535     2.490
    56   1 H        0.926     0.032     2.561     2.503
    57   1 H        0.926     0.056     2.247     2.344
    58   1 H        0.926     0.040     2.452     2.449
    59   1 H        0.925     0.048     2.350     2.397
    60   1 H        0.926     0.040     2.452     2.449
    61   1 H        0.926     0.056     2.247     2.344
    62   1 H        0.926     0.034     2.534     2.489
    63   1 H        0.926     0.034     2.531     2.488
    64   1 H        0.926     0.032     2.560     2.502
    65   1 H        0.926     0.035     2.523     2.484
    66   1 H        0.926     0.035     2.519     2.482
    67   1 H        0.926     0.032     2.558     2.501
    68   1 H        0.926     0.034     2.536     2.490
    69   1 H        0.926     0.032     2.561     2.503
    70   1 H        0.926     0.059     2.212     2.326
    71   1 H        0.926     0.061     2.192     2.315

molecular dipole:
                 x           y           z       tot (Debye)
 q only:       -0.000       0.335      -0.187
   full:       -0.000       0.525      -0.257       1.487

 projected vibrational frequencies (cm⁻¹)
eigval :       -0.00    -0.00     0.00     0.00     0.00     0.00
eigval :       10.62    13.58    17.23    24.49    35.00    38.45
eigval :       47.31    58.28    73.66    84.66    97.45   102.80
eigval :      105.43   116.02   124.56   125.60   144.20   148.48
eigval :      163.42   171.40   185.62   192.94   223.84   242.07
eigval :      256.26   259.59   273.33   273.78   284.69   289.06
eigval :      357.39   375.26   381.91   382.39   386.34   389.71
eigval :      398.11   400.28   408.62   418.62   425.03   429.84
eigval :      432.45   439.45   441.57   488.66   498.88   517.51
eigval :      517.74   534.20   535.25   541.18   541.32   550.25
eigval :      564.01   572.61   580.68   582.30   595.05   595.36
eigval :      609.45   612.16   614.42   639.43   651.30   674.48
eigval :      675.05   690.31   699.40   705.94   708.94   711.49
eigval :      732.39   750.25   755.57   757.07   770.17   770.43
eigval :      781.50   781.84   822.18   824.47   831.87   835.57
eigval :      863.71   864.48   874.55   874.67   877.34   877.85
eigval :      896.69   897.13   898.71   903.26   903.52   904.22
eigval :      904.35   919.96   920.18   921.72   921.90   927.39
eigval :      928.35   929.33   933.58   934.33   938.46  1000.82
eigval :     1011.21  1011.25  1013.23  1066.76  1071.20  1071.23
eigval :     1074.91  1075.16  1115.67  1115.97  1134.24  1135.12
eigval :     1151.68  1151.80  1158.01  1175.45  1175.55  1179.39
eigval :     1179.96  1180.48  1180.71  1192.81  1201.39  1202.65
eigval :     1217.60  1234.41  1234.42  1242.96  1243.20  1261.49
eigval :     1261.63  1273.10  1293.35  1294.92  1297.75  1298.82
eigval :     1304.96  1322.05  1325.82  1354.24  1354.39  1357.48
eigval :     1357.49  1359.17  1361.25  1381.68  1387.95  1408.82
eigval :     1408.93  1420.70  1423.71  1426.19  1426.22  1471.40
eigval :     1471.52  1483.88  1484.70  1484.96  1491.66  1493.21
eigval :     1508.78  1551.50  1551.66  1574.22  1574.22  1583.92
eigval :     1584.25  1588.11  1588.28  1596.51  1596.54  1610.95
eigval :     1610.97  2332.90  3049.72  3074.49  3074.74  3075.03
eigval :     3075.07  3080.23  3080.27  3081.00  3081.12  3086.57
eigval :     3087.01  3087.94  3088.08  3089.46  3089.54  3094.18
eigval :     3094.23  3095.91  3095.95  3096.59  3096.67  3102.33
eigval :     3102.47  3106.64  3106.78

   temp. (K)  partition function   enthalpy   heat capacity  entropy
                                   cal/mol     cal/K/mol   cal/K/mol   J/K/mol
 298.15  VIB  0.291E+16            20382.988    131.060    125.652
         ROT  0.101E+09              888.752      2.981     39.612
         INT  0.295E+24            21271.740    134.041    165.263
         TR   0.138E+29             1481.254      4.968     44.977
         TOT                       22752.9941   139.0090   210.2401   879.6444

       T/K    H(0)-H(T)+PV         H(T)/Eh          T*S/Eh         G(T)/Eh
   ------------------------------------------------------------------------
    298.15    0.362592E-01    0.568609E+00    0.998918E-01    0.468717E+00
   ------------------------------------------------------------------------

         :::::::::::::::::::::::::::::::::::::::::::::::::::::
         ::                  THERMODYNAMIC                  ::
         :::::::::::::::::::::::::::::::::::::::::::::::::::::
         :: total free energy        -114.775257412316 Eh   ::
         ::.................................................::
         :: total energy             -115.243974767169 Eh   ::
         :: zero point energy           0.532349988385 Eh   ::
         :: G(RRHO) w/o ZPVE           -0.063632633532 Eh   ::
         :: G(RRHO) contrib.            0.468717354852 Eh   ::
         :::::::::::::::::::::::::::::::::::::::::::::::::::::

           -------------------------------------------------
          | TOTAL ENERGY             -115.243974767169 Eh   |
          | TOTAL ENTHALPY           -114.675365574649 Eh   |
          | TOTAL FREE ENERGY        -114.775257412316 Eh   |
          | GRADIENT NORM               0.000070534917 Eh/α |
          | HOMO-LUMO GAP               1.710481767890 eV   |
           -------------------------------------------------

 * finished run on 2025/09/14 at 12:03:03.240
