   * xtb version 6.7.1 (edcfbbe) compiled by 'albert@albert-system' on 2024-07-22

   ID    Z sym.   atoms
    1    7 N      1, 9, 24, 26, 32
    2    6 C      2-8, 10-23, 25, 27-31, 33-46
    3    1 H      47-71

          program call               : xtb data2507/toluene/CzPm/CzPm.xyz --gfn 2 --gbsa toluene --ohess vtight --parallel 40 --molden --ceasefiles --namespace data2507/toluene/CzPm/CzPm_toluene_S0_preOpt
      * Solvation model:               GBSA
        Solvent                        toluene
        Solvent mass                       9.2140E+01 g/mol
          :  Hamiltonian                  GFN2-xTB          :
 * total energy  :  -115.2199291 Eh     change       -0.5442757E-09 Eh
 * total energy  :  -115.2354229 Eh     change       -0.1549382E-01 Eh
 * total energy  :  -115.2386365 Eh     change       -0.3213621E-02 Eh
 * total energy  :  -115.2393041 Eh     change       -0.6675860E-03 Eh
 * total energy  :  -115.2401045 Eh     change       -0.8004609E-03 Eh
 * total energy  :  -115.2405414 Eh     change       -0.4368096E-03 Eh
 * total energy  :  -115.2408742 Eh     change       -0.3328500E-03 Eh
 * total energy  :  -115.2411619 Eh     change       -0.2876560E-03 Eh
 * total energy  :  -115.2414246 Eh     change       -0.2627211E-03 Eh
 * total energy  :  -115.2416577 Eh     change       -0.2331100E-03 Eh
 * total energy  :  -115.2439493 Eh     change       -0.3639398E-05 Eh
 * total energy  :  -115.2439533 Eh     change       -0.3924099E-05 Eh
 * total energy  :  -115.2439562 Eh     change       -0.2947686E-05 Eh
 * total energy  :  -115.2439580 Eh     change       -0.1824481E-05 Eh
 * total energy  :  -115.2439593 Eh     change       -0.1260951E-05 Eh
 * total energy  :  -115.2439602 Eh     change       -0.9302845E-06 Eh
 * total energy  :  -115.2439610 Eh     change       -0.7251307E-06 Eh
 * total energy  :  -115.2439614 Eh     change       -0.4844751E-06 Eh
 * total energy  :  -115.2439614 Eh     change       -0.4549506E-08 Eh
   *** GEOMETRY OPTIMIZATION CONVERGED AFTER 94 ITERATIONS ***

 final structure:
================
71
 xtb: 6.7.1 (edcfbbe)
N           -0.00000023021877       -1.11125406780700        0.69946860053912
C            0.00002768066090        0.02662492480187        0.53207551142155
C            0.00000117644763        1.42961664744681        0.44171858438839
C           -1.20446859763304        2.16802861323307        0.47096026367904
C           -2.51691551616274        1.54949975010415        0.31759408381440
C           -3.61765250747309        2.11000317587235        0.97057377223016
C           -4.86653253882958        1.54031821300503        0.85828370363330
C           -5.05180957646066        0.40496421531079        0.06680167972183
N           -6.31100888769714       -0.18124495710098       -0.04852104010463
C           -7.49728214279713        0.48272704722522       -0.31390944229267
C           -7.71976945519616        1.82652457065411       -0.57823213765438
C           -9.01444880178886        2.22454835912996       -0.85641679200012
C          -10.06660708035052        1.31211753813356       -0.88276030928987
C           -9.84643929909767       -0.03114407617382       -0.64853703962942
C           -8.55375784360773       -0.45437477999963       -0.36813959781718
C           -7.97211290423130       -1.74445136512901       -0.11446735288537
C           -8.49970052168165       -3.02582363054450       -0.02156676905990
C           -7.64633507346033       -4.07355423585422        0.26420685495605
C           -6.28720750623074       -3.85227829367106        0.47434408223188
C           -5.73965698768192       -2.58552599988449        0.38752830761197
C           -6.58717142227050       -1.53355291651198        0.07055102550227
C           -3.96163842783813       -0.13496067222545       -0.61737719988432
C           -2.71036510105473        0.42809149066667       -0.49071207791033
N           -1.17658207275697        3.48771500752656        0.65714913076586
C            0.00001618797236        4.06540304545405        0.77951143356600
N            1.17660767035913        3.48770070800371        0.65714171221598
C            1.20447053499508        2.16801532590791        0.47095913011621
C            2.51691446516887        1.54946503952777        0.31761301808155
C            2.71039413914694        0.42813531722713       -0.49079273499741
C            3.96167655877078       -0.13490226613340       -0.61745676553108
C            5.05181273357453        0.40496128418284        0.06682448041575
N            6.31102072813850       -0.18123642534645       -0.04849747869197
C            7.49728871439898        0.48274000771722       -0.31388377242517
C            7.71975851429431        1.82653561034600       -0.57822679780363
C            9.01442655999133        2.22456106997604       -0.85645846614864
C           10.06659180865308        1.31213793606726       -0.88279440987025
C            9.84644457419165       -0.03111787295342       -0.64851934033018
C            8.55377055789685       -0.45435700822259       -0.36809937151034
C            7.97212734411997       -1.74443650045068       -0.11443570760114
C            8.49970557123809       -3.02581368839986       -0.02155064241457
C            7.64632603860589       -4.07354791155588        0.26417038918946
C            6.28719202109177       -3.85227516303154        0.47427660796995
C            5.73965210915681       -2.58551624920577        0.38749042535338
C            6.58718353844893       -1.53354110510302        0.07056611801141
C            4.86650315321524        1.54022717235829        0.85842265873846
C            3.61761375734080        2.10989332132710        0.97071894075701
H           -3.46573686047196        2.98406237543675        1.58459850237731
H           -5.70324470810507        1.95546486993038        1.39872661994138
H           -6.91054019181568        2.54057317149531       -0.58284703781290
H           -9.21266104664868        3.26617629434319       -1.06265613541509
H          -11.06458704426970        1.66255841417093       -1.10122829394345
H          -10.65797936916770       -0.74201872168178       -0.68872972986251
H           -9.55638652252820       -3.19405806897026       -0.16529899466244
H           -8.03551637822483       -5.07839911355289        0.33756015815187
H           -5.64569487397462       -4.68731610824463        0.71510428324234
H           -4.68825293005765       -2.42599749495175        0.57303050897704
H           -4.10773139081381       -0.98437782295276       -1.26666514835507
H           -1.88668838129370        0.01530680804319       -1.05369936593978
H            0.00002609441178        5.13038801343611        0.97668680368736
H            1.88673753875315        0.01539480120038       -1.05384364831888
H            4.10780387302983       -0.98426680880596       -1.26680651263428
H            6.91052130047681        2.54057692982375       -0.58280674247460
H            9.21263136323397        3.26618868522894       -1.06270729106037
H           11.06456301525591        1.66258106702144       -1.10129941755098
H           10.65799045034526       -0.74198585255924       -0.68871846247909
H            9.55639696093451       -3.19405036729798       -0.16523716107950
H            8.03550585929810       -5.07839188411289        0.33754147619251
H            5.64567237730727       -4.68731454597241        0.71501376547097
H            4.68824273456794       -2.42598069838899        0.57295874694501
H            5.70319935505416        1.95533299906509        1.39892293367411
H            3.46567013138673        2.98390585242106        1.58480287382047

          :  Hamiltonian                  GFN2-xTB          :
         :: gradient norm              0.000081368152 Eh/a0 ::
         :: HOMO-LUMO gap              1.709457723873 eV    ::
         :: SCC energy              -117.405464622643 Eh    ::
         :: -> dispersion             -0.099031111565 Eh    ::
         :: -> Gsolv                  -0.050740425272 Eh    ::
         :: repulsion energy           2.161503174486 Eh    ::

    * Orbital Energies and Occupations

         #    Occupation            Energy/Eh            Energy/eV
      -------------------------------------------------------------
         1        2.0000           -0.7036392             -19.1470
       ...           ...                  ...                  ...
        95        2.0000           -0.4220113             -11.4835
        96        2.0000           -0.4217724             -11.4770
        97        2.0000           -0.4205607             -11.4440
        98        2.0000           -0.4205560             -11.4439
        99        2.0000           -0.4197261             -11.4213
       100        2.0000           -0.4149086             -11.2902
       101        2.0000           -0.4086748             -11.1206
       102        2.0000           -0.4086688             -11.1204
       103        2.0000           -0.3891986             -10.5906
       104        2.0000           -0.3822413             -10.4013
       105        2.0000           -0.3822398             -10.4013
       106        2.0000           -0.3687656             -10.0346
       107        2.0000           -0.3683044             -10.0221 (HOMO)
       108                         -0.3054830              -8.3126 (LUMO)
       109                         -0.3013574              -8.2004
       110                         -0.2511656              -6.8346
       111                         -0.2485577              -6.7636
       112                         -0.2458187              -6.6891
       113                         -0.2447170              -6.6591
       114                         -0.2435084              -6.6262
       115                         -0.2280631              -6.2059
       116                         -0.2255074              -6.1364
       117                         -0.2255050              -6.1363
       118                         -0.2231677              -6.0727
       ...                                ...                  ...
       209                          1.1404404              31.0330
      -------------------------------------------------------------
                  HL-Gap            0.0628214 Eh            1.7095 eV

     #   Z          covCN         q      C6AA      α(0)
     1   7 N        0.911    -0.273    27.055     7.523
     2   6 C        1.905     0.116    28.240     8.582
     3   6 C        2.963    -0.023    28.566     8.767
     4   6 C        2.978     0.120    25.365     8.261
     5   6 C        2.979    -0.005    28.145     8.702
     6   6 C        2.924    -0.022    28.546     8.762
     7   6 C        2.920    -0.040    29.001     8.831
     8   6 C        2.912     0.073    26.365     8.420
     9   7 N        2.801    -0.037    21.957     6.960
    10   6 C        3.069     0.046    26.909     8.506
    11   6 C        2.910    -0.051    29.264     8.870
    12   6 C        2.924    -0.033    28.833     8.806
    13   6 C        2.920    -0.040    29.001     8.831
    14   6 C        2.912    -0.033    28.830     8.805
    15   6 C        3.066    -0.015    28.328     8.728
    16   6 C        3.066    -0.015    28.330     8.728
    17   6 C        2.912    -0.033    28.832     8.805
    18   6 C        2.920    -0.040    28.997     8.831
    19   6 C        2.924    -0.033    28.828     8.805
    20   6 C        2.910    -0.050    29.251     8.868
    21   6 C        3.069     0.045    26.911     8.506
    22   6 C        2.921    -0.040    28.997     8.830
    23   6 C        2.921    -0.026    28.644     8.777
    24   7 N        1.842    -0.263    27.689     7.798
    25   6 C        2.898     0.160    24.552     8.124
    26   7 N        1.842    -0.263    27.689     7.798
    27   6 C        2.978     0.120    25.365     8.261
    28   6 C        2.979    -0.005    28.145     8.702
    29   6 C        2.921    -0.026    28.644     8.777
    30   6 C        2.921    -0.040    28.997     8.830
    31   6 C        2.912     0.073    26.365     8.420
    32   7 N        2.801    -0.037    21.957     6.960
    33   6 C        3.069     0.046    26.909     8.506
    34   6 C        2.910    -0.051    29.264     8.870
    35   6 C        2.924    -0.033    28.833     8.806
    36   6 C        2.920    -0.040    29.001     8.831
    37   6 C        2.912    -0.033    28.830     8.805
    38   6 C        3.066    -0.015    28.328     8.728
    39   6 C        3.066    -0.015    28.330     8.728
    40   6 C        2.912    -0.033    28.832     8.805
    41   6 C        2.920    -0.040    28.997     8.831
    42   6 C        2.924    -0.033    28.828     8.805
    43   6 C        2.910    -0.050    29.251     8.868
    44   6 C        3.069     0.045    26.911     8.506
    45   6 C        2.920    -0.040    29.001     8.831
    46   6 C        2.924    -0.022    28.546     8.762
    47   1 H        0.926     0.060     2.193     2.316
    48   1 H        0.926     0.059     2.211     2.326
    49   1 H        0.926     0.034     2.534     2.489
    50   1 H        0.926     0.034     2.531     2.488
    51   1 H        0.926     0.032     2.560     2.502
    52   1 H        0.926     0.035     2.523     2.484
    53   1 H        0.926     0.035     2.519     2.482
    54   1 H        0.926     0.032     2.558     2.501
    55   1 H        0.926     0.034     2.535     2.490
    56   1 H        0.926     0.032     2.562     2.503
    57   1 H        0.926     0.056     2.247     2.344
    58   1 H        0.926     0.040     2.453     2.449
    59   1 H        0.925     0.048     2.348     2.396
    60   1 H        0.926     0.040     2.453     2.449
    61   1 H        0.926     0.056     2.247     2.344
    62   1 H        0.926     0.034     2.534     2.489
    63   1 H        0.926     0.034     2.531     2.488
    64   1 H        0.926     0.032     2.560     2.502
    65   1 H        0.926     0.035     2.523     2.484
    66   1 H        0.926     0.035     2.519     2.482
    67   1 H        0.926     0.032     2.558     2.501
    68   1 H        0.926     0.034     2.535     2.490
    69   1 H        0.926     0.032     2.562     2.503
    70   1 H        0.926     0.059     2.212     2.326
    71   1 H        0.926     0.060     2.193     2.316

molecular dipole:
                 x           y           z       tot (Debye)
 q only:       -0.000       0.329      -0.185
   full:       -0.000       0.524      -0.256       1.481

 projected vibrational frequencies (cm⁻¹)
eigval :       -0.00    -0.00     0.00     0.00     0.00     0.00
eigval :       10.30    14.07    17.74    25.05    34.61    38.15
eigval :       47.28    57.81    73.63    85.33    97.31   102.33
eigval :      104.82   116.23   123.97   124.82   143.98   148.20
eigval :      164.19   171.14   187.80   191.62   223.85   241.97
eigval :      256.02   260.04   273.81   273.97   283.33   288.77
eigval :      357.58   375.06   382.01   382.49   386.48   389.58
eigval :      398.08   400.34   408.33   418.39   425.08   429.90
eigval :      432.43   439.44   441.41   488.52   498.61   517.60
eigval :      517.83   535.24   535.99   541.22   541.24   549.89
eigval :      563.15   572.55   580.83   582.33   594.92   595.24
eigval :      609.38   612.13   614.35   639.49   651.44   675.06
eigval :      675.30   690.04   699.16   705.87   709.03   711.61
eigval :      732.38   750.22   755.65   757.17   769.83   770.00
eigval :      781.03   781.26   821.90   824.21   831.98   835.32
eigval :      863.44   864.25   874.13   874.14   876.84   877.40
eigval :      896.66   897.10   898.64   903.09   903.15   903.68
eigval :      903.74   919.62   919.79   921.45   921.52   927.20
eigval :      927.81   928.97   933.17   933.88   938.39  1000.79
eigval :     1011.23  1011.28  1013.18  1066.80  1071.19  1071.20
eigval :     1074.75  1075.00  1115.55  1115.86  1133.99  1134.88
eigval :     1151.68  1151.80  1158.21  1175.37  1175.38  1179.20
eigval :     1179.75  1180.43  1180.69  1192.62  1201.43  1202.59
eigval :     1218.08  1234.49  1234.51  1242.92  1243.17  1261.41
eigval :     1261.53  1272.97  1293.51  1295.10  1297.77  1298.80
eigval :     1305.22  1322.05  1325.57  1354.25  1354.36  1357.52
eigval :     1357.53  1359.18  1361.43  1381.84  1388.59  1408.88
eigval :     1408.93  1420.76  1423.81  1426.13  1426.15  1471.46
eigval :     1471.57  1484.05  1484.70  1485.05  1491.84  1493.38
eigval :     1508.55  1551.58  1551.70  1574.21  1574.21  1583.97
eigval :     1584.24  1588.15  1588.31  1596.48  1596.49  1610.92
eigval :     1610.93  2332.30  3050.21  3074.03  3074.03  3075.21
eigval :     3075.21  3079.88  3079.89  3081.13  3081.14  3086.40
eigval :     3086.76  3087.64  3087.77  3089.47  3089.49  3093.78
eigval :     3093.81  3095.87  3095.89  3096.61  3096.63  3102.28
eigval :     3102.41  3106.64  3106.78

   temp. (K)  partition function   enthalpy   heat capacity  entropy
                                   cal/mol     cal/K/mol   cal/K/mol   J/K/mol
 298.15  VIB  0.285E+16            20386.024    131.062    125.645
         ROT  0.101E+09              888.752      2.981     39.609
         INT  0.288E+24            21274.777    134.043    165.254
         TR   0.138E+29             1481.254      4.968     44.977
         TOT                       22756.0306   139.0113   210.2301   879.6029

       T/K    H(0)-H(T)+PV         H(T)/Eh          T*S/Eh         G(T)/Eh
   ------------------------------------------------------------------------
    298.15    0.362640E-01    0.568581E+00    0.998871E-01    0.468694E+00
   ------------------------------------------------------------------------

         :::::::::::::::::::::::::::::::::::::::::::::::::::::
         ::                  THERMODYNAMIC                  ::
         :::::::::::::::::::::::::::::::::::::::::::::::::::::
         :: total free energy        -114.775267519004 Eh   ::
         ::.................................................::
         :: total energy             -115.243961447121 Eh   ::
         :: zero point energy           0.532317012135 Eh   ::
         :: G(RRHO) w/o ZPVE           -0.063623084019 Eh   ::
         :: G(RRHO) contrib.            0.468693928116 Eh   ::
         :::::::::::::::::::::::::::::::::::::::::::::::::::::

           -------------------------------------------------
          | TOTAL ENERGY             -115.243961447121 Eh   |
          | TOTAL ENTHALPY           -114.675380391937 Eh   |
          | TOTAL FREE ENERGY        -114.775267519004 Eh   |
          | GRADIENT NORM               0.000081286024 Eh/α |
          | HOMO-LUMO GAP               1.709458175082 eV   |
           -------------------------------------------------

 * finished run on 2025/09/14 at 11:59:10.389
