   * xtb version 6.7.1 (edcfbbe) compiled by 'albert@albert-system' on 2024-07-22

   ID    Z sym.   atoms
    1    7 N      1, 9, 24, 26, 32
    2    6 C      2-8, 10-23, 25, 27-31, 33-46
    3    1 H      47-71

          program call               : xtb data2507/toluene/CzPm/CzPm_toluene_S0_finalOpt.xtbopt.xyz --gfn 2 --uhf 2 --gbsa toluene --ohess vtight --parallel 40 --molden --ceasefiles --namespace data2507/toluene/CzPm/CzPm_toluene_T1_preOpt
      * Solvation model:               GBSA
        Solvent                        toluene
        Solvent mass                       9.2140E+01 g/mol
          :  Hamiltonian                  GFN2-xTB          :
 * total energy  :  -115.1633962 Eh     change       -0.5954348E-11 Eh
 * total energy  :  -115.1651595 Eh     change       -0.1763354E-02 Eh
 * total energy  :  -115.1656521 Eh     change       -0.4925487E-03 Eh
 * total energy  :  -115.1657415 Eh     change       -0.8939468E-04 Eh
 * total energy  :  -115.1658615 Eh     change       -0.1199815E-03 Eh
 * total energy  :  -115.1659401 Eh     change       -0.7865275E-04 Eh
 * total energy  :  -115.1660079 Eh     change       -0.6778132E-04 Eh
 * total energy  :  -115.1660512 Eh     change       -0.4325624E-04 Eh
 * total energy  :  -115.1660885 Eh     change       -0.3731348E-04 Eh
 * total energy  :  -115.1661182 Eh     change       -0.2968292E-04 Eh
 * total energy  :  -115.1671283 Eh     change       -0.1708253E-05 Eh
 * total energy  :  -115.1671299 Eh     change       -0.1634334E-05 Eh
 * total energy  :  -115.1671314 Eh     change       -0.1499838E-05 Eh
 * total energy  :  -115.1671328 Eh     change       -0.1376656E-05 Eh
 * total energy  :  -115.1671340 Eh     change       -0.1223315E-05 Eh
 * total energy  :  -115.1671350 Eh     change       -0.1029130E-05 Eh
 * total energy  :  -115.1671350 Eh     change        0.5369927E-08 Eh
 * total energy  :  -115.1671350 Eh     change        0.1815098E-07 Eh
 * total energy  :  -115.1671350 Eh     change       -0.1697698E-07 Eh
   *** GEOMETRY OPTIMIZATION CONVERGED AFTER 124 ITERATIONS ***

 final structure:
================
71
 xtb: 6.7.1 (edcfbbe)
N           -0.30727156389015       -1.40558304014937        0.66171924155701
C           -0.16953437583943       -0.26014941387051        0.55009327270531
C           -0.05339389606048        1.12154616945817        0.49126131397880
C           -1.20853674711809        1.91782026422321        0.50404332620283
C           -2.54652240836866        1.33939525866347        0.32438545520323
C           -3.61528774597747        1.85086658493144        1.06146947278831
C           -4.88280865292808        1.32814905659823        0.91912707373950
C           -5.11082029854192        0.28720370479331        0.01948169690260
N           -6.39305805884937       -0.25265819914942       -0.12687760489823
C           -7.55244850976220        0.46537985064115       -0.34447953331714
C           -7.72579298624945        1.83242857657352       -0.51758007777179
C           -9.00708504984457        2.29380867134268       -0.75899065336964
C          -10.09042264602960        1.42204330213213       -0.83697697550178
C           -9.91932289796953        0.05632903754383       -0.69040073851047
C           -8.64349177398261       -0.42963709399622       -0.44717438662720
C           -8.10332715864121       -1.75318542113839       -0.27418077696191
C           -8.66790889651559       -3.01961466041950       -0.25344546586247
C           -7.84180426323644       -4.10857491569235       -0.03517513278337
C           -6.47506688545983       -3.94278606738944        0.17526927375872
C           -5.88937855329212       -2.68991538516638        0.15943457213787
C           -6.71006440580571       -1.59624677856794       -0.08455907037516
C           -4.05257004609496       -0.20739808196054       -0.74123989144091
C           -2.78499585477753        0.31521030090421       -0.59060918754885
N           -1.16354523841168        3.22845489866810        0.71599863524636
C            0.04194871324166        3.78903181075817        0.91370682023603
N            1.16704603875115        3.15732856772254        0.84612442142030
C            1.22145092793070        1.83172775803461        0.58995712891653
C            2.50734713472750        1.25504011400192        0.41716899544516
C            2.72918107271012       -0.04519406861182       -0.09521322999139
C            3.99722572301509       -0.54148971584506       -0.25256304445322
C            5.11693203440023        0.22898077505547        0.08846717349325
N            6.40631185018332       -0.28369518000280       -0.06861373906806
C            7.46033396246843        0.36212002149691       -0.68006098393591
C            7.49180626245674        1.59994334196020       -1.31234206814425
C            8.68921480303216        2.00898623010592       -1.87077666470794
C            9.82684122568712        1.20732848861406       -1.81612251089132
C            9.79387893659212       -0.04080760248879       -1.21468117454578
C            8.60575569805761       -0.47124664487954       -0.64710898804297
C            8.20653887247384       -1.68302592148899        0.02147858400654
C            8.87120741776856       -2.85072058051352        0.35872018446066
C            8.17342143865418       -3.83759998413760        1.03682011520149
C            6.83838076660905       -3.65941524112604        1.39162683731485
C            6.15435099432408       -2.50203043142327        1.06668772860133
C            6.84023048795709       -1.52056070194747        0.36012021830265
C            4.91904014905362        1.52815359706626        0.58367475981475
C            3.65588114102332        2.02693244556962        0.73613245804630
H           -3.42892945577756        2.65318829194042        1.75879411983419
H           -5.69761339147742        1.70630788425994        1.51777695309281
H           -6.88896630766536        2.51259687732535       -0.47803282023784
H           -9.16924796560012        3.35279261657027       -0.89422604648395
H          -11.07614238691932        1.82041450699252       -1.02553888620363
H          -10.75767806214698       -0.61873313756532       -0.76889464715422
H           -9.72925757529807       -3.15008018439266       -0.39941200140603
H           -8.26167598449420       -5.10320725141883       -0.01731405011617
H           -5.85821597048123       -4.80967752635145        0.35962631033830
H           -4.83230517582696       -2.56895089073267        0.34142590964035
H           -4.23355343557713       -0.98575635425646       -1.46679445053861
H           -1.98020012663456       -0.05904919419516       -1.20537977305870
H            0.05678577189781        4.84702938053886        1.13406529449176
H            1.89022517646368       -0.65184822203140       -0.39562520403232
H            4.14078862463178       -1.52238004955083       -0.68157646594579
H            6.60847217702677        2.21586152031717       -1.37838325855590
H            8.74089458758173        2.96822696254237       -2.36365494827629
H           10.74446343014617        1.56175761643694       -2.26115626974229
H           10.67265867000626       -0.66674735856970       -1.19185410547130
H            9.91048627057410       -2.98592523351613        0.10137382308198
H            8.67305698175514       -4.75619700471497        1.30547589248378
H            6.32639236771407       -4.43863013706052        1.93604101940551
H            5.12603123370581       -2.36270144421070        1.36256295276865
H            5.77489694873787        2.11690077274350        0.87927662058443
H            3.50014430280625        3.02007657807007        1.12824496527551

          :  Hamiltonian                  GFN2-xTB          :
         :: gradient norm              0.000118205362 Eh/a0 ::
         :: HOMO-LUMO gap              0.192033260822 eV    ::
         :: SCC energy              -117.314403779781 Eh    ::
         :: -> dispersion             -0.098795817610 Eh    ::
         :: -> Gsolv                  -0.056567771439 Eh    ::
         :: repulsion energy           2.147268732154 Eh    ::

    * Orbital Energies and Occupations

         #    Occupation            Energy/Eh            Energy/eV
      -------------------------------------------------------------
         1        2.0000           -0.6909393             -18.8014
       ...           ...                  ...                  ...
        96        2.0000           -0.4233603             -11.5202
        97        2.0000           -0.4177768             -11.3683
        98        2.0000           -0.4152277             -11.2989
        99        2.0000           -0.4151274             -11.2962
       100        2.0000           -0.4114082             -11.1950
       101        2.0000           -0.4031049             -10.9690
       102        2.0000           -0.3968692             -10.7994
       103        2.0000           -0.3916666             -10.6578
       104        2.0000           -0.3890464             -10.5865
       105        1.8570           -0.3740316             -10.1779
       106        1.7090           -0.3731763             -10.1546
       107        1.4340           -0.3720782             -10.1248
       108        0.9762           -0.2892058              -7.8697 (HOMO)
       109        0.0238           -0.2821487              -7.6777 (LUMO)
       110                         -0.2567645              -6.9869
       111                         -0.2544347              -6.9235
       112                         -0.2426725              -6.6035
       113                         -0.2372015              -6.4546
       114                         -0.2358200              -6.4170
       115                         -0.2327077              -6.3323
       116                         -0.2250996              -6.1253
       117                         -0.2175728              -5.9205
       118                         -0.2023955              -5.5075
       119                         -0.2016477              -5.4871
       ...                                ...                  ...
       209                          1.1497575              31.2865
      -------------------------------------------------------------
                  HL-Gap            0.0070572 Eh            0.1920 eV

     #   Z          covCN         q      C6AA      α(0)
     1   7 N        0.911    -0.339    28.730     7.752
     2   6 C        1.908     0.105    28.503     8.622
     3   6 C        2.958    -0.037    28.919     8.821
     4   6 C        2.966     0.115    25.455     8.276
     5   6 C        2.981     0.002    27.983     8.677
     6   6 C        2.925    -0.024    28.594     8.769
     7   6 C        2.920    -0.039    28.973     8.827
     8   6 C        2.913     0.066    26.518     8.444
     9   7 N        2.802    -0.020    21.626     6.907
    10   6 C        3.071     0.047    26.880     8.501
    11   6 C        2.909    -0.045    29.108     8.847
    12   6 C        2.923    -0.031    28.767     8.796
    13   6 C        2.920    -0.034    28.855     8.809
    14   6 C        2.912    -0.029    28.735     8.790
    15   6 C        3.065    -0.012    28.238     8.714
    16   6 C        3.065    -0.012    28.242     8.714
    17   6 C        2.912    -0.030    28.737     8.790
    18   6 C        2.920    -0.034    28.850     8.808
    19   6 C        2.923    -0.030    28.758     8.794
    20   6 C        2.909    -0.044    29.088     8.844
    21   6 C        3.071     0.047    26.878     8.501
    22   6 C        2.921    -0.038    28.946     8.823
    23   6 C        2.922    -0.025    28.637     8.776
    24   7 N        1.843    -0.284    28.204     7.871
    25   6 C        2.859     0.141    24.922     8.183
    26   7 N        1.843    -0.238    27.074     7.711
    27   6 C        2.945     0.066    26.526     8.447
    28   6 C        2.973    -0.006    28.168     8.706
    29   6 C        2.918    -0.046    29.146     8.853
    30   6 C        2.915    -0.040    28.990     8.829
    31   6 C        2.912     0.041    27.075     8.532
    32   7 N        2.800    -0.003    21.315     6.857
    33   6 C        3.074     0.047    26.878     8.500
    34   6 C        2.909    -0.040    28.988     8.828
    35   6 C        2.922    -0.030    28.759     8.794
    36   6 C        2.920    -0.031    28.780     8.797
    37   6 C        2.911    -0.028    28.697     8.784
    38   6 C        3.064    -0.010    28.208     8.709
    39   6 C        3.064    -0.010    28.212     8.710
    40   6 C        2.911    -0.028    28.699     8.784
    41   6 C        2.920    -0.031    28.778     8.797
    42   6 C        2.922    -0.030    28.755     8.794
    43   6 C        2.909    -0.039    28.976     8.827
    44   6 C        3.074     0.047    26.878     8.500
    45   6 C        2.914    -0.041    29.030     8.835
    46   6 C        2.923    -0.039    28.976     8.827
    47   1 H        0.926     0.055     2.259     2.350
    48   1 H        0.926     0.058     2.220     2.330
    49   1 H        0.926     0.040     2.454     2.450
    50   1 H        0.926     0.041     2.439     2.442
    51   1 H        0.926     0.040     2.446     2.446
    52   1 H        0.926     0.043     2.410     2.428
    53   1 H        0.926     0.043     2.405     2.425
    54   1 H        0.926     0.040     2.443     2.444
    55   1 H        0.926     0.040     2.446     2.445
    56   1 H        0.926     0.038     2.479     2.462
    57   1 H        0.926     0.055     2.256     2.349
    58   1 H        0.926     0.039     2.463     2.454
    59   1 H        0.926     0.032     2.558     2.501
    60   1 H        0.926     0.029     2.605     2.524
    61   1 H        0.926     0.040     2.454     2.450
    62   1 H        0.926     0.044     2.395     2.420
    63   1 H        0.926     0.043     2.407     2.426
    64   1 H        0.926     0.044     2.401     2.423
    65   1 H        0.926     0.046     2.371     2.408
    66   1 H        0.926     0.046     2.367     2.406
    67   1 H        0.926     0.044     2.399     2.422
    68   1 H        0.926     0.043     2.414     2.430
    69   1 H        0.926     0.042     2.422     2.434
    70   1 H        0.926     0.044     2.395     2.420
    71   1 H        0.926     0.047     2.358     2.401

molecular dipole:
                 x           y           z       tot (Debye)
 q only:        0.217      -0.641      -0.675
   full:        0.263      -0.401      -0.708       2.175

 projected vibrational frequencies (cm⁻¹)
eigval :       -0.00    -0.00    -0.00     0.00     0.00     0.00
eigval :        2.59     9.87    12.30    24.02    33.31    38.50
eigval :       44.11    56.27    73.54    84.47    92.12    98.93
eigval :      102.83   112.30   119.81   126.27   141.57   144.47
eigval :      160.88   170.67   177.75   190.36   221.48   236.97
eigval :      254.39   256.82   268.76   269.77   290.91   292.32
eigval :      338.73   360.84   377.25   377.91   380.59   383.44
eigval :      387.01   398.56   402.98   407.46   418.74   420.23
eigval :      423.58   435.40   438.02   464.41   486.11   506.67
eigval :      512.73   514.54   532.95   535.96   536.58   540.63
eigval :      545.31   554.92   565.48   577.26   583.49   588.99
eigval :      597.28   602.86   611.91   616.14   646.23   657.02
eigval :      669.44   673.75   674.05   695.28   699.10   707.29
eigval :      709.63   724.34   753.85   755.03   768.17   769.00
eigval :      771.94   776.07   778.11   801.71   814.04   823.09
eigval :      832.71   842.17   862.90   869.56   870.99   871.19
eigval :      875.38   894.24   896.71   901.24   902.22   902.96
eigval :      904.76   911.42   915.58   916.65   917.94   920.82
eigval :      923.60   924.41   924.69   929.49   930.96   957.43
eigval :      991.37  1008.07  1008.96  1009.99  1049.51  1066.00
eigval :     1066.34  1069.52  1070.50  1110.75  1113.73  1120.10
eigval :     1133.56  1136.63  1137.58  1143.19  1159.44  1170.16
eigval :     1172.85  1175.08  1176.38  1177.10  1179.18  1196.48
eigval :     1202.18  1225.20  1228.37  1233.03  1234.65  1242.26
eigval :     1256.86  1260.02  1269.37  1274.81  1284.71  1286.95
eigval :     1289.65  1297.01  1318.63  1324.02  1329.29  1333.64
eigval :     1338.28  1349.63  1353.96  1359.45  1362.40  1379.46
eigval :     1403.43  1404.17  1411.62  1416.07  1418.90  1425.64
eigval :     1443.19  1452.47  1460.59  1464.25  1476.43  1479.52
eigval :     1481.75  1488.50  1549.76  1552.96  1559.28  1563.92
eigval :     1568.12  1572.08  1575.75  1578.70  1582.52  1593.75
eigval :     1601.12  2232.96  3058.87  3080.00  3080.14  3081.14
eigval :     3081.75  3082.21  3082.71  3085.45  3086.19  3087.20
eigval :     3087.80  3088.61  3091.32  3092.44  3093.83  3094.92
eigval :     3096.16  3098.45  3098.52  3099.13  3099.49  3100.52
eigval :     3101.51  3102.22  3116.99

   temp. (K)  partition function   enthalpy   heat capacity  entropy
                                   cal/mol     cal/K/mol   cal/K/mol   J/K/mol
 298.15  VIB  0.425E+17            20755.934    133.046    129.812
         ROT  0.102E+09              888.752      2.981     39.632
         INT  0.435E+25            21644.686    136.027    169.444
         TR   0.138E+29             1481.254      4.968     44.977
         TOT                       23125.9399   140.9947   214.4205   897.1355

       T/K    H(0)-H(T)+PV         H(T)/Eh          T*S/Eh         G(T)/Eh
   ------------------------------------------------------------------------
    298.15    0.368535E-01    0.564253E+00    0.101878E+00    0.462375E+00
   ------------------------------------------------------------------------

         :::::::::::::::::::::::::::::::::::::::::::::::::::::
         ::                  THERMODYNAMIC                  ::
         :::::::::::::::::::::::::::::::::::::::::::::::::::::
         :: total free energy        -114.704759922045 Eh   ::
         ::.................................................::
         :: total energy             -115.167135050015 Eh   ::
         :: zero point energy           0.527399708677 Eh   ::
         :: G(RRHO) w/o ZPVE           -0.065024580708 Eh   ::
         :: G(RRHO) contrib.            0.462375127970 Eh   ::
         :::::::::::::::::::::::::::::::::::::::::::::::::::::

           -------------------------------------------------
          | TOTAL ENERGY             -115.167135050015 Eh   |
          | TOTAL ENTHALPY           -114.602881810337 Eh   |
          | TOTAL FREE ENERGY        -114.704759922045 Eh   |
          | GRADIENT NORM               0.000115702360 Eh/α |
          | HOMO-LUMO GAP               0.192035965717 eV   |
           -------------------------------------------------

 * finished run on 2025/09/14 at 12:03:17.819
