   * xtb version 6.7.1 (edcfbbe) compiled by 'albert@albert-system' on 2024-07-22

   ID    Z sym.   atoms
    1    7 N      1, 9, 24, 26, 32
    2    6 C      2-8, 10-23, 25, 27-31, 33-46
    3    1 H      47-71

          program call               : xtb data2507/toluene/CzPm/CzPm_toluene_T1_crest.xyz --gfn 2 --uhf 2 --gbsa toluene --ohess vtight --parallel 40 --molden --ceasefiles --namespace data2507/toluene/CzPm/CzPm_toluene_T1_finalOpt
      * Solvation model:               GBSA
        Solvent                        toluene
        Solvent mass                       9.2140E+01 g/mol
          :  Hamiltonian                  GFN2-xTB          :
 * total energy  :  -115.1670703 Eh     change       -0.1039160E-07 Eh
 * total energy  :  -115.1671721 Eh     change       -0.1018365E-03 Eh
 * total energy  :  -115.1672172 Eh     change       -0.4512523E-04 Eh
 * total energy  :  -115.1672203 Eh     change       -0.3087047E-05 Eh
 * total energy  :  -115.1672326 Eh     change       -0.1223290E-04 Eh
 * total energy  :  -115.1672393 Eh     change       -0.6725533E-05 Eh
 * total energy  :  -115.1672434 Eh     change       -0.4113342E-05 Eh
 * total energy  :  -115.1672466 Eh     change       -0.3147108E-05 Eh
 * total energy  :  -115.1672485 Eh     change       -0.1922453E-05 Eh
 * total energy  :  -115.1672505 Eh     change       -0.2013910E-05 Eh
 * total energy  :  -115.1673298 Eh     change       -0.6545873E-06 Eh
 * total energy  :  -115.1673305 Eh     change       -0.6347315E-06 Eh
 * total energy  :  -115.1673309 Eh     change       -0.4632298E-06 Eh
 * total energy  :  -115.1673313 Eh     change       -0.3656259E-06 Eh
 * total energy  :  -115.1673316 Eh     change       -0.3091972E-06 Eh
 * total energy  :  -115.1673319 Eh     change       -0.3232307E-06 Eh
 * total energy  :  -115.1673323 Eh     change       -0.3473032E-06 Eh
 * total energy  :  -115.1673323 Eh     change        0.2125319E-08 Eh
 * total energy  :  -115.1673323 Eh     change       -0.3326861E-08 Eh
   *** GEOMETRY OPTIMIZATION CONVERGED AFTER 69 ITERATIONS ***

 final structure:
================
71
 xtb: 6.7.1 (edcfbbe)
N           -0.39537836321397       -1.06226138240389       -1.02457430846278
C           -0.20907742485018       -0.03926194822447       -0.51237692995613
C           -0.06758704637674        1.22074406486127        0.05240720807545
C           -1.22121454692134        1.97112807683697        0.31797408493689
C           -2.55983249655411        1.36749421290494        0.22824594229076
C           -2.82724409220887        0.11229022200647        0.76973978405046
C           -4.09008592873353       -0.43496618611072        0.67535003792644
C           -5.11016312936723        0.26247569278982        0.03032044265538
N           -6.38442875767175       -0.30347859175913       -0.08259459684598
C           -7.57592038019912        0.31311476295859        0.24607489049406
C           -7.79971538082946        1.56953018730224        0.79418540788381
C           -9.10744497027012        1.93331030277465        1.05953384293658
C          -10.16881922628859        1.07026720149189        0.79850539382093
C           -9.94929017713996       -0.19323521087897        0.27778150033356
C           -8.64615724519656       -0.57979935260897        0.00300105974838
C           -8.05872364818755       -1.79302821056874       -0.50324973224706
C           -8.58588775959046       -3.00329445520979       -0.92804998444505
C           -7.71731638310119       -3.97849104826027       -1.38670088758448
C           -6.34450221890614       -3.75001020600102       -1.43966570064462
C           -5.79582958932283       -2.55066452114166       -1.02294076773184
C           -6.66059640066223       -1.57910798818365       -0.53536725809514
C           -4.85208463649958        1.52831987225161       -0.49404317687130
C           -3.59138433489973        2.07662433619962       -0.38473437330998
N           -1.18253518698793        3.25685541146805        0.64408992410360
C            0.02860639748861        3.83837171137518        0.71669638557037
N            1.15034216345619        3.21470327603808        0.58145956293495
C            1.20972949256794        1.89710312016209        0.28237405525427
C            2.49685254571916        1.30668570827394        0.20714601369821
C            2.73400523763947       -0.07430418920326        0.00812615194407
C            4.00778947948445       -0.57859014440984       -0.04387970383471
C            5.11942282448976        0.26305021151719        0.09214850179356
N            6.41577897004958       -0.25180826852615        0.02922551635383
C            7.44223038893896        0.25282277822220       -0.74079229216673
C            7.43102989909325        1.30932496026102       -1.64427914754040
C            8.60823616516416        1.60132574301082       -2.30906156716699
C            9.76667361913614        0.85866211654325       -2.09388504238878
C            9.77622577118221       -0.21409563419187       -1.21640847479898
C            8.60888489648692       -0.52511095802519       -0.53857603235769
C            8.25231418358794       -1.55223493373004        0.40642552126648
C            8.95320529804130       -2.59052982258420        0.99775108736028
C            8.29406675418136       -3.39970414875405        1.90949353923172
C            6.96157308048803       -3.16954453931092        2.24308058132510
C            6.24175145320517       -2.13903600110184        1.66600055157828
C            6.88877772880281       -1.34196597008142        0.72886067341755
C            4.90703481404991        1.63651111627401        0.29794754690546
C            3.63889762863942        2.14004218190611        0.35399714925803
H           -2.04930625640224       -0.42936758383412        1.28693777722805
H           -4.29664861010975       -1.39713134041475        1.11858152052474
H           -6.98195544586924        2.23667863178822        1.01905018816355
H           -9.30809312672972        2.90642450791475        1.48239002344584
H          -11.17636231197335        1.39101380462709        1.01729288884931
H          -10.77174543917546       -0.86728625249751        0.09355569762800
H           -9.65090265849127       -3.17650498112790       -0.90474674450048
H           -8.10747817990811       -4.92888772744112       -1.71896424393305
H           -5.69289841769040       -4.52322660984706       -1.81857262265846
H           -4.73257247160984       -2.37551159288302       -1.08623267363770
H           -5.63570112101985        2.06629173939123       -1.00540404298121
H           -3.38373065082386        3.05486621628536       -0.79081299727576
H            0.04882457540773        4.89737661834662        0.93149546133835
H            1.90189637915088       -0.74825943979527       -0.11074813949075
H            4.16092552231411       -1.63186203324813       -0.22833699427056
H            6.53121866013008        1.87469408154610       -1.83104031445040
H            8.62700258235299        2.41918846405887       -3.01366641882711
H           10.66747023088614        1.11831245496620       -2.62953979406453
H           10.67137837294512       -0.79797106866941       -1.06679101240717
H            9.99101850312949       -2.76103605988471        0.75609483533624
H            8.82270005453017       -4.21563739589584        2.37905925821659
H            6.48050395897024       -3.80569279161033        2.97084414577580
H            5.21583395931070       -1.95328585315388        1.94381230698526
H            5.75801430006712        2.28453112046210        0.44854140557385
H            3.46937570119708        3.19145578905534        0.52973686243700

          :  Hamiltonian                  GFN2-xTB          :
         :: gradient norm              0.000043134413 Eh/a0 ::
         :: HOMO-LUMO gap              0.258627581432 eV    ::
         :: SCC energy              -117.315409615177 Eh    ::
         :: -> dispersion             -0.098789702022 Eh    ::
         :: -> Gsolv                  -0.056567648655 Eh    ::
         :: repulsion energy           2.148077332852 Eh    ::

    * Orbital Energies and Occupations

         #    Occupation            Energy/Eh            Energy/eV
      -------------------------------------------------------------
         1        2.0000           -0.6909002             -18.8004
       ...           ...                  ...                  ...
        96        2.0000           -0.4230624             -11.5121
        97        2.0000           -0.4178157             -11.3693
        98        2.0000           -0.4162558             -11.3269
        99        2.0000           -0.4149861             -11.2923
       100        2.0000           -0.4115699             -11.1994
       101        2.0000           -0.4021537             -10.9432
       102        2.0000           -0.3976582             -10.8208
       103        2.0000           -0.3917283             -10.6595
       104        2.0000           -0.3889016             -10.5826
       105        1.9125           -0.3744190             -10.1885
       106        1.7733           -0.3733573             -10.1596
       107        1.3142           -0.3714496             -10.1077
       108        0.9933           -0.2899012              -7.8886 (HOMO)
       109        0.0067           -0.2803967              -7.6300 (LUMO)
       110                         -0.2568400              -6.9890
       111                         -0.2543612              -6.9215
       112                         -0.2429324              -6.6105
       113                         -0.2382390              -6.4828
       114                         -0.2358186              -6.4170
       115                         -0.2325723              -6.3286
       116                         -0.2247300              -6.1152
       117                         -0.2176772              -5.9233
       118                         -0.2023463              -5.5061
       119                         -0.2015560              -5.4846
       ...                                ...                  ...
       209                          1.1490961              31.2685
      -------------------------------------------------------------
                  HL-Gap            0.0095045 Eh            0.2586 eV

     #   Z          covCN         q      C6AA      α(0)
     1   7 N        0.911    -0.341    28.775     7.758
     2   6 C        1.910     0.105    28.496     8.621
     3   6 C        2.958    -0.038    28.939     8.824
     4   6 C        2.972     0.117    25.416     8.270
     5   6 C        2.982     0.003    27.957     8.673
     6   6 C        2.922    -0.025    28.620     8.773
     7   6 C        2.921    -0.038    28.943     8.822
     8   6 C        2.913     0.067    26.510     8.443
     9   7 N        2.802    -0.020    21.626     6.907
    10   6 C        3.071     0.047    26.881     8.501
    11   6 C        2.909    -0.045    29.112     8.847
    12   6 C        2.923    -0.031    28.768     8.796
    13   6 C        2.920    -0.034    28.855     8.809
    14   6 C        2.912    -0.029    28.735     8.790
    15   6 C        3.065    -0.012    28.238     8.714
    16   6 C        3.065    -0.012    28.242     8.714
    17   6 C        2.912    -0.030    28.738     8.791
    18   6 C        2.920    -0.034    28.850     8.808
    19   6 C        2.923    -0.030    28.757     8.794
    20   6 C        2.909    -0.044    29.089     8.844
    21   6 C        3.071     0.047    26.879     8.501
    22   6 C        2.920    -0.039    28.975     8.827
    23   6 C        2.924    -0.023    28.588     8.768
    24   7 N        1.842    -0.286    28.265     7.879
    25   6 C        2.859     0.141    24.919     8.182
    26   7 N        1.844    -0.234    26.979     7.698
    27   6 C        2.942     0.065    26.553     8.451
    28   6 C        2.973    -0.006    28.175     8.707
    29   6 C        2.917    -0.048    29.192     8.860
    30   6 C        2.915    -0.040    28.987     8.829
    31   6 C        2.912     0.041    27.082     8.533
    32   7 N        2.800    -0.003    21.322     6.858
    33   6 C        3.075     0.047    26.874     8.500
    34   6 C        2.909    -0.040    28.986     8.828
    35   6 C        2.922    -0.030    28.757     8.794
    36   6 C        2.920    -0.031    28.781     8.797
    37   6 C        2.911    -0.028    28.698     8.784
    38   6 C        3.064    -0.010    28.209     8.709
    39   6 C        3.064    -0.010    28.211     8.710
    40   6 C        2.911    -0.028    28.700     8.785
    41   6 C        2.920    -0.031    28.784     8.798
    42   6 C        2.922    -0.030    28.758     8.794
    43   6 C        2.909    -0.040    28.985     8.828
    44   6 C        3.074     0.047    26.877     8.500
    45   6 C        2.914    -0.041    29.024     8.834
    46   6 C        2.924    -0.040    28.984     8.829
    47   1 H        0.926     0.038     2.470     2.458
    48   1 H        0.926     0.056     2.247     2.344
    49   1 H        0.926     0.040     2.451     2.448
    50   1 H        0.926     0.041     2.439     2.442
    51   1 H        0.926     0.040     2.446     2.446
    52   1 H        0.926     0.043     2.410     2.428
    53   1 H        0.926     0.043     2.405     2.425
    54   1 H        0.926     0.040     2.443     2.444
    55   1 H        0.926     0.040     2.445     2.445
    56   1 H        0.926     0.038     2.474     2.460
    57   1 H        0.926     0.059     2.214     2.327
    58   1 H        0.926     0.053     2.285     2.364
    59   1 H        0.926     0.033     2.548     2.496
    60   1 H        0.926     0.031     2.573     2.509
    61   1 H        0.926     0.039     2.458     2.452
    62   1 H        0.926     0.043     2.404     2.424
    63   1 H        0.926     0.043     2.409     2.427
    64   1 H        0.926     0.044     2.402     2.423
    65   1 H        0.926     0.046     2.371     2.408
    66   1 H        0.926     0.046     2.370     2.408
    67   1 H        0.926     0.043     2.403     2.424
    68   1 H        0.926     0.042     2.416     2.431
    69   1 H        0.926     0.042     2.424     2.434
    70   1 H        0.926     0.044     2.397     2.421
    71   1 H        0.926     0.048     2.342     2.393

molecular dipole:
                 x           y           z       tot (Debye)
 q only:        0.246      -0.799       0.248
   full:        0.317      -0.578       0.349       1.897

 projected vibrational frequencies (cm⁻¹)
eigval :       -0.00    -0.00    -0.00    -0.00     0.00     0.00
eigval :        8.37    11.52    13.49    24.25    29.66    37.42
eigval :       44.29    56.76    67.40    84.54    90.55   100.75
eigval :      104.19   111.60   117.86   125.97   141.36   144.04
eigval :      159.67   172.33   179.49   190.74   221.70   236.99
eigval :      251.79   257.66   271.12   271.58   286.68   298.92
eigval :      335.95   369.22   377.27   380.69   382.42   383.02
eigval :      386.86   395.17   405.40   408.94   418.32   420.52
eigval :      424.68   435.17   438.54   460.30   491.23   505.82
eigval :      512.83   514.66   534.26   535.57   537.14   540.84
eigval :      544.77   556.78   568.28   577.50   584.26   589.34
eigval :      595.36   603.92   614.03   615.50   647.23   654.75
eigval :      671.01   673.89   674.86   694.84   700.99   709.49
eigval :      710.86   724.64   753.71   754.88   766.81   770.25
eigval :      773.56   776.55   777.68   793.11   815.17   823.16
eigval :      830.16   837.54   863.80   867.44   867.93   871.16
eigval :      876.86   893.68   896.90   899.70   901.76   902.18
eigval :      902.94   909.37   913.63   916.53   917.75   918.59
eigval :      923.58   924.49   927.73   929.81   931.92   975.29
eigval :      996.88  1008.33  1010.30  1016.87  1063.14  1064.81
eigval :     1067.82  1068.69  1071.99  1110.39  1113.71  1122.36
eigval :     1133.64  1136.20  1136.97  1143.10  1160.55  1171.42
eigval :     1173.90  1175.68  1176.66  1177.67  1179.31  1198.80
eigval :     1201.33  1224.60  1229.58  1233.13  1236.38  1247.37
eigval :     1255.63  1260.61  1271.83  1276.75  1284.73  1286.48
eigval :     1292.05  1317.49  1320.64  1329.49  1334.71  1338.20
eigval :     1348.94  1354.76  1358.03  1362.41  1368.15  1384.72
eigval :     1403.45  1403.56  1412.41  1417.30  1419.55  1425.96
eigval :     1451.83  1458.22  1460.57  1469.46  1476.81  1479.56
eigval :     1483.57  1499.07  1552.68  1555.80  1560.10  1564.28
eigval :     1568.88  1573.07  1577.00  1579.01  1583.80  1594.39
eigval :     1601.73  2237.45  3059.21  3078.08  3079.40  3079.82
eigval :     3081.62  3082.16  3082.73  3084.82  3085.85  3086.04
eigval :     3087.58  3088.53  3091.21  3092.21  3093.46  3094.04
eigval :     3094.44  3095.96  3097.82  3098.87  3099.14  3100.11
eigval :     3101.27  3101.93  3129.98

   temp. (K)  partition function   enthalpy   heat capacity  entropy
                                   cal/mol     cal/K/mol   cal/K/mol   J/K/mol
 298.15  VIB  0.124E+17            20736.709    132.797    128.429
         ROT  0.102E+09              888.752      2.981     39.630
         INT  0.126E+25            21625.461    135.778    168.059
         TR   0.138E+29             1481.254      4.968     44.977
         TOT                       23106.7153   140.7465   213.0357   891.3414

       T/K    H(0)-H(T)+PV         H(T)/Eh          T*S/Eh         G(T)/Eh
   ------------------------------------------------------------------------
    298.15    0.368229E-01    0.564671E+00    0.101220E+00    0.463451E+00
   ------------------------------------------------------------------------

         :::::::::::::::::::::::::::::::::::::::::::::::::::::
         ::                  THERMODYNAMIC                  ::
         :::::::::::::::::::::::::::::::::::::::::::::::::::::
         :: total free energy        -114.703881710588 Eh   ::
         ::.................................................::
         :: total energy             -115.167332283287 Eh   ::
         :: zero point energy           0.527847818723 Eh   ::
         :: G(RRHO) w/o ZPVE           -0.064397246024 Eh   ::
         :: G(RRHO) contrib.            0.463450572699 Eh   ::
         :::::::::::::::::::::::::::::::::::::::::::::::::::::

           -------------------------------------------------
          | TOTAL ENERGY             -115.167332283287 Eh   |
          | TOTAL ENTHALPY           -114.602661569780 Eh   |
          | TOTAL FREE ENERGY        -114.703881710588 Eh   |
          | GRADIENT NORM               0.000043609876 Eh/α |
          | HOMO-LUMO GAP               0.258630288641 eV   |
           -------------------------------------------------

 * finished run on 2025/09/14 at 12:08:58.011
