   * xtb version 6.7.1 (edcfbbe) compiled by 'albert@albert-system' on 2024-07-22

   ID    Z sym.   atoms
    1    6 C      1-8, 10-19, 21-30, 32-49
    2    7 N      9, 31
    3    5 B      20
    4    1 H      50-102

          program call               : xtb data2507/gas/t-DABNA/t-DABNA_gas_S0_finalOpt.xtbopt.xyz --gfn 2 --spinpol --tblite --uhf 2 --ohess vtight --parallel 40 --molden --ceasefiles --namespace data2507/gas/t-DABNA/t-DABNA_gas_T1_preOpt
 * total energy  :  -132.6385321 Eh     change        0.2903107E-08 Eh
 * total energy  :  -132.6395424 Eh     change       -0.1010239E-02 Eh
 * total energy  :  -132.6397510 Eh     change       -0.2085739E-03 Eh
 * total energy  :  -132.6397648 Eh     change       -0.1384639E-04 Eh
 * total energy  :  -132.6397718 Eh     change       -0.6947280E-05 Eh
 * total energy  :  -132.6397764 Eh     change       -0.4639417E-05 Eh
 * total energy  :  -132.6397888 Eh     change       -0.1241231E-04 Eh
 * total energy  :  -132.6397942 Eh     change       -0.5354230E-05 Eh
 * total energy  :  -132.6398032 Eh     change       -0.9014702E-05 Eh
 * total energy  :  -132.6398136 Eh     change       -0.1046916E-04 Eh
 * total energy  :  -132.6400839 Eh     change       -0.2702966E-06 Eh
 * total energy  :  -132.6400848 Eh     change       -0.9621787E-06 Eh
 * total energy  :  -132.6400851 Eh     change       -0.2083380E-06 Eh
 * total energy  :  -132.6400855 Eh     change       -0.4340638E-06 Eh
 * total energy  :  -132.6400859 Eh     change       -0.4574862E-06 Eh
 * total energy  :  -132.6400865 Eh     change       -0.5593376E-06 Eh
 * total energy  :  -132.6400870 Eh     change       -0.4747662E-06 Eh
 * total energy  :  -132.6400873 Eh     change       -0.2819415E-06 Eh
 * total energy  :  -132.6400874 Eh     change       -0.9408279E-07 Eh
   *** GEOMETRY OPTIMIZATION CONVERGED AFTER 76 ITERATIONS ***

 final structure:
================
102
 xtb: 6.7.1 (edcfbbe)
C            8.39943163967162        2.88326555885949        0.06728989217839
C            7.20462344422243        3.77368644627054       -0.30277549518111
C            7.46216563881771        4.36493274022697       -1.69139495092629
C            7.09045630173448        4.93344697376845        0.69696803257766
C            5.93300093293127        2.94301712729322       -0.24607758486643
C            5.56102986176841        2.33910742455292        0.95546262012875
C            4.41795631130605        1.57448119863313        1.05828593095869
C            3.60136155630743        1.38782589403366       -0.05253528472345
N            2.41658150164199        0.61086511118952        0.03652486768995
C            2.53668318043039       -0.76279435237285        0.15621602977972
C            3.80858405593030       -1.33857627389774        0.17220378292128
C            3.97320905875253       -2.69312388125193        0.39722527846475
C            2.87042556220472       -3.51773044233415        0.64247630851064
C            3.10027375461043       -4.98579603498417        0.95876009324796
C            3.83767108209022       -5.64534888061676       -0.21571204415333
C            1.79848719911022       -5.75631271213335        1.19272355467400
C            3.95396578083125       -5.09014776184224        2.23106980585409
C            1.61142743779630       -2.94651637844187        0.56261291872743
C            1.38359281718754       -1.59453442643849        0.25218027525998
B            0.00529832494431       -0.95757681050992        0.03043815022108
C           -1.36743987455933       -1.60179859678107       -0.20430475925729
C           -1.58463755402131       -2.95433464213069       -0.51997878830647
C           -2.83991852910540       -3.52534141656277       -0.64657365943201
C           -3.05721302936323       -4.99423736463944       -0.96862006294053
C           -1.74721235461525       -5.77124308292292       -1.12124206573931
C           -3.83506570145381       -5.10076554184093       -2.28842786983794
C           -3.86502383674054       -5.64591341292678        0.16316376790424
C           -3.95149231189295       -2.69875711352536       -0.45486126425983
C           -3.79500553643009       -1.34530615401472       -0.21681359571932
C           -2.52419064513947       -0.77363226075591       -0.13461751169018
N           -2.41104442891166        0.59723752024902        0.01648436314696
C           -3.60615341128596        1.36610970174325        0.07693111460899
C           -4.07763852725226        1.82778670446178        1.29723032660945
C           -5.23669792317871        2.58118797471498        1.35778054371625
C           -5.95531794106903        2.89607371546271        0.21019007374677
C           -7.23204769001969        3.72100619743455        0.23278067047254
C           -7.02464259856387        4.98541178040104       -0.61313578891093
C           -8.37805686569527        2.88422259744930       -0.35338069772541
C           -7.63126364005166        4.15264948818192        1.64641630100221
C           -5.46548072840459        2.42503755157756       -1.00756593647638
C           -4.31140429682371        1.67229186801372       -1.08089232391524
C           -1.20681773214706        1.28614612320223        0.03876012740137
C           -1.20807769894006        2.68269005075548        0.05953324367687
C           -0.00665864090932        3.37920744007582        0.10853443067562
C            1.19795319334919        2.68888567860210        0.11559750517324
C            1.20612942663885        1.29288837424044        0.05980977317615
C            0.00175449612125        0.55925256932774        0.03877022907122
C            3.95543953000220        1.98438720200422       -1.25580445756785
C            5.10467405043766        2.74822331526804       -1.34612198572290
H            8.47335935630437        2.04702439543479       -0.62491617852314
H            8.30129336106598        2.48491396677175        1.07325727166515
H            9.32301267851722        3.45594390716260        0.01654939568584
H            7.57858373684287        3.58068187399628       -2.43578030974617
H            6.65277551807498        5.02620471103398       -1.99209180389895
H            8.38107306179957        4.94738424712386       -1.67176240056307
H            6.23171358518315        5.55602335999490        0.45417602241177
H            7.98570781671819        5.55032065569781        0.65813354542257
H            6.97162173321736        4.57107263100361        1.71422084024421
H            6.17128390713974        2.46723142901563        1.83648255302638
H            4.14632392654732        1.11590393907033        1.99784340818645
H            4.68635513935555       -0.73000615166252        0.01519648568109
H            4.97516881195049       -3.09341842651841        0.39926616039139
H            4.80672323483151       -5.18441721005831       -0.38527290438114
H            3.99423881738933       -6.70335369046328       -0.01399201560261
H            3.25086274153311       -5.55013837902950       -1.12712726419710
H            1.23580454846344       -5.33377484477618        2.02193623987761
H            2.02764985980745       -6.79290736123896        1.43392365190908
H            1.17906229692615       -5.74884500852242        0.29918992713895
H            4.13113650506854       -6.13469029568076        2.48040552235574
H            3.44064792892269       -4.61736149186700        3.06603214710350
H            4.91614418039577       -4.60199723608831        2.10259461985377
H            0.74067602695503       -3.54846794952514        0.75229012150699
H           -0.70790837216660       -3.55644386744947       -0.67834550282475
H           -1.96633664654186       -6.81023376225911       -1.36147796735434
H           -1.17798596427433       -5.75351187432985       -0.19495102117055
H           -1.13832637037378       -5.36131864990530       -1.92371049523270
H           -3.27082078436622       -4.63512392637537       -3.09401834177307
H           -4.80007597509602       -4.60619540721644       -2.21883181201334
H           -4.00350566743456       -6.14558480692482       -2.54265319949574
H           -3.33321983501902       -5.54756650103112        1.10740570262698
H           -4.01209669215828       -6.70455829641618       -0.04235468763789
H           -4.84139320294768       -5.18234324445465        0.27259807621762
H           -4.95309061484454       -3.09636105994178       -0.50888425789557
H           -4.67762546521762       -0.73382923993151       -0.10274931084631
H           -3.53092861414883        1.59310967719955        2.19871905893025
H           -5.57065167478224        2.91845703630018        2.32508123885672
H           -6.19930762741945        5.57265117648345       -0.21569201183451
H           -6.80058869242331        4.73941554561423       -1.64732881705637
H           -7.92336631073461        5.59815038036608       -0.59623698187511
H           -9.30593038989281        3.45158208383390       -0.32860012981729
H           -8.17894843037477        2.60374810347777       -1.38385081428447
H           -8.51433838152867        1.97438846115310        0.22753757546279
H           -6.86164538095655        4.77361360211693        2.09903239902992
H           -7.81477602626859        3.28980230537157        2.28244301916400
H           -8.54844808124630        4.73629079791090        1.60062567227094
H           -5.98958298064982        2.64835410435688       -1.92427939019011
H           -3.94747647997923        1.31471989339101       -2.03293724133922
H           -2.13590935507873        3.23416335512311        0.05314210375549
H           -0.01024726024878        4.45707191084221        0.14220247368800
H            2.12197218086375        3.24498073388623        0.15841695364904
H            3.32344533730692        1.84467193341289       -2.12063391380826
H            5.34445975771926        3.18987000599121       -2.29925667873482

 projected vibrational frequencies (cm⁻¹)
eigval :       -0.00    -0.00    -0.00     0.00     0.00     0.00
eigval :        4.29    10.81    13.81    17.99    19.30    26.61
eigval :       27.62    29.18    37.44    43.73    53.01    59.96
eigval :       68.84    70.58    88.09    97.15    98.08   103.93
eigval :      120.19   140.93   153.01   162.82   173.93   175.05
eigval :      177.44   178.32   180.27   186.49   202.47   216.57
eigval :      217.41   221.31   222.65   223.75   229.18   234.34
eigval :      245.90   247.57   256.28   266.88   267.87   300.47
eigval :      305.28   309.71   314.12   315.46   315.78   316.54
eigval :      326.92   331.59   346.67   350.57   354.66   358.94
eigval :      362.61   363.99   379.04   379.82   388.99   392.68
eigval :      397.60   405.53   406.17   416.67   420.66   425.48
eigval :      436.82   443.62   452.32   453.70   456.24   466.59
eigval :      472.51   475.64   485.29   506.34   522.37   524.91
eigval :      550.84   551.47   555.09   577.59   589.92   596.47
eigval :      604.10   604.97   608.69   613.05   616.50   654.38
eigval :      658.63   660.07   686.77   694.37   699.11   703.58
eigval :      718.45   724.16   745.08   766.15   776.55   785.33
eigval :      792.68   811.23   816.96   838.21   845.39   861.29
eigval :      867.01   868.54   868.58   869.17   871.87   873.45
eigval :      875.55   877.43   879.31   905.18   912.01   912.92
eigval :      917.71   925.27   926.92   927.03   945.84   958.04
eigval :      958.92   960.47   960.73   961.44   962.04   962.68
eigval :      962.86   963.38   963.42   963.56   965.33   966.49
eigval :     1005.14  1014.19  1033.10  1033.99  1034.19  1035.03
eigval :     1035.11  1035.52  1035.67  1036.57  1070.20  1087.86
eigval :     1121.79  1133.26  1140.22  1140.66  1144.56  1145.46
eigval :     1155.36  1162.00  1180.11  1191.53  1192.82  1200.39
eigval :     1211.24  1219.53  1223.31  1225.64  1226.10  1227.42
eigval :     1227.81  1228.56  1229.74  1233.36  1233.61  1237.92
eigval :     1250.87  1259.12  1266.86  1274.47  1275.06  1279.48
eigval :     1279.99  1287.13  1289.23  1301.10  1306.52  1308.70
eigval :     1314.86  1315.82  1323.73  1340.04  1360.28  1361.74
eigval :     1377.77  1388.88  1397.57  1398.38  1402.90  1403.87
eigval :     1403.94  1404.95  1405.97  1406.17  1408.48  1409.32
eigval :     1409.62  1427.18  1427.33  1428.99  1429.16  1430.58
eigval :     1447.75  1470.81  1471.57  1481.14  1483.87  1491.61
eigval :     1491.68  1491.76  1492.14  1493.86  1494.08  1495.45
eigval :     1495.50  1498.85  1499.01  1501.39  1501.63  1503.47
eigval :     1505.14  1505.45  1505.83  1506.90  1508.44  1512.03
eigval :     1514.06  1514.52  1514.54  1519.03  1519.11  1519.45
eigval :     1522.46  1531.09  1533.52  1540.96  1551.71  1578.84
eigval :     1586.41  3016.02  3016.41  3017.68  3017.81  3023.43
eigval :     3023.93  3024.60  3025.10  3025.54  3025.69  3026.08
eigval :     3026.40  3027.84  3028.19  3029.56  3029.66  3031.08
eigval :     3031.46  3032.25  3032.79  3035.12  3035.36  3036.44
eigval :     3036.76  3037.03  3039.45  3039.85  3040.29  3045.38
eigval :     3045.60  3047.59  3047.89  3049.03  3049.28  3050.92
eigval :     3051.25  3077.75  3078.96  3081.06  3082.05  3084.06
eigval :     3085.01  3086.11  3090.72  3091.09  3092.06  3093.21
eigval :     3093.96  3102.37  3116.45  3117.15  3136.26  3143.55

   temp. (K)  partition function   enthalpy   heat capacity  entropy
                                   cal/mol     cal/K/mol   cal/K/mol   J/K/mol
 298.15  VIB  0.830E+23            28967.755    177.792    179.960
         ROT  0.112E+09              888.752      2.981     39.807
         INT  0.927E+31            29856.508    180.773    219.767
         TR   0.158E+29             1481.254      4.968     45.253
         TOT                       31337.7617   185.7415   265.0200  1108.8435

       T/K    H(0)-H(T)+PV         H(T)/Eh          T*S/Eh         G(T)/Eh
   ------------------------------------------------------------------------
    298.15    0.499399E-01    0.906951E+00    0.125920E+00    0.781031E+00
   ------------------------------------------------------------------------

         :::::::::::::::::::::::::::::::::::::::::::::::::::::
         ::                  THERMODYNAMIC                  ::
         :::::::::::::::::::::::::::::::::::::::::::::::::::::
         :: total free energy        -131.859056257370 Eh   ::
         ::.................................................::
         :: total energy             -132.640087417719 Eh   ::
         :: zero point energy           0.857010792964 Eh   ::
         :: G(RRHO) w/o ZPVE           -0.075979632615 Eh   ::
         :: G(RRHO) contrib.            0.781031160349 Eh   ::
         :::::::::::::::::::::::::::::::::::::::::::::::::::::

           -------------------------------------------------
          | TOTAL ENERGY             -132.640087417719 Eh   |
          | TOTAL ENTHALPY           -131.733136722676 Eh   |
          | TOTAL FREE ENERGY        -131.859056257370 Eh   |
          | GRADIENT NORM               0.000157581246 Eh/α |
           -------------------------------------------------

 * finished run on 2025/07/19 at 22:52:46.153
