   * xtb version 6.7.1 (edcfbbe) compiled by 'albert@albert-system' on 2024-07-22

   ID    Z sym.   atoms
    1    6 C      1-8, 10-19, 21-30, 32-49
    2    7 N      9, 31
    3    5 B      20
    4    1 H      50-102

          program call               : xtb data2507/gas/t-DABNA/t-DABNA_gas_S0_crest.xyz --gfn 2 --ohess vtight --parallel 40 --molden --ceasefiles --namespace data2507/gas/t-DABNA/t-DABNA_gas_S0_finalOpt
          :  Hamiltonian                  GFN2-xTB          :
 * total energy  :  -132.7293836 Eh     change       -0.1542446E-08 Eh
 * total energy  :  -132.7293850 Eh     change       -0.1487506E-05 Eh
 * total energy  :  -132.7293873 Eh     change       -0.2245670E-05 Eh
 * total energy  :  -132.7293895 Eh     change       -0.2226729E-05 Eh
 * total energy  :  -132.7293923 Eh     change       -0.2827254E-05 Eh
 * total energy  :  -132.7293965 Eh     change       -0.4183398E-05 Eh
 * total energy  :  -132.7294008 Eh     change       -0.4258605E-05 Eh
 * total energy  :  -132.7294031 Eh     change       -0.2312295E-05 Eh
 * total energy  :  -132.7294034 Eh     change       -0.2553604E-06 Eh
 * total energy  :  -132.7294043 Eh     change       -0.9449148E-06 Eh
 * total energy  :  -132.7294108 Eh     change       -0.1915873E-05 Eh
 * total energy  :  -132.7294125 Eh     change       -0.1697249E-05 Eh
 * total energy  :  -132.7294138 Eh     change       -0.1317998E-05 Eh
 * total energy  :  -132.7294147 Eh     change       -0.9269425E-06 Eh
 * total energy  :  -132.7294155 Eh     change       -0.7963800E-06 Eh
 * total energy  :  -132.7294162 Eh     change       -0.6928330E-06 Eh
 * total energy  :  -132.7294169 Eh     change       -0.6663638E-06 Eh
 * total energy  :  -132.7294175 Eh     change       -0.6663539E-06 Eh
 * total energy  :  -132.7294176 Eh     change       -0.1289180E-07 Eh
   *** GEOMETRY OPTIMIZATION CONVERGED AFTER 22 ITERATIONS ***

 final structure:
================
102
 xtb: 6.7.1 (edcfbbe)
C            8.36514724789361        2.98014206441843        0.18906008033254
C            7.21564083084823        3.74753583403233       -0.47934009434259
C            7.61994501395659        4.04973554673661       -1.92479502145740
C            6.99119237304531        5.08355264861294        0.24301979986608
C            5.94654675656469        2.91507599985387       -0.38697181511587
C            5.44601074128048        2.56737356701781        0.86659594284515
C            4.29586067235485        1.81623874005340        1.00276548916147
C            3.60979428071182        1.38563991709315       -0.12553923850985
N            2.41484840231969        0.61843961727421       -0.00229748144668
C            2.52732526418935       -0.74865844975690        0.16866998561955
C            3.80241030400620       -1.31890890499354        0.27881181658713
C            3.95667038292296       -2.66039100394202        0.52796243776525
C            2.85336479414536       -3.50016154236965        0.70126806112924
C            3.07627736443289       -4.96656921404475        1.03776613022041
C            3.90865649031827       -5.61937349710638       -0.07499593787291
C            1.76673490052867       -5.74864576100885        1.16830445510484
C            3.82814001556672       -5.06290719087576        2.37271267117634
C            1.60346462550273       -2.93306308852241        0.55108908419211
C            1.39127494669126       -1.58180709471464        0.24498036941215
B            0.00901050063212       -0.93757317856222        0.00410631780750
C           -1.37069141799772       -1.58482191252747       -0.24332067763811
C           -1.57755332867608       -2.93527131478581       -0.55659599118534
C           -2.82488399276742       -3.50388445393841       -0.72184158070738
C           -3.04207935728377       -4.97074965416742       -1.06007204009509
C           -1.73030246112846       -5.75183997686883       -1.17255901408928
C           -3.77678680389621       -5.06990920318162       -2.40426916555085
C           -3.88799689965570       -5.62260418570723        0.04302790031479
C           -3.93124488465464       -2.66521565423847       -0.56380836857521
C           -3.78173819469646       -1.32454568718232       -0.30772125042893
C           -2.50900320950466       -0.75439555083003       -0.17257390553312
N           -2.40168171647732        0.61111358218725        0.01413749939191
C           -3.60247967528321        1.37063146185810        0.13003456545080
C           -4.14468001637576        1.62890517987233        1.37852058283059
C           -5.30990071372547        2.36758959484504        1.49434005119296
C           -5.96212745361810        2.86716496631471        0.37365167133777
C           -7.24387104751798        3.68109014798864        0.45615789597567
C           -6.99514952793754        5.06713305494447       -0.15536924802949
C           -8.34757569713192        2.95625970501535       -0.32717807207227
C           -7.72930314535680        3.87432117573729        1.89528792189038
C           -5.40050927896147        2.60011719682920       -0.87379755702404
C           -4.23958141376169        1.86423215062267       -1.00115180617769
C           -1.20741588541225        1.29966441280518        0.02158170931986
C           -1.20128850804310        2.69541220978762        0.05044618250218
C            0.00242072318688        3.37188953482064        0.04298905027630
C            1.20810352699040        2.69935828489919        0.01653847278159
C            1.21825126939292        1.30338193112591        0.00988558555652
C            0.00653802850149        0.58072533274298        0.00995258716253
C            4.09413356927026        1.71987858771412       -1.37985096105679
C            5.24764049881193        2.47518021335974       -1.50452586041711
H            8.51509383045864        2.02243241325811       -0.30517904987053
H            8.15995765541621        2.79291458968834        1.23937885050641
H            9.28760533609191        3.55258409920261        0.11918610110402
H            7.82054159713405        3.13375647078137       -2.47566003127243
H            6.84486104844680        4.61373711412335       -2.43853157443810
H            8.52846933477842        4.64855285926402       -1.92841844079042
H            6.16065534275761        5.62091626206972       -0.21015849694713
H            7.88305046395427        5.70231316907376        0.17054725770908
H            6.76638409279338        4.93414673206466        1.29530995600344
H            5.95792851056263        2.88734713009955        1.76143829926443
H            3.92098146311848        1.55734606431738        1.98221019073400
H            4.68214778676374       -0.70021567937918        0.17952167335133
H            4.95973303123920       -3.05282950035544        0.60853765422508
H            4.88441765261626       -5.15071036340257       -0.16816025342847
H            4.05843772169258       -6.67610568636955        0.13807125168477
H            3.39475274667150       -5.52898528120411       -1.02994395292810
H            1.14144333512632       -5.33883346941685        1.95826067277299
H            1.98563132863553       -6.78568541682881        1.41662378142359
H            1.21453941734288       -5.73751515459972        0.23156177996635
H            3.99487710227677       -6.10527267190013        2.63777958858227
H            3.24765005690145       -4.59335151977670        3.16439671449728
H            4.79326426691415       -4.56638629251347        2.31874976850193
H            0.72655906848813       -3.53861063164702        0.69783611769150
H           -0.69826284158562       -3.53896211032209       -0.69633425673369
H           -1.94511532018383       -6.78970479662152       -1.42097219425678
H           -1.18973849107295       -5.73775518464782       -0.22908459680054
H           -1.09572685434456       -5.34333896391136       -1.95576092937647
H           -3.18551333198670       -4.60345956674735       -3.18976527165493
H           -4.74184995062094       -4.57198218442362       -2.36425690840421
H           -3.94151755595862       -6.11283899641764       -2.66836994933458
H           -3.38504637895361       -5.53263212038069        1.00382505306027
H           -4.03646056633856       -6.67920339159125       -0.17158393577657
H           -4.86420710830760       -5.15278603457883        0.12489186492300
H           -4.93269862311321       -3.05768528622924       -0.66228755048430
H           -4.66330721375408       -0.70627640638495       -0.22306811277638
H           -3.65013263177668        1.24784369806145        2.25993849490508
H           -5.70034241486680        2.54602077170727        2.48263800431577
H           -6.19899073869899        5.57785446940371        0.38241660437408
H           -6.70783356393381        4.99454291923180       -1.20057654824032
H           -7.89745573036780        5.67153379318023       -0.09161470104249
H           -9.27917042455148        3.51450688217354       -0.26407081115910
H           -8.08625926532804        2.84944916208181       -1.37622779624124
H           -8.51172606927212        1.96325996176831        0.08626736441599
H           -6.99288265604597        4.41115907285368        2.48875169805737
H           -7.94234300603948        2.91859128346603        2.36853938477315
H           -8.64719662445858        4.45867011181740        1.89184424308195
H           -5.87311823266699        2.97087861452697       -1.77065692719642
H           -3.81847109141042        1.66589150182589       -1.97592634634859
H           -2.12550890722292        3.25169612573640        0.06884123511216
H            0.00086905445685        4.45245756729018        0.05844011241020
H            2.13073088378512        3.25859815109968        0.01446776329050
H            3.56178806420085        1.38759522760697       -2.25898881300841
H            5.59125776643388        2.71488119143228       -2.49723491880965

          :  Hamiltonian                  GFN2-xTB          :
         :: gradient norm              0.000063374469 Eh/a0 ::
         :: HOMO-LUMO gap              2.351826775098 eV    ::
         :: SCC energy              -135.026451082388 Eh    ::
         :: -> dispersion             -0.129800218919 Eh    ::
         :: repulsion energy           2.297033528260 Eh    ::

    * Orbital Energies and Occupations

         #    Occupation            Energy/Eh            Energy/eV
      -------------------------------------------------------------
         1        2.0000           -0.6570069             -17.8781
       ...           ...                  ...                  ...
       113        2.0000           -0.4068235             -11.0702
       114        2.0000           -0.4002813             -10.8922
       115        2.0000           -0.3997318             -10.8773
       116        2.0000           -0.3948492             -10.7444
       117        2.0000           -0.3931125             -10.6971
       118        2.0000           -0.3901629             -10.6169
       119        2.0000           -0.3825555             -10.4099
       120        2.0000           -0.3790924             -10.3156
       121        2.0000           -0.3775187             -10.2728
       122        2.0000           -0.3661782              -9.9642
       123        2.0000           -0.3643762              -9.9152
       124        2.0000           -0.3493802              -9.5071
       125        2.0000           -0.3292274              -8.9587 (HOMO)
       126                         -0.2427994              -6.6069 (LUMO)
       127                         -0.2261605              -6.1541
       128                         -0.2252516              -6.1294
       129                         -0.2246254              -6.1124
       130                         -0.2244271              -6.1070
       131                         -0.2078008              -5.6545
       132                         -0.2033780              -5.5342
       133                         -0.1982720              -5.3953
       134                         -0.1848131              -5.0290
       135                         -0.1664561              -4.5295
       136                         -0.1270446              -3.4571
       ...                                ...                  ...
       249                          0.7286756              19.8283
      -------------------------------------------------------------
                  HL-Gap            0.0864281 Eh            2.3518 eV

     #   Z          covCN         q      C6AA      α(0)
     1   6 C        3.762    -0.106    22.570     6.772
     2   6 C        3.903     0.026    20.083     6.370
     3   6 C        3.761    -0.108    22.619     6.780
     4   6 C        3.762    -0.106    22.572     6.773
     5   6 C        2.973     0.008    27.830     8.653
     6   6 C        2.927    -0.035    28.870     8.812
     7   6 C        2.920    -0.040    28.986     8.829
     8   6 C        2.934     0.066    26.516     8.445
     9   7 N        2.755    -0.054    22.292     7.012
    10   6 C        2.927     0.055    26.764     8.484
    11   6 C        2.918    -0.059    29.478     8.903
    12   6 C        2.928    -0.035    28.869     8.811
    13   6 C        2.968    -0.007    28.192     8.709
    14   6 C        3.903     0.025    20.101     6.373
    15   6 C        3.762    -0.104    22.527     6.766
    16   6 C        3.761    -0.105    22.559     6.771
    17   6 C        3.762    -0.104    22.526     6.766
    18   6 C        2.930    -0.046    29.137     8.852
    19   6 C        2.887    -0.087    30.176     9.006
    20   5 B        2.725     0.187    18.564     7.219
    21   6 C        2.886    -0.087    30.175     9.006
    22   6 C        2.930    -0.046    29.137     8.852
    23   6 C        2.969    -0.007    28.191     8.709
    24   6 C        3.903     0.025    20.101     6.373
    25   6 C        3.761    -0.105    22.558     6.771
    26   6 C        3.762    -0.104    22.526     6.766
    27   6 C        3.762    -0.104    22.528     6.766
    28   6 C        2.928    -0.035    28.869     8.811
    29   6 C        2.918    -0.059    29.477     8.903
    30   6 C        2.928     0.055    26.764     8.484
    31   7 N        2.755    -0.054    22.293     7.012
    32   6 C        2.934     0.066    26.514     8.445
    33   6 C        2.921    -0.040    29.004     8.832
    34   6 C        2.925    -0.039    28.967     8.826
    35   6 C        2.973     0.008    27.829     8.653
    36   6 C        3.903     0.026    20.083     6.370
    37   6 C        3.762    -0.106    22.571     6.772
    38   6 C        3.762    -0.106    22.572     6.773
    39   6 C        3.761    -0.108    22.619     6.780
    40   6 C        2.927    -0.035    28.868     8.811
    41   6 C        2.920    -0.040    28.985     8.829
    42   6 C        2.928     0.060    26.659     8.468
    43   6 C        2.917    -0.073    29.822     8.955
    44   6 C        2.920    -0.030    28.746     8.792
    45   6 C        2.917    -0.073    29.820     8.955
    46   6 C        2.928     0.060    26.661     8.468
    47   6 C        2.898    -0.108    30.723     9.088
    48   6 C        2.921    -0.040    29.004     8.832
    49   6 C        2.925    -0.039    28.967     8.826
    50   1 H        0.925     0.035     2.523     2.484
    51   1 H        0.925     0.037     2.486     2.466
    52   1 H        0.925     0.038     2.469     2.457
    53   1 H        0.925     0.037     2.495     2.470
    54   1 H        0.925     0.037     2.494     2.470
    55   1 H        0.925     0.037     2.482     2.464
    56   1 H        0.925     0.035     2.523     2.484
    57   1 H        0.925     0.038     2.470     2.458
    58   1 H        0.925     0.037     2.486     2.466
    59   1 H        0.926     0.035     2.515     2.480
    60   1 H        0.926     0.038     2.470     2.457
    61   1 H        0.926     0.016     2.792     2.613
    62   1 H        0.926     0.020     2.727     2.583
    63   1 H        0.925     0.034     2.535     2.490
    64   1 H        0.925     0.033     2.547     2.496
    65   1 H        0.925     0.032     2.559     2.502
    66   1 H        0.925     0.034     2.532     2.489
    67   1 H        0.925     0.032     2.559     2.501
    68   1 H        0.925     0.036     2.507     2.476
    69   1 H        0.925     0.033     2.548     2.496
    70   1 H        0.925     0.032     2.564     2.504
    71   1 H        0.925     0.034     2.535     2.490
    72   1 H        0.926     0.039     2.457     2.451
    73   1 H        0.926     0.039     2.455     2.450
    74   1 H        0.925     0.032     2.558     2.501
    75   1 H        0.925     0.036     2.508     2.476
    76   1 H        0.925     0.034     2.533     2.489
    77   1 H        0.925     0.032     2.564     2.504
    78   1 H        0.925     0.034     2.535     2.490
    79   1 H        0.925     0.033     2.548     2.496
    80   1 H        0.925     0.032     2.559     2.502
    81   1 H        0.925     0.033     2.547     2.496
    82   1 H        0.925     0.034     2.534     2.489
    83   1 H        0.926     0.020     2.728     2.583
    84   1 H        0.926     0.016     2.794     2.614
    85   1 H        0.926     0.038     2.475     2.460
    86   1 H        0.926     0.042     2.421     2.433
    87   1 H        0.925     0.035     2.523     2.484
    88   1 H        0.925     0.037     2.486     2.466
    89   1 H        0.925     0.038     2.469     2.457
    90   1 H        0.925     0.038     2.470     2.457
    91   1 H        0.925     0.037     2.486     2.465
    92   1 H        0.925     0.035     2.523     2.484
    93   1 H        0.925     0.037     2.494     2.470
    94   1 H        0.925     0.037     2.494     2.470
    95   1 H        0.925     0.038     2.482     2.464
    96   1 H        0.926     0.035     2.515     2.480
    97   1 H        0.926     0.038     2.470     2.458
    98   1 H        0.926     0.015     2.812     2.622
    99   1 H        0.926     0.019     2.741     2.589
   100   1 H        0.926     0.015     2.813     2.623
   101   1 H        0.926     0.038     2.476     2.461
   102   1 H        0.926     0.042     2.421     2.433

molecular dipole:
                 x           y           z       tot (Debye)
 q only:       -0.009       0.705      -0.005
   full:       -0.008       0.842      -0.005       2.141

 projected vibrational frequencies (cm⁻¹)
eigval :       -0.00    -0.00    -0.00    -0.00     0.00     0.00
eigval :       11.25    12.02    16.00    16.47    18.59    27.00
eigval :       27.40    29.94    37.82    45.77    53.71    57.87
eigval :       70.70    75.60    85.26    95.01    97.91   102.31
eigval :      120.71   141.77   153.75   165.55   174.17   175.15
eigval :      177.29   179.29   183.64   191.38   205.84   216.55
eigval :      217.78   221.56   223.14   224.75   229.19   237.58
eigval :      247.67   249.30   255.88   265.95   269.60   301.67
eigval :      310.21   312.07   314.68   315.87   316.16   318.59
eigval :      332.20   339.34   355.71   357.36   360.49   363.90
eigval :      364.53   367.59   380.96   381.14   391.15   398.88
eigval :      403.06   408.61   413.96   425.80   429.58   430.25
eigval :      440.42   449.85   453.64   454.08   459.91   469.93
eigval :      474.40   480.87   489.02   517.06   526.25   527.71
eigval :      553.16   555.69   567.08   581.32   589.46   596.10
eigval :      610.54   613.27   616.41   618.12   620.93   662.83
eigval :      663.27   685.90   697.82   705.80   708.55   711.96
eigval :      722.53   729.35   774.33   778.21   779.38   813.77
eigval :      819.17   820.59   821.14   845.60   870.63   870.88
eigval :      871.47   871.68   872.89   875.40   882.11   897.12
eigval :      910.35   914.37   915.39   917.33   917.79   919.63
eigval :      928.84   928.94   930.14   936.73   949.15   958.74
eigval :      960.62   960.97   960.98   961.52   962.20   963.00
eigval :      963.03   963.63   963.63   963.75   965.40   971.37
eigval :     1010.64  1017.44  1034.56  1035.21  1035.28  1035.51
eigval :     1035.55  1035.87  1035.88  1037.69  1085.98  1097.36
eigval :     1139.93  1140.59  1143.76  1143.84  1145.01  1145.31
eigval :     1162.03  1170.55  1196.73  1199.16  1199.76  1207.56
eigval :     1224.20  1227.32  1228.22  1228.23  1228.61  1229.50
eigval :     1233.25  1233.98  1234.00  1234.41  1247.96  1258.78
eigval :     1263.79  1275.11  1275.37  1282.26  1282.82  1284.42
eigval :     1295.93  1297.87  1307.43  1310.67  1311.03  1317.89
eigval :     1320.18  1341.71  1347.51  1353.82  1366.45  1397.61
eigval :     1397.66  1401.03  1404.22  1405.65  1405.72  1406.46
eigval :     1406.49  1409.65  1409.67  1413.13  1426.27  1428.87
eigval :     1428.94  1429.29  1429.98  1430.00  1438.26  1462.31
eigval :     1475.89  1488.17  1489.44  1491.86  1491.87  1492.81
eigval :     1493.28  1494.14  1494.15  1496.15  1496.17  1500.39
eigval :     1502.50  1502.58  1504.22  1506.03  1506.34  1506.53
eigval :     1506.89  1513.32  1514.68  1514.70  1515.17  1519.43
eigval :     1519.45  1519.82  1522.83  1539.59  1543.51  1565.48
eigval :     1570.26  1570.33  1575.42  1599.35  1602.01  1603.59
eigval :     1603.78  3016.99  3017.29  3018.52  3018.56  3023.77
eigval :     3023.82  3025.24  3025.50  3025.57  3025.67  3025.78
eigval :     3026.45  3028.17  3028.22  3029.16  3029.45  3031.56
eigval :     3031.64  3032.64  3032.75  3034.54  3034.56  3035.81
eigval :     3036.86  3036.90  3038.97  3039.72  3039.77  3044.24
eigval :     3044.40  3047.61  3047.71  3047.72  3048.02  3051.06
eigval :     3051.09  3071.14  3072.05  3072.09  3080.93  3080.99
eigval :     3085.65  3085.71  3086.88  3087.32  3092.85  3092.89
eigval :     3094.36  3099.31  3116.64  3116.70  3134.33  3141.78

   temp. (K)  partition function   enthalpy   heat capacity  entropy
                                   cal/mol     cal/K/mol   cal/K/mol   J/K/mol
 298.15  VIB  0.197E+23            28708.869    176.216    177.503
         ROT  0.112E+09              888.752      2.981     39.805
         INT  0.220E+31            29597.621    179.197    217.307
         TR   0.158E+29             1481.254      4.968     45.253
         TOT                       31078.8749   184.1653   262.5600  1098.5508

       T/K    H(0)-H(T)+PV         H(T)/Eh          T*S/Eh         G(T)/Eh
   ------------------------------------------------------------------------
    298.15    0.495273E-01    0.910747E+00    0.124751E+00    0.785996E+00
   ------------------------------------------------------------------------

         :::::::::::::::::::::::::::::::::::::::::::::::::::::
         ::                  THERMODYNAMIC                  ::
         :::::::::::::::::::::::::::::::::::::::::::::::::::::
         :: total free energy        -131.943421621992 Eh   ::
         ::.................................................::
         :: total energy             -132.729417554128 Eh   ::
         :: zero point energy           0.861219298106 Eh   ::
         :: G(RRHO) w/o ZPVE           -0.075223365971 Eh   ::
         :: G(RRHO) contrib.            0.785995932135 Eh   ::
         :::::::::::::::::::::::::::::::::::::::::::::::::::::

           -------------------------------------------------
          | TOTAL ENERGY             -132.729417554128 Eh   |
          | TOTAL ENTHALPY           -131.818670916369 Eh   |
          | TOTAL FREE ENERGY        -131.943421621992 Eh   |
          | GRADIENT NORM               0.000063371890 Eh/α |
          | HOMO-LUMO GAP               2.351827333907 eV   |
           -------------------------------------------------

 * finished run on 2025/07/19 at 22:52:28.438
