   * xtb version 6.7.1 (edcfbbe) compiled by 'albert@albert-system' on 2024-07-22

   ID    Z sym.   atoms
    1    6 C      1-8, 10-19, 21-30, 32-49
    2    7 N      9, 31
    3    5 B      20
    4    1 H      50-102

          program call               : xtb data2507/gas/t-DABNA/t-DABNA.xyz --gfn 2 --ohess vtight --parallel 40 --molden --ceasefiles --namespace data2507/gas/t-DABNA/t-DABNA_gas_S0_preOpt
          :  Hamiltonian                  GFN2-xTB          :
 * total energy  :  -132.6166759 Eh     change       -0.3935639E-08 Eh
 * total energy  :  -132.6748827 Eh     change       -0.5820689E-01 Eh
 * total energy  :  -132.6954516 Eh     change       -0.2056888E-01 Eh
 * total energy  :  -132.7034986 Eh     change       -0.8046962E-02 Eh
 * total energy  :  -132.7081675 Eh     change       -0.4668908E-02 Eh
 * total energy  :  -132.7114405 Eh     change       -0.3272982E-02 Eh
 * total energy  :  -132.7140987 Eh     change       -0.2658188E-02 Eh
 * total energy  :  -132.7164419 Eh     change       -0.2343196E-02 Eh
 * total energy  :  -132.7185354 Eh     change       -0.2093561E-02 Eh
 * total energy  :  -132.7202735 Eh     change       -0.1738066E-02 Eh
 * total energy  :  -132.7292730 Eh     change       -0.5068194E-06 Eh
 * total energy  :  -132.7292735 Eh     change       -0.4781689E-06 Eh
 * total energy  :  -132.7292739 Eh     change       -0.4313403E-06 Eh
 * total energy  :  -132.7292744 Eh     change       -0.4480177E-06 Eh
 * total energy  :  -132.7292749 Eh     change       -0.5540311E-06 Eh
 * total energy  :  -132.7292757 Eh     change       -0.7520482E-06 Eh
 * total energy  :  -132.7292767 Eh     change       -0.9916936E-06 Eh
 * total energy  :  -132.7292776 Eh     change       -0.8981980E-06 Eh
 * total energy  :  -132.7292776 Eh     change       -0.2273538E-08 Eh
   *** GEOMETRY OPTIMIZATION CONVERGED AFTER 152 ITERATIONS ***

 final structure:
================
102
 xtb: 6.7.1 (edcfbbe)
C            6.94728727523875        5.21704109849543        0.53910035854548
C            7.20720855284639        3.88174830109932       -0.17261553189542
C            8.31953280729809        3.11197430347457        0.55351601722602
C            7.68661492611153        4.18484843925914       -1.59471697276182
C            5.93356420098687        3.05148696452219       -0.14718580687297
C            5.37216832524985        2.69780432735954        1.07860365243838
C            4.21651159000359        1.94671272775170        1.15439822157843
C            3.58549307786534        1.52363018310780       -0.00831582378465
N            2.38757176995129        0.75340163328269        0.05566678600497
C            2.49874201290406       -0.61759738731280        0.19011275531421
C            3.77286010668058       -1.18901681265581        0.30756035448545
C            3.92629457159209       -2.53857800013278        0.50873250276751
C            2.82201780456298       -3.38629579983330        0.62892054739769
C            3.04062897445700       -4.86619710800135        0.90379896698335
C            3.90972423030152       -5.46455148285718       -0.21171053169179
C            1.73095257448236       -5.65758754210576        0.95642477543484
C            3.75159671215547       -5.02205194289845        2.25526117333277
C            1.57379548460244       -2.81397148659902        0.48653916239359
C            1.36269303385473       -1.45349511240361        0.22382716098797
B           -0.01738817645254       -0.80426611044492       -0.01655862770509
C           -1.39455510375833       -1.44754106477648       -0.29065161856329
C           -1.60421734487845       -2.79016356226843       -0.61997003510523
C           -2.85185648500275       -3.36084825416548       -0.80333720779681
C           -2.96660921986531       -4.83959777251978       -1.14198546616174
C           -4.41586969640157       -5.28305733967512       -1.36043132242899
C           -2.38405789635317       -5.66077286447335        0.01710244958108
C           -2.18194717196118       -5.13085444841016       -2.42883283370122
C           -3.95816617493371       -2.52860643499106       -0.64340623625456
C           -3.80502059914942       -1.18825690425695       -0.37123882041295
C           -2.53582535013456       -0.61829747728952       -0.22120723743828
N           -2.42982012590103        0.74512166860105       -0.01775354234157
C           -3.63102012997259        1.50624801998114        0.08226374422690
C           -4.17657581272022        1.78696346012246        1.32447322704103
C           -5.33948837386845        2.53165156041746        1.42404956783860
C           -5.98663646782978        3.01416442328861        0.29297089261916
C           -7.26484772340388        3.83523137053430        0.35741287139377
C           -7.74617723007184        4.06751430239823        1.79213758353235
C           -7.01234009515812        5.20434290001954       -0.28977465440616
C           -8.37269353108057        3.09462477148060       -0.40500207845376
C           -5.42338154244958        2.72203840228190       -0.94808022272889
C           -4.26396378991265        1.98122870123720       -1.05916152463402
C           -1.23535090068448        1.43236003873095        0.01921685245877
C           -1.23011738023030        2.82769872472589        0.06404517392728
C           -0.02690968194535        3.50463121342570        0.08859947949879
C            1.17922282722910        2.83270707116197        0.07906095062022
C            1.19017187536227        1.43685157575606        0.05427605456687
C           -0.02089384029201        0.71364815193624        0.01926751922005
C            4.12940682127528        1.86555933824792       -1.23581941174067
C            5.28868218130705        2.61977202117606       -1.29989570150895
H            6.66811619336123        5.06614747586416        1.57810078277309
H            6.14189688712749        5.75607974158062        0.04442451763181
H            7.84240107991935        5.83481393938389        0.51380438772648
H            8.06068556199004        2.92477201867514        1.59189408345125
H            8.49294681122349        2.15416404595041        0.06723307870178
H            9.24537148741666        3.68278043506208        0.53127262070543
H            7.91159293484424        3.26892775249529       -2.13620373170707
H            8.59652523936168        4.77992338601612       -1.55035179815456
H            6.94142634148249        4.75296152216176       -2.14669662235197
H            5.84018598308285        3.01216214767776        1.99908663729305
H            3.79465432615153        1.68207940171303        2.11296411199927
H            4.65265753697195       -0.56514832228273        0.24997628306060
H            4.92868091099067       -2.93170876615042        0.59394955701173
H            4.88757485356038       -4.99274284913872       -0.25039197416765
H            4.05382522507049       -6.53039441141411       -0.04514860223707
H            3.42741647355304       -5.32796567309266       -1.17764404338712
H            1.08296725226802       -5.29425298674858        1.75079483002442
H            1.94694841468195       -6.70617145824617        1.15315722059167
H            1.20360002914019       -5.59715204271178        0.00687190738489
H            3.91836864370775       -6.07481579329612        2.47529723601575
H            3.14355474697908       -4.59458765963905        3.05007175914995
H            4.71380429170653       -4.51687967618034        2.25426971495508
H            0.69640871937022       -3.42443298506535        0.60557009215272
H           -0.72894627802939       -3.40302065980607       -0.75844908250123
H           -4.43768747148764       -6.34032778026843       -1.61849346059570
H           -4.87535146517823       -4.72785804841369       -2.17520861523792
H           -5.00787593299788       -5.14681220011202       -0.45824604098599
H           -2.92610912822348       -5.44953526654916        0.93680644707137
H           -1.33644048611927       -5.42444921495093        0.17902943053376
H           -2.46515212223287       -6.72515089867994       -0.19514261718537
H           -2.57513036162959       -4.53623159901122       -3.25096300791462
H           -2.26823263023522       -6.18354882981739       -2.69148136760266
H           -1.12770044780086       -4.89505394028025       -2.31372467311534
H           -4.96058772473786       -2.91160873581845       -0.74764423898726
H           -4.68760808337590       -0.57174626956682       -0.28389913984237
H           -3.68550345173939        1.42019890515311        2.21386302688931
H           -5.73215776232041        2.72867575708794        2.40793540333310
H           -7.96579422655801        3.12554539972392        2.28932176568985
H           -7.00440751070921        4.61308864637553        2.37081961263779
H           -8.65957851957088        4.65866127074479        1.77578826606321
H           -7.91110283083866        5.81496124100569       -0.23604042589363
H           -6.21048413934101        5.72396835189204        0.23074678240532
H           -6.73152413419500        5.10461834921717       -1.33448704070011
H           -8.54026364219052        2.11352733971996        0.03465940982620
H           -8.11288898586321        2.95907403585459       -1.45113464275899
H           -9.30193356724912        3.65814988781104       -0.35548538110207
H           -5.89295482794437        3.07745154114483       -1.85270156618569
H           -3.84075737232548        1.76452151630441       -2.02909477307218
H           -2.15468276892072        3.38367160085035        0.06918339199466
H           -0.02933655913283        4.58496521964304        0.11565973917474
H            2.10140256608545        3.39219203915266        0.10133741128238
H            3.63997922978031        1.53898357453999       -2.14162582780840
H            5.68019279925393        2.86512573864013       -2.27331642714132

          :  Hamiltonian                  GFN2-xTB          :
         :: gradient norm              0.000039978849 Eh/a0 ::
         :: HOMO-LUMO gap              2.344073089935 eV    ::
         :: SCC energy              -135.026187473420 Eh    ::
         :: -> dispersion             -0.129954047121 Eh    ::
         :: repulsion energy           2.296909880101 Eh    ::

    * Orbital Energies and Occupations

         #    Occupation            Energy/Eh            Energy/eV
      -------------------------------------------------------------
         1        2.0000           -0.6571753             -17.8827
       ...           ...                  ...                  ...
       113        2.0000           -0.4067917             -11.0694
       114        2.0000           -0.4007877             -10.9060
       115        2.0000           -0.3988195             -10.8524
       116        2.0000           -0.3948121             -10.7434
       117        2.0000           -0.3931135             -10.6972
       118        2.0000           -0.3902284             -10.6187
       119        2.0000           -0.3824782             -10.4078
       120        2.0000           -0.3792557             -10.3201
       121        2.0000           -0.3779898             -10.2856
       122        2.0000           -0.3663710              -9.9695
       123        2.0000           -0.3647099              -9.9243
       124        2.0000           -0.3491857              -9.5018
       125        2.0000           -0.3294024              -8.9635 (HOMO)
       126                         -0.2432593              -6.6194 (LUMO)
       127                         -0.2262300              -6.1560
       128                         -0.2253021              -6.1308
       129                         -0.2247093              -6.1147
       130                         -0.2244137              -6.1066
       131                         -0.2078835              -5.6568
       132                         -0.2033841              -5.5344
       133                         -0.1984503              -5.4001
       134                         -0.1852264              -5.0403
       135                         -0.1664870              -4.5303
       136                         -0.1268696              -3.4523
       ...                                ...                  ...
       249                          0.7295813              19.8529
      -------------------------------------------------------------
                  HL-Gap            0.0861431 Eh            2.3441 eV

     #   Z          covCN         q      C6AA      α(0)
     1   6 C        3.762    -0.106    22.571     6.772
     2   6 C        3.903     0.026    20.083     6.370
     3   6 C        3.762    -0.106    22.571     6.772
     4   6 C        3.761    -0.108    22.619     6.780
     5   6 C        2.973     0.008    27.828     8.653
     6   6 C        2.927    -0.035    28.868     8.811
     7   6 C        2.920    -0.040    28.986     8.829
     8   6 C        2.934     0.066    26.515     8.445
     9   7 N        2.755    -0.054    22.287     7.012
    10   6 C        2.928     0.055    26.761     8.484
    11   6 C        2.918    -0.059    29.476     8.903
    12   6 C        2.928    -0.035    28.868     8.811
    13   6 C        2.968    -0.007    28.196     8.710
    14   6 C        3.903     0.025    20.101     6.373
    15   6 C        3.762    -0.104    22.524     6.765
    16   6 C        3.761    -0.104    22.526     6.766
    17   6 C        3.762    -0.104    22.527     6.766
    18   6 C        2.930    -0.046    29.133     8.852
    19   6 C        2.886    -0.087    30.177     9.006
    20   5 B        2.724     0.188    18.559     7.219
    21   6 C        2.886    -0.086    30.164     9.004
    22   6 C        2.933    -0.042    29.031     8.836
    23   6 C        2.969    -0.007    28.191     8.709
    24   6 C        3.903     0.025    20.100     6.373
    25   6 C        3.761    -0.105    22.551     6.770
    26   6 C        3.762    -0.104    22.535     6.767
    27   6 C        3.761    -0.104    22.534     6.767
    28   6 C        2.926    -0.039    28.973     8.827
    29   6 C        2.919    -0.060    29.496     8.906
    30   6 C        2.928     0.055    26.766     8.484
    31   7 N        2.755    -0.055    22.296     7.013
    32   6 C        2.934     0.066    26.514     8.445
    33   6 C        2.921    -0.040    29.004     8.832
    34   6 C        2.925    -0.039    28.967     8.826
    35   6 C        2.973     0.008    27.829     8.653
    36   6 C        3.903     0.026    20.083     6.370
    37   6 C        3.761    -0.108    22.618     6.780
    38   6 C        3.762    -0.106    22.571     6.772
    39   6 C        3.762    -0.106    22.572     6.773
    40   6 C        2.927    -0.035    28.868     8.811
    41   6 C        2.920    -0.040    28.985     8.829
    42   6 C        2.928     0.060    26.655     8.467
    43   6 C        2.917    -0.073    29.822     8.955
    44   6 C        2.920    -0.030    28.744     8.792
    45   6 C        2.917    -0.073    29.822     8.955
    46   6 C        2.928     0.060    26.660     8.468
    47   6 C        2.897    -0.108    30.724     9.088
    48   6 C        2.921    -0.040    29.003     8.832
    49   6 C        2.925    -0.039    28.967     8.826
    50   1 H        0.925     0.037     2.486     2.466
    51   1 H        0.925     0.035     2.522     2.484
    52   1 H        0.925     0.038     2.469     2.457
    53   1 H        0.925     0.037     2.486     2.466
    54   1 H        0.925     0.035     2.523     2.484
    55   1 H        0.925     0.039     2.469     2.457
    56   1 H        0.925     0.037     2.494     2.470
    57   1 H        0.925     0.038     2.482     2.464
    58   1 H        0.925     0.037     2.494     2.469
    59   1 H        0.926     0.035     2.514     2.479
    60   1 H        0.926     0.038     2.470     2.458
    61   1 H        0.926     0.016     2.791     2.612
    62   1 H        0.926     0.020     2.726     2.582
    63   1 H        0.925     0.034     2.533     2.489
    64   1 H        0.925     0.033     2.546     2.495
    65   1 H        0.925     0.032     2.563     2.504
    66   1 H        0.925     0.035     2.522     2.483
    67   1 H        0.925     0.032     2.553     2.499
    68   1 H        0.925     0.033     2.547     2.496
    69   1 H        0.925     0.033     2.545     2.495
    70   1 H        0.925     0.032     2.560     2.502
    71   1 H        0.925     0.034     2.534     2.489
    72   1 H        0.926     0.038     2.471     2.458
    73   1 H        0.926     0.033     2.545     2.495
    74   1 H        0.925     0.032     2.558     2.501
    75   1 H        0.925     0.033     2.544     2.495
    76   1 H        0.925     0.033     2.543     2.494
    77   1 H        0.925     0.031     2.576     2.510
    78   1 H        0.925     0.037     2.490     2.468
    79   1 H        0.925     0.033     2.548     2.496
    80   1 H        0.925     0.031     2.570     2.507
    81   1 H        0.925     0.033     2.548     2.496
    82   1 H        0.925     0.035     2.511     2.478
    83   1 H        0.926     0.027     2.630     2.536
    84   1 H        0.926     0.016     2.796     2.615
    85   1 H        0.926     0.038     2.475     2.460
    86   1 H        0.926     0.042     2.421     2.433
    87   1 H        0.925     0.037     2.494     2.470
    88   1 H        0.925     0.037     2.494     2.470
    89   1 H        0.925     0.037     2.482     2.464
    90   1 H        0.925     0.038     2.470     2.458
    91   1 H        0.925     0.035     2.523     2.484
    92   1 H        0.925     0.037     2.486     2.466
    93   1 H        0.925     0.035     2.522     2.484
    94   1 H        0.925     0.037     2.486     2.466
    95   1 H        0.925     0.038     2.469     2.457
    96   1 H        0.926     0.035     2.515     2.480
    97   1 H        0.926     0.038     2.471     2.458
    98   1 H        0.926     0.015     2.812     2.622
    99   1 H        0.926     0.020     2.740     2.589
   100   1 H        0.926     0.015     2.813     2.623
   101   1 H        0.926     0.038     2.474     2.460
   102   1 H        0.926     0.042     2.420     2.433

molecular dipole:
                 x           y           z       tot (Debye)
 q only:        0.013       0.719       0.027
   full:        0.031       0.851       0.032       2.165

 projected vibrational frequencies (cm⁻¹)
eigval :       -0.00    -0.00    -0.00     0.00     0.00     0.00
eigval :       11.06    12.34    16.36    16.51    18.56    27.03
eigval :       28.42    31.87    41.05    46.21    53.62    57.72
eigval :       68.26    74.84    86.60    95.12    97.77   100.56
eigval :      118.99   139.50   149.25   165.22   174.25   175.24
eigval :      175.68   178.48   181.52   189.56   202.82   216.22
eigval :      217.47   220.97   223.06   224.21   236.62   241.17
eigval :      246.52   248.14   259.03   265.28   280.84   296.48
eigval :      310.56   311.58   315.63   315.81   317.51   319.10
eigval :      325.97   341.91   353.63   357.18   360.54   363.91
eigval :      364.06   368.21   380.98   381.11   390.20   398.76
eigval :      403.46   409.94   414.56   425.63   429.99   430.50
eigval :      440.76   450.65   453.74   455.70   460.02   468.52
eigval :      473.40   480.50   488.93   517.07   526.21   527.69
eigval :      553.33   555.93   566.75   581.12   589.14   595.33
eigval :      611.02   613.36   616.22   618.12   620.30   662.36
eigval :      662.94   686.00   697.80   705.78   708.59   711.95
eigval :      722.47   729.20   774.25   778.14   779.45   813.63
eigval :      815.88   819.75   821.00   845.51   870.52   871.10
eigval :      871.53   871.62   875.37   875.57   882.10   898.31
eigval :      909.38   913.76   914.42   915.42   917.40   918.75
eigval :      928.80   928.82   930.11   936.79   948.71   959.78
eigval :      960.67   960.95   960.96   961.24   961.75   962.21
eigval :      962.81   963.02   963.09   963.62   963.63   969.90
eigval :     1010.60  1017.49  1033.98  1035.20  1035.27  1035.38
eigval :     1035.86  1035.86  1036.04  1036.20  1086.11  1098.15
eigval :     1140.00  1140.60  1143.75  1143.82  1145.34  1146.00
eigval :     1163.78  1171.00  1196.84  1199.23  1202.10  1207.77
eigval :     1225.37  1227.81  1228.10  1228.20  1228.22  1229.20
eigval :     1233.39  1233.98  1234.03  1234.83  1246.62  1259.27
eigval :     1264.23  1275.09  1275.33  1282.11  1283.16  1283.95
eigval :     1297.30  1299.56  1307.28  1310.53  1311.60  1318.90
eigval :     1319.84  1337.62  1347.21  1351.30  1366.19  1397.62
eigval :     1397.66  1400.45  1404.11  1405.45  1405.68  1406.47
eigval :     1406.50  1409.64  1409.67  1412.97  1425.36  1428.09
eigval :     1429.10  1429.97  1430.00  1430.15  1436.98  1462.54
eigval :     1475.90  1488.16  1489.52  1491.86  1491.86  1492.68
eigval :     1493.15  1494.13  1494.14  1495.91  1496.14  1501.91
eigval :     1502.41  1502.53  1502.77  1506.02  1506.32  1506.51
eigval :     1506.81  1514.69  1514.69  1515.14  1515.27  1519.40
eigval :     1519.42  1521.24  1521.64  1540.72  1545.28  1565.39
eigval :     1570.27  1570.33  1575.42  1596.52  1601.43  1603.57
eigval :     1603.68  3016.89  3017.46  3018.49  3018.63  3023.76
eigval :     3023.79  3024.11  3024.91  3025.51  3025.56  3025.58
eigval :     3026.37  3028.22  3028.22  3028.96  3029.14  3031.60
eigval :     3031.62  3032.50  3032.66  3032.78  3033.55  3035.46
eigval :     3035.90  3036.88  3036.92  3039.71  3039.77  3044.01
eigval :     3047.19  3047.65  3047.67  3048.17  3051.03  3051.05
eigval :     3054.87  3071.21  3072.34  3080.16  3081.09  3081.30
eigval :     3085.75  3085.78  3087.29  3092.95  3093.01  3094.62
eigval :     3099.53  3106.40  3111.76  3116.51  3116.61  3141.50

   temp. (K)  partition function   enthalpy   heat capacity  entropy
                                   cal/mol     cal/K/mol   cal/K/mol   J/K/mol
 298.15  VIB  0.175E+23            28712.589    176.316    177.604
         ROT  0.111E+09              888.752      2.981     39.801
         INT  0.194E+31            29601.342    179.297    217.404
         TR   0.158E+29             1481.254      4.968     45.253
         TOT                       31082.5955   184.2649   262.6571  1098.9573

       T/K    H(0)-H(T)+PV         H(T)/Eh          T*S/Eh         G(T)/Eh
   ------------------------------------------------------------------------
    298.15    0.495333E-01    0.910735E+00    0.124797E+00    0.785938E+00
   ------------------------------------------------------------------------

         :::::::::::::::::::::::::::::::::::::::::::::::::::::
         ::                  THERMODYNAMIC                  ::
         :::::::::::::::::::::::::::::::::::::::::::::::::::::
         :: total free energy        -131.943339258557 Eh   ::
         ::.................................................::
         :: total energy             -132.729277593320 Eh   ::
         :: zero point energy           0.861201926365 Eh   ::
         :: G(RRHO) w/o ZPVE           -0.075263591602 Eh   ::
         :: G(RRHO) contrib.            0.785938334763 Eh   ::
         :::::::::::::::::::::::::::::::::::::::::::::::::::::

           -------------------------------------------------
          | TOTAL ENERGY             -132.729277593320 Eh   |
          | TOTAL ENTHALPY           -131.818542398079 Eh   |
          | TOTAL FREE ENERGY        -131.943339258557 Eh   |
          | GRADIENT NORM               0.000039979635 Eh/α |
          | HOMO-LUMO GAP               2.344073618016 eV   |
           -------------------------------------------------

 * finished run on 2025/07/19 at 22:42:39.655
