   * xtb version 6.7.1 (edcfbbe) compiled by 'albert@albert-system' on 2024-07-22

   ID    Z sym.   atoms
    1    6 C      1-8, 10-19, 21-30, 32-49
    2    7 N      9, 31
    3    5 B      20
    4    1 H      50-102

          program call               : xtb data2507/gas/t-DABNA/t-DABNA_gas_T1_crest.xyz --gfn 2 --spinpol --tblite --uhf 2 --ohess vtight --parallel 40 --molden --ceasefiles --namespace data2507/gas/t-DABNA/t-DABNA_gas_T1_finalOpt
 * total energy  :  -132.6401478 Eh     change       -0.3085114E-07 Eh
 * total energy  :  -132.6401528 Eh     change       -0.5028179E-05 Eh
 * total energy  :  -132.6401556 Eh     change       -0.2812364E-05 Eh
 * total energy  :  -132.6401570 Eh     change       -0.1364241E-05 Eh
 * total energy  :  -132.6401597 Eh     change       -0.2702358E-05 Eh
 * total energy  :  -132.6401614 Eh     change       -0.1707047E-05 Eh
 * total energy  :  -132.6401631 Eh     change       -0.1773931E-05 Eh
 * total energy  :  -132.6401642 Eh     change       -0.1047049E-05 Eh
 * total energy  :  -132.6401650 Eh     change       -0.7805374E-06 Eh
 * total energy  :  -132.6401658 Eh     change       -0.8683974E-06 Eh
 * total energy  :  -132.6401684 Eh     change       -0.5439754E-06 Eh
 * total energy  :  -132.6401690 Eh     change       -0.6148012E-06 Eh
 * total energy  :  -132.6401698 Eh     change       -0.7576018E-06 Eh
 * total energy  :  -132.6401708 Eh     change       -0.1000261E-05 Eh
 * total energy  :  -132.6401718 Eh     change       -0.1023809E-05 Eh
 * total energy  :  -132.6401728 Eh     change       -0.1003970E-05 Eh
 * total energy  :  -132.6401737 Eh     change       -0.8772195E-06 Eh
 * total energy  :  -132.6401745 Eh     change       -0.8181970E-06 Eh
 * total energy  :  -132.6401745 Eh     change       -0.2389285E-07 Eh
   *** GEOMETRY OPTIMIZATION CONVERGED AFTER 22 ITERATIONS ***

 final structure:
================
102
 xtb: 6.7.1 (edcfbbe)
C            7.14830238005487        4.88185204830121       -0.61001537659884
C            7.17448494133481        3.79482147879414        0.47417492318295
C            7.31817738755477        4.48190037502320        1.83485040728217
C            8.39276452785694        2.88348064612592        0.26734710691693
C            5.90882104168924        2.95989559531753        0.37038913094904
C            4.98948031591028        2.84270928561414        1.40787743226642
C            3.84898841960383        2.07284630748119        1.27612604940573
C            3.59406885448870        1.38869595333410        0.09324720874590
N            2.41721029291127        0.60940705613955       -0.03767399357252
C            2.53625737723074       -0.76638109356099       -0.12500066062170
C            3.80274865912924       -1.35064568781683       -0.05567385706973
C            3.97242131970813       -2.70636134428513       -0.26658843318877
C            2.88268206831764       -3.52270559810299       -0.58774834034319
C            3.12299713875796       -4.99179967628589       -0.89097921392981
C            3.75980387589870       -5.65983383870252        0.33642839567736
C            4.07320438787814       -5.10222252756203       -2.09236722682427
C            1.83680654023980       -5.74970732105377       -1.22941464995437
C            1.62438451268910       -2.94455961820066       -0.58225692970471
C            1.38521586961815       -1.59367315331916       -0.27532520091926
B            0.00213776472846       -0.95488731140925       -0.08594703684631
C           -1.37283129549482       -1.59429597723541        0.15177678206035
C           -1.58887456320810       -2.94955169527292        0.45579847670460
C           -2.83745165290824       -3.50374333506619        0.67907212625882
C           -3.05128424371375       -4.97816159306347        0.97776885280333
C           -1.75359359204714       -5.78907577001621        0.93279402155167
C           -4.01425075335939       -5.56990791852650       -0.06179755702732
C           -3.65670756347911       -5.11576705976524        2.38221946239378
C           -3.94295111850118       -2.64861385963590        0.63815209329815
C           -3.78369227798178       -1.29743719926586        0.39413087069643
C           -2.52177348088266       -0.75356413389570        0.14776117334971
N           -2.41040218325627        0.61207050514283       -0.05969105260231
C           -3.60674390149576        1.37587242739223       -0.11743069037473
C           -4.00148257404733        2.16144032186130        0.95754863229644
C           -5.16478580443187        2.90636444303433        0.88891202674734
C           -5.96696719949520        2.89271590371209       -0.24691476614061
C           -7.25236525875588        3.69585781027264       -0.36267769124058
C           -7.12760426997766        4.67209617711717       -1.54118035223376
C           -8.42302189018261        2.73276840230952       -0.60620220446438
C           -7.55711809763129        4.50767165071216        0.89919789504849
C           -5.55544659812301        2.09845409103047       -1.31701339024846
C           -4.39775801994465        1.35011484168768       -1.26041354163997
C           -1.20437658159821        1.29201709274720       -0.14606274257881
C           -1.19707611121743        2.67805411508893       -0.32016328375028
C            0.00784631364962        3.36637270798319       -0.39436148624327
C            1.20901711669781        2.67956167363936       -0.29034665327477
C            1.20947392971335        1.29099197386547       -0.13641307003526
C            0.00239501239057        0.56190637491923       -0.10020952507105
C            4.50283598484908        1.49847207916223       -0.95589504623872
C            5.63561363221917        2.27089648546112       -0.81229326175486
H            6.27430839783529        5.51765886112241       -0.48403191424257
H            7.11380260763606        4.44896097916089       -1.60584634562339
H            8.03924226477382        5.50220040301618       -0.53950255181424
H            6.48932932226732        5.16118290682419        2.02032258174518
H            7.36882814618423        3.75154386518691        2.63906380984385
H            8.23796598148254        5.06308318407364        1.85142143807667
H            8.40500017285273        2.09634056820128        1.01846568377628
H            9.31106219396877        3.45998387941657        0.35657109288256
H            8.37793976099867        2.41757087385412       -0.71397499843410
H            5.15017290401985        3.35163455253783        2.34394789558624
H            3.14613409019085        1.99466324254148        2.09273821584779
H            4.67202503066470       -0.74724298134102        0.15783297619137
H            4.96902931553788       -3.11424565491455       -0.19963852213836
H            3.10403376576701       -5.56063340891237        1.19910845621535
H            3.92249173705015       -6.71888107318520        0.14545669048075
H            4.71639153697208       -5.20739497420607        0.58258648578649
H            3.63173350749736       -4.62352989846457       -2.96421414962875
H            4.25938019324724       -6.14811432577051       -2.32910339707422
H            5.02713336146412       -4.62400501970544       -1.88791941856800
H            1.15049210786827       -5.74514358109999       -0.38631760027582
H            2.07613834445230       -6.78608634749021       -1.46133896830807
H            1.34255575864304       -5.31598868444674       -2.09566771639220
H            0.76447412717079       -3.54206608021575       -0.82747064395777
H           -0.71393998566856       -3.56921247826932        0.53128643944821
H           -1.97057575828275       -6.83492932943675        1.14328350919650
H           -1.04407945817706       -5.43681611005347        1.67798491448459
H           -1.29697876407798       -5.73169329276425       -0.05257507528666
H           -3.60374958264618       -5.45176709431775       -1.06262039964438
H           -4.98314369892096       -5.07959097370480       -0.03113993933778
H           -4.16430317697205       -6.63120408007862        0.12721027653756
H           -2.98326832699224       -4.69030391482760        3.12353392344566
H           -3.81718056837482       -6.16530719903572        2.62168151034423
H           -4.61014709761589       -4.59927957904935        2.45271689247042
H           -4.93898638343903       -3.02220792188805        0.81884174472463
H           -4.65715108596625       -0.66278673359883        0.41178215381424
H           -3.39192113722847        2.18305963281329        1.84919607815451
H           -5.43652492654534        3.49968807402822        1.74633301108804
H           -6.28355831448248        5.34140303649524       -1.38759687923913
H           -6.97812999933650        4.14526002064757       -2.47944242972250
H           -8.03150122639941        5.27123121748056       -1.62771905460669
H           -9.35622763948966        3.28782138803716       -0.67337941501801
H           -8.29276828229250        2.17422712011901       -1.52885698030850
H           -8.50228120308461        2.02244717929499        0.21419506411108
H           -6.76715517151159        5.22677470703741        1.10331247568217
H           -7.68154533687547        3.85812278660003        1.76253616142524
H           -8.48429873856680        5.05958826164639        0.75884332788935
H           -6.14559979210427        2.05965590440335       -2.21984433683312
H           -4.09640168050127        0.73908086980384       -2.09846088669859
H           -2.12053244892544        3.22630365529767       -0.42614770571864
H            0.00849845101186        4.43481992495971       -0.54053271183721
H            2.13637310958228        3.22868615901925       -0.34781661952103
H            4.30841666829384        0.97588805122622       -1.88112151455340
H            6.31724571265394        2.33812915970150       -1.64652583900001

 projected vibrational frequencies (cm⁻¹)
eigval :       -0.00    -0.00    -0.00     0.00     0.00     0.00
eigval :        9.84    10.01    16.46    18.64    20.89    27.46
eigval :       27.93    30.42    37.61    44.32    55.53    60.49
eigval :       70.33    76.51    86.86    96.54    99.53   103.78
eigval :      120.97   141.52   152.49   163.38   171.28   174.48
eigval :      175.98   177.58   184.41   186.89   202.80   214.29
eigval :      219.09   220.85   222.29   224.62   229.43   235.81
eigval :      246.53   248.77   256.43   266.07   268.47   300.00
eigval :      305.28   311.72   313.15   315.59   315.77   317.84
eigval :      328.79   334.70   345.13   351.20   353.08   359.86
eigval :      363.12   365.56   379.47   380.45   385.03   394.39
eigval :      396.53   406.63   409.17   414.80   420.77   427.24
eigval :      438.50   445.36   451.75   453.08   456.50   466.88
eigval :      472.03   475.57   485.78   507.03   523.14   525.33
eigval :      548.77   551.06   558.04   577.42   589.90   595.83
eigval :      604.01   605.75   609.18   613.05   615.80   654.95
eigval :      658.72   661.36   687.35   695.13   697.04   702.59
eigval :      718.23   724.23   746.37   766.32   776.78   788.14
eigval :      794.92   811.23   816.52   839.41   847.38   863.24
eigval :      866.72   867.64   868.59   868.81   869.11   873.27
eigval :      878.65   879.40   879.74   904.84   911.72   913.20
eigval :      917.54   923.90   926.33   926.80   945.98   958.23
eigval :      959.06   960.21   960.58   961.41   962.05   962.54
eigval :      962.71   963.21   963.37   963.42   965.15   966.31
eigval :     1004.58  1013.41  1033.09  1033.87  1034.32  1034.88
eigval :     1035.04  1035.32  1035.51  1036.48  1069.80  1087.54
eigval :     1123.00  1132.81  1140.31  1140.73  1145.14  1146.17
eigval :     1155.81  1161.75  1182.09  1191.80  1192.32  1200.29
eigval :     1212.05  1219.34  1223.24  1225.21  1225.68  1227.06
eigval :     1227.53  1229.14  1229.58  1233.23  1233.47  1237.63
eigval :     1250.42  1260.14  1268.35  1274.75  1275.19  1279.79
eigval :     1281.02  1287.33  1289.28  1300.77  1305.55  1308.21
eigval :     1315.52  1316.62  1325.08  1339.53  1359.71  1362.81
eigval :     1376.65  1388.57  1398.05  1398.75  1403.09  1403.66
eigval :     1403.83  1404.80  1405.69  1406.02  1408.29  1409.40
eigval :     1409.70  1426.84  1427.07  1428.44  1428.87  1431.25
eigval :     1447.59  1470.21  1472.62  1479.17  1482.31  1491.38
eigval :     1491.55  1491.68  1491.83  1493.78  1494.00  1495.15
eigval :     1495.31  1498.87  1499.73  1501.04  1501.47  1503.49
eigval :     1504.78  1505.07  1505.57  1506.93  1508.66  1512.38
eigval :     1513.68  1514.55  1514.60  1518.44  1518.98  1519.21
eigval :     1523.21  1525.39  1534.30  1538.87  1551.16  1578.45
eigval :     1586.72  3016.18  3016.96  3017.98  3018.24  3023.19
eigval :     3023.76  3024.76  3024.86  3025.53  3025.80  3026.05
eigval :     3026.61  3027.76  3028.10  3029.72  3029.79  3031.00
eigval :     3031.36  3032.18  3032.76  3034.83  3035.34  3036.32
eigval :     3036.34  3036.61  3039.52  3039.89  3041.72  3045.49
eigval :     3046.07  3047.68  3048.00  3049.25  3049.61  3050.89
eigval :     3051.24  3077.66  3079.34  3080.65  3082.19  3083.23
eigval :     3083.73  3086.01  3090.81  3091.91  3092.06  3093.12
eigval :     3094.25  3103.32  3115.95  3116.35  3136.36  3149.95

   temp. (K)  partition function   enthalpy   heat capacity  entropy
                                   cal/mol     cal/K/mol   cal/K/mol   J/K/mol
 298.15  VIB  0.234E+23            28923.340    177.910    178.685
         ROT  0.112E+09              888.752      2.981     39.806
         INT  0.261E+31            29812.092    180.891    218.492
         TR   0.158E+29             1481.254      4.968     45.253
         TOT                       31293.3462   185.8587   263.7443  1103.5063

       T/K    H(0)-H(T)+PV         H(T)/Eh          T*S/Eh         G(T)/Eh
   ------------------------------------------------------------------------
    298.15    0.498691E-01    0.906988E+00    0.125313E+00    0.781674E+00
   ------------------------------------------------------------------------

         :::::::::::::::::::::::::::::::::::::::::::::::::::::
         ::                  THERMODYNAMIC                  ::
         :::::::::::::::::::::::::::::::::::::::::::::::::::::
         :: total free energy        -131.858500207775 Eh   ::
         ::.................................................::
         :: total energy             -132.640174515388 Eh   ::
         :: zero point energy           0.857118630969 Eh   ::
         :: G(RRHO) w/o ZPVE           -0.075444323356 Eh   ::
         :: G(RRHO) contrib.            0.781674307613 Eh   ::
         :::::::::::::::::::::::::::::::::::::::::::::::::::::

           -------------------------------------------------
          | TOTAL ENERGY             -132.640174515388 Eh   |
          | TOTAL ENTHALPY           -131.733186762939 Eh   |
          | TOTAL FREE ENERGY        -131.858500207775 Eh   |
          | GRADIENT NORM               0.000076182858 Eh/α |
           -------------------------------------------------

 * finished run on 2025/07/19 at 23:04:06.670
