   * xtb version 6.7.1 (edcfbbe) compiled by 'albert@albert-system' on 2024-07-22

   ID    Z sym.   atoms
    1    6 C      1-8, 10-18, 20, 22, 24-35, 37-44, 46, 48, 50-52
    2    7 N      9, 19, 21, 23, 36, 45, 49
    3    8 O      47
    4    1 H      53-105

          program call               : xtb data2507/gas/2CM/2CM_gas_S0_finalOpt.xtbopt.xyz --gfn 2 --spinpol --tblite --uhf 2 --ohess vtight --parallel 40 --molden --ceasefiles --namespace data2507/gas/2CM/2CM_gas_T1_preOpt
 * total energy  :  -145.8869097 Eh     change       -0.3056888E-07 Eh
 * total energy  :  -145.8889210 Eh     change       -0.2011351E-02 Eh
 * total energy  :  -145.8894750 Eh     change       -0.5539978E-03 Eh
 * total energy  :  -145.8895495 Eh     change       -0.7445276E-04 Eh
 * total energy  :  -145.8895955 Eh     change       -0.4602878E-04 Eh
 * total energy  :  -145.8896103 Eh     change       -0.1480384E-04 Eh
 * total energy  :  -145.8896227 Eh     change       -0.1235347E-04 Eh
 * total energy  :  -145.8896309 Eh     change       -0.8247754E-05 Eh
 * total energy  :  -145.8896434 Eh     change       -0.1251031E-04 Eh
 * total energy  :  -145.8896689 Eh     change       -0.2545588E-04 Eh
 * total energy  :  -145.8898413 Eh     change       -0.1779191E-05 Eh
 * total energy  :  -145.8898416 Eh     change       -0.3256069E-06 Eh
 * total energy  :  -145.8898423 Eh     change       -0.6676194E-06 Eh
 * total energy  :  -145.8898425 Eh     change       -0.2037663E-06 Eh
 * total energy  :  -145.8898429 Eh     change       -0.3581971E-06 Eh
 * total energy  :  -145.8898429 Eh     change       -0.3571569E-07 Eh
 * total energy  :  -145.8898430 Eh     change       -0.9739182E-07 Eh
 * total energy  :  -145.8898432 Eh     change       -0.1817825E-06 Eh
 * total energy  :  -145.8898432 Eh     change       -0.3247743E-07 Eh
   *** GEOMETRY OPTIMIZATION CONVERGED AFTER 29 ITERATIONS ***

 final structure:
================
105
 xtb: 6.7.1 (edcfbbe)
C           -3.51153609078892       -0.49888465067320        3.39180893331983
C           -2.08865340078409        0.01281237910658        3.20571074224109
C           -1.27489032965879       -0.89053685392986        2.28255661544623
C            0.17303095809022       -0.42133712632706        2.16623572882986
C            1.01999568220188       -1.29360357500154        1.23941363963849
C            1.37961327314825       -2.64938213417103        1.84938385566478
C            2.25809774767504       -3.51664661177492        0.93751946161310
C            1.46802766548692       -4.45014454587682        0.00749361142924
N            0.59824956601673       -3.74417466928127       -0.89032255399776
C            1.01978519821367       -3.01490695611730       -1.97834041846186
C            2.27821582148115       -2.93301656911452       -2.55461689459569
C            2.42988347559991       -2.12587639995278       -3.67082183959554
C            1.35722937958819       -1.41391555632674       -4.20254741663822
C            0.10107117704195       -1.48595027405522       -3.63294340839012
C           -0.07593045560264       -2.28886618969162       -2.50855520032569
C           -1.19611092954417       -2.57547450826753       -1.66630702956116
C           -2.50191129261974       -2.09854996847280       -1.62134920490699
C           -3.33043004411855       -2.54397770763474       -0.60669921037645
N           -4.61330889085830       -1.97268988730917       -0.45129732179798
C           -4.78316586835472       -0.66817391001264       -0.16895096048658
N           -3.72402177247356        0.14240987692592       -0.23730110222678
C           -3.94666669978984        1.38677786560872        0.14657540945569
N           -2.93992596697269        2.30473307399144        0.21442232299008
C           -1.62514879653407        2.24988604020380       -0.17158286127520
C           -1.10941861842001        1.13513391476172       -0.89202863072863
C            0.20762797529487        1.13509059628592       -1.33807581551836
C            1.00825383810110        2.22225372223606       -1.04527134408721
C            0.51155076508258        3.35161599704270       -0.27411492419589
C           -0.82275560360599        3.34708073332077        0.13892002156688
C            1.58254911210875        4.26297353414518       -0.15480918069486
C            1.72757148935468        5.51598786556597        0.46766997909368
C            2.96445438662342        6.16153370068858        0.38100363052956
C            4.02670894056863        5.60506038209678       -0.28977652612585
C            3.90027220165351        4.33880883347552       -0.92986060279522
C            2.68922981240971        3.70101876926263       -0.84790673814758
N            2.29926546364401        2.47430974980787       -1.38380372822954
C            3.11962175641757        1.60792905449608       -2.18120062144908
C            3.66787755891279        0.41729545405040       -1.38451419721376
C            4.55702067636058        0.84612969871525       -0.22057694358556
C            5.08252317496287       -0.35899040902004        0.55548254857830
C            5.93442434626849        0.05779264753472        1.75169041538642
C            6.49015572146603       -1.13114527472830        2.53646131966760
C            5.41544328195717       -1.92501775625258        3.27693995400715
C            6.02249667184015       -3.03684547657311        4.12403167247218
N           -5.13572624056091        1.86993336322402        0.53655853034524
C           -6.12863029871417        0.99096179257322        0.50961011828588
O           -7.34903734274900        1.38465626567071        0.84917133151594
C           -7.48948447247901        2.74320846627704        1.21809675946721
N           -6.01548589167619       -0.28810416929413        0.18561547196444
C           -2.90077599928341       -3.51518684058168        0.30190528794773
C           -1.60471062031276       -3.99828015867339        0.27170441242278
C           -0.73845131373776       -3.49258880066494       -0.68608721971391
H           -4.08035998655957        0.16543046434297        4.03911046921462
H           -3.50478005240065       -1.49091291928491        3.83882460263938
H           -4.02202462708333       -0.56357700719670        2.43397657192871
H           -2.11503440209767        1.02140566600757        2.78648344607073
H           -1.59780419876598        0.07325856373136        4.18078743685110
H           -1.30599472215608       -1.91060758954179        2.67031911073913
H           -1.73294661841290       -0.89584882644223        1.29162640667842
H            0.17477717417763        0.59946147268961        1.77638190276371
H            0.63057099529321       -0.39751795683651        3.15921857580824
H            1.94729323244488       -0.75793889556775        1.02134611839423
H            0.48164008121825       -1.42325857682656        0.30165633265713
H            1.91637513460423       -2.46707476779875        2.78412553163402
H            0.46915925945494       -3.19502149028095        2.09725633732421
H            2.89793361048497       -2.87237506884299        0.33088535209244
H            2.90585557122393       -4.14924699942086        1.54894160155576
H            2.17217820766386       -5.04734523097614       -0.58260361038435
H            0.86303933212307       -5.13620134579110        0.60398284118495
H            3.11911840426186       -3.48188701287572       -2.15815208190367
H            3.39959487585981       -2.05067306152712       -4.14108527197611
H            1.51476190641657       -0.79828146947543       -5.07662201410954
H           -0.72903625809840       -0.93182935380502       -4.04400305289126
H           -2.86111807997579       -1.38176192331279       -2.34150717486291
H           -5.39049733257178       -2.56525005642257       -0.19715983159711
H           -3.25375606586761        3.18029058171785        0.61785488663054
H           -1.75611092807879        0.30339933462946       -1.08915473098381
H            0.57638359285347        0.29927903858380       -1.90950297593007
H           -1.22783691821408        4.18543150991195        0.68595808009119
H            0.90283971948842        5.96432309891311        0.99750028257058
H            3.08414100547823        7.12469961348897        0.85656630075177
H            4.97242939333138        6.12050801004809       -0.34384205137555
H            4.74487497526010        3.92140187327043       -1.45513575098777
H            3.94591411662732        2.19536556932356       -2.58711832099218
H            2.51853420856830        1.22722936369867       -3.01373962168883
H            4.23361321615092       -0.21736675859934       -2.06904277991051
H            2.82722899240805       -0.16808496538651       -1.00837919848845
H            3.98762266887972        1.48764805489193        0.45596962567971
H            5.40039388108105        1.42933404636899       -0.59770411788359
H            5.67674957718432       -0.98948286766337       -0.11077268247794
H            4.23421484477846       -0.94925272268050        0.90392753564014
H            6.76927578290706        0.66588110176863        1.39465631625873
H            5.33528264914443        0.68162974187660        2.41908590580823
H            7.21320506443506       -0.75985145897945        3.26688832937178
H            7.02462190476916       -1.79658358139685        1.85407866397480
H            4.84835759338263       -1.24747960766059        3.91945897520900
H            4.72015078691035       -2.36446270997065        2.56030911088225
H            6.70167153459434       -2.62482997819644        4.86728576984661
H            5.24450025948692       -3.59310046859164        4.64223544313361
H            6.58163168468317       -3.73013891988999        3.49905191100164
H           -7.19797350010974        3.39975301322268        0.39533937725075
H           -6.86909024003890        2.97337893894084        2.08703507701647
H           -8.54224573561092        2.87782743827769        1.45660694035331
H           -3.58670916480980       -3.86598236876452        1.05876757949979
H           -1.28802751072281       -4.73327193072990        0.99631882177885

 projected vibrational frequencies (cm⁻¹)
eigval :       -0.00    -0.00     0.00     0.00     0.00     0.00
eigval :        9.74    16.65    19.50    22.48    25.32    29.90
eigval :       32.01    35.60    43.94    50.41    53.03    57.27
eigval :       62.65    67.05    71.64    81.35    87.37    92.75
eigval :       94.10   101.44   104.45   109.38   112.69   116.23
eigval :      127.36   130.59   131.19   135.21   138.97   144.44
eigval :      152.61   165.39   172.45   180.77   189.61   197.64
eigval :      200.75   218.63   225.18   228.88   231.55   237.74
eigval :      243.23   253.65   264.53   269.95   273.95   280.67
eigval :      290.46   304.17   311.49   320.31   329.79   341.44
eigval :      352.19   358.95   380.53   382.78   395.95   402.75
eigval :      403.93   422.43   430.56   443.27   454.86   466.09
eigval :      479.11   500.86   511.22   514.39   516.14   523.83
eigval :      527.75   533.69   542.90   553.19   555.50   563.18
eigval :      566.72   572.85   579.68   600.57   603.67   619.81
eigval :      635.00   649.55   653.75   657.82   661.98   677.07
eigval :      701.46   702.24   704.88   709.96   720.09   731.69
eigval :      736.63   743.88   749.35   750.98   766.26   767.05
eigval :      767.46   775.93   780.19   782.16   802.14   805.70
eigval :      807.58   815.29   829.13   838.65   842.37   856.62
eigval :      866.47   870.27   876.20   879.54   886.82   888.52
eigval :      893.87   894.45   903.23   914.78   921.17   924.29
eigval :      932.60   934.52   944.44   959.71   961.51   993.58
eigval :      993.83  1005.31  1009.11  1010.60  1016.98  1025.24
eigval :     1035.37  1039.32  1053.50  1054.87  1067.28  1078.30
eigval :     1081.89  1084.85  1093.78  1100.64  1104.67  1106.74
eigval :     1107.45  1113.61  1121.37  1123.45  1128.88  1129.45
eigval :     1132.62  1133.43  1136.94  1137.72  1139.00  1146.50
eigval :     1155.78  1163.01  1169.94  1172.37  1175.47  1176.66
eigval :     1185.39  1187.37  1192.37  1211.29  1215.08  1224.35
eigval :     1228.41  1232.97  1238.28  1239.63  1241.50  1246.34
eigval :     1251.40  1264.82  1266.57  1271.59  1272.37  1281.23
eigval :     1281.96  1286.07  1287.79  1290.35  1291.92  1299.47
eigval :     1300.12  1305.84  1311.75  1317.31  1321.67  1322.53
eigval :     1326.40  1330.75  1334.85  1344.55  1349.07  1352.40
eigval :     1358.19  1365.66  1366.37  1372.18  1372.65  1374.61
eigval :     1378.01  1378.86  1382.56  1382.79  1392.64  1398.12
eigval :     1399.02  1411.26  1412.95  1414.55  1416.53  1425.43
eigval :     1440.64  1443.34  1448.00  1455.66  1464.21  1465.63
eigval :     1470.16  1474.40  1477.15  1479.37  1481.67  1484.37
eigval :     1485.84  1488.62  1490.53  1491.47  1494.23  1495.04
eigval :     1495.57  1498.41  1500.51  1503.47  1503.98  1505.34
eigval :     1508.39  1511.12  1511.30  1514.57  1524.75  1535.67
eigval :     1545.30  1569.34  1577.14  1592.67  2933.43  2941.96
eigval :     2953.45  2955.32  2957.57  2958.52  2958.99  2962.80
eigval :     2963.56  2966.43  2970.18  2971.30  2971.67  2973.97
eigval :     2975.23  2977.82  2978.21  2979.31  2980.10  2982.02
eigval :     2983.28  2984.34  2988.75  2990.63  2991.79  2995.46
eigval :     2998.52  3004.89  3007.85  3025.62  3026.19  3028.66
eigval :     3029.29  3030.82  3031.96  3036.73  3048.06  3068.48
eigval :     3070.74  3074.26  3076.05  3076.22  3083.88  3086.30
eigval :     3087.51  3092.70  3097.44  3102.23  3109.29  3112.21
eigval :     3184.81  3382.57  3432.89

   temp. (K)  partition function   enthalpy   heat capacity  entropy
                                   cal/mol     cal/K/mol   cal/K/mol   J/K/mol
 298.15  VIB  0.101E+25            30168.346    180.215    191.929
         ROT  0.827E+08              888.752      2.981     39.209
         INT  0.839E+32            31057.099    183.196    231.138
         TR   0.178E+29             1481.254      4.968     45.480
         TOT                       32538.3524   188.1639   276.6184  1157.3714

       T/K    H(0)-H(T)+PV         H(T)/Eh          T*S/Eh         G(T)/Eh
   ------------------------------------------------------------------------
    298.15    0.518532E-01    0.926287E+00    0.131430E+00    0.794856E+00
   ------------------------------------------------------------------------

         :::::::::::::::::::::::::::::::::::::::::::::::::::::
         ::                  THERMODYNAMIC                  ::
         :::::::::::::::::::::::::::::::::::::::::::::::::::::
         :: total free energy        -145.094986880455 Eh   ::
         ::.................................................::
         :: total energy             -145.889843266333 Eh   ::
         :: zero point energy           0.874433551930 Eh   ::
         :: G(RRHO) w/o ZPVE           -0.079577166052 Eh   ::
         :: G(RRHO) contrib.            0.794856385878 Eh   ::
         :::::::::::::::::::::::::::::::::::::::::::::::::::::

           -------------------------------------------------
          | TOTAL ENERGY             -145.889843266333 Eh   |
          | TOTAL ENTHALPY           -144.963556549180 Eh   |
          | TOTAL FREE ENERGY        -145.094986880455 Eh   |
          | GRADIENT NORM               0.000140795322 Eh/α |
           -------------------------------------------------

 * finished run on 2025/08/23 at 12:31:42.492
