   * xtb version 6.7.1 (edcfbbe) compiled by 'albert@albert-system' on 2024-07-22

   ID    Z sym.   atoms
    1    6 C      1-8, 10-18, 20, 22, 24-35, 37-44, 46, 48, 50-52
    2    7 N      9, 19, 21, 23, 36, 45, 49
    3    8 O      47
    4    1 H      53-105

          program call               : xtb data2507/gas/2CM/2CM.xyz --gfn 2 --ohess vtight --parallel 40 --molden --ceasefiles --namespace data2507/gas/2CM/2CM_gas_S0_preOpt
          :  Hamiltonian                  GFN2-xTB          :
 * total energy  :  -145.9584187 Eh     change       -0.7681678E-08 Eh
 * total energy  :  -145.9737781 Eh     change       -0.1535938E-01 Eh
 * total energy  :  -145.9782809 Eh     change       -0.4502819E-02 Eh
 * total energy  :  -145.9795188 Eh     change       -0.1237894E-02 Eh
 * total energy  :  -145.9804822 Eh     change       -0.9634223E-03 Eh
 * total energy  :  -145.9807989 Eh     change       -0.3166730E-03 Eh
 * total energy  :  -145.9809561 Eh     change       -0.1571777E-03 Eh
 * total energy  :  -145.9810873 Eh     change       -0.1312493E-03 Eh
 * total energy  :  -145.9812025 Eh     change       -0.1151160E-03 Eh
 * total energy  :  -145.9813257 Eh     change       -0.1232904E-03 Eh
 * total energy  :  -145.9823931 Eh     change       -0.1609999E-05 Eh
 * total energy  :  -145.9823948 Eh     change       -0.1639414E-05 Eh
 * total energy  :  -145.9823964 Eh     change       -0.1638852E-05 Eh
 * total energy  :  -145.9823980 Eh     change       -0.1624912E-05 Eh
 * total energy  :  -145.9823996 Eh     change       -0.1521750E-05 Eh
 * total energy  :  -145.9824010 Eh     change       -0.1466595E-05 Eh
 * total energy  :  -145.9824026 Eh     change       -0.1542930E-05 Eh
 * total energy  :  -145.9824043 Eh     change       -0.1719691E-05 Eh
 * total energy  :  -145.9824043 Eh     change       -0.7854879E-08 Eh
   *** GEOMETRY OPTIMIZATION CONVERGED AFTER 94 ITERATIONS ***

 final structure:
================
105
 xtb: 6.7.1 (edcfbbe)
C           10.87112315473820       -3.37803961865141       -4.89752072352886
C            9.98695827914194       -2.96586028179482       -3.72702680738146
C           10.79200171836203       -2.29540349440528       -2.61654147267412
C            9.91421578112410       -1.87382812071973       -1.44038970268458
C           10.73185234222770       -1.19549698603529       -0.34352471885711
C            9.91617559986578       -0.85218558782221        0.90297651993735
C            8.85367763970397        0.21463224836321        0.65191445490664
C            8.20794230898108        0.68025234808695        1.96177306534156
N            7.21395173038789        1.69280364877959        1.73778982314378
C            7.46786829533021        3.03281247357202        1.57704197420332
C            8.67029785500855        3.72298516485555        1.65517472682574
C            8.64557182671420        5.09091979000499        1.46560606377011
C            7.45667929329378        5.76793441983688        1.20138800384707
C            6.25738250588840        5.08945328817725        1.11969794873975
C            6.25566109231809        3.71356614719653        1.30655156136881
C            5.22744299956353        2.71296007037712        1.29147868070038
C            3.85672691615577        2.76013613718816        1.08882050287845
C            3.12611379625043        1.57945028574176        1.14763331758085
N            1.74903242605264        1.66842905319508        0.94329862182740
C            0.77201419709350        0.74391083498124        1.03131090841249
N           -0.45657739241746        1.21726393715184        0.79717426252897
C           -1.44325358927654        0.32666495058240        0.89245528830081
N           -2.67326352973917        0.82639974612877        0.64862850384547
C           -3.93065394207663        0.22585796688304        0.67514126013237
C           -5.02787542254928        1.03044582907687        0.33214748358313
C           -6.31653961119490        0.53967020552650        0.33088294573356
C           -6.51604006801626       -0.78790591505642        0.68267014092166
C           -5.41535450280927       -1.60679440386613        1.02851479799662
C           -4.12365793992117       -1.10203457269843        1.02569546608314
C           -5.95627139158318       -2.90066063904495        1.33152935466206
C           -5.38908974780925       -4.10556515048377        1.72479128735410
C           -6.21808831116383       -5.18913014687114        1.93417772006695
C           -7.59605404460938       -5.08185638690894        1.75549681423164
C           -8.18356324633542       -3.89461177597837        1.36416676395228
C           -7.35742239314127       -2.79857808498872        1.15345481246428
N           -7.67918244799602       -1.51538766724454        0.78112547292825
C           -8.99191223043062       -1.05550567466279        0.41968923733610
C           -9.31631775617644       -1.37335110730680       -1.04583675351222
C          -10.69272941775940       -0.85021446698642       -1.47809008184669
C          -10.63662209647094        0.43392582601548       -2.30768751259177
C          -10.07813937572489        1.63685656799202       -1.55181920528362
C          -10.13452621872415        2.90569686957036       -2.40062980866057
C           -9.68270204039091        4.16052951552721       -1.65226206186376
C           -8.20410384786437        4.14520591820309       -1.28114250813045
N           -1.26999933738609       -0.96224336735458        1.19915028846858
C           -0.01062417450917       -1.31932667709165        1.39988143620498
O            0.25744175951801       -2.58506521184351        1.70144181896577
C           -0.85154609857768       -3.45880902587433        1.79152357469648
N            1.04628739734477       -0.52650622141076        1.33075755713071
C            3.76960960458081        0.36083243933576        1.39665777819738
C            5.13364221313965        0.30084199842452        1.59637057623098
C            5.86776926249056        1.47791435457599        1.55084352552759
H           11.63536566649856       -4.07962834471371       -4.56981291723621
H           11.36673354077388       -2.50912255672762       -5.32535320736855
H           10.27984775258908       -3.85385684352230       -5.67642965766783
H            9.21601584744224       -2.27688955152213       -4.07969000995496
H            9.48279002645599       -3.84761538847456       -3.32483128856947
H           11.56245844318998       -2.98571439065541       -2.26419879678305
H           11.29851296295980       -1.41558816419652       -3.02090126294697
H            9.14178406448637       -1.19259321847620       -1.80115511890720
H            9.41626324740688       -2.75446380929187       -1.02763631374791
H           11.18122619239945       -0.28258383903265       -0.74146532429666
H           11.54702541349459       -1.86248384047989       -0.05176040850314
H            9.43847151915638       -1.75762726316037        1.28421754890077
H           10.60006982582956       -0.49055161535575        1.67561432585407
H            9.30756505073405        1.07614468649170        0.15684166806702
H            8.07250581372554       -0.17474980471976       -0.00257349542832
H            7.73537100355636       -0.16677270268540        2.46564073661130
H            8.97479081713234        1.08496150281574        2.63001529377388
H            9.60099719217369        3.21393268901268        1.85664908116132
H            9.56890123761556        5.64903064011150        1.52170298133371
H            7.47989844046322        6.83818658368923        1.05857169527226
H            5.33648272487514        5.61459382945490        0.91439734944311
H            3.36522694980825        3.70218376218033        0.89207496525081
H            1.39489648771669        2.59154256147160        0.72942511411856
H           -2.65397145417575        1.81028403028552        0.41550156715151
H           -4.85566658001277        2.06275000706756        0.06116484954566
H           -7.13877146049185        1.18484573314098        0.06228616813155
H           -3.28172777698961       -1.71622913609476        1.28786832802609
H           -4.32098227452550       -4.18713649656574        1.86130216747180
H           -5.79855882137132       -6.13612017694410        2.23983809939465
H           -8.21868426159054       -5.94820955499787        1.92522617064604
H           -9.25279356269076       -3.83051738210767        1.22763329759990
H           -9.04501790864772        0.02030108679528        0.59800655971883
H           -9.72356905953583       -1.54156564986834        1.07238132335061
H           -9.27296858295846       -2.45747131108367       -1.16901034039122
H           -8.53811263228861       -0.94573388184201       -1.68094582520351
H          -11.31126061420530       -0.67980804479258       -0.59383588102197
H          -11.19215829135420       -1.61245449613845       -2.07926446995708
H          -11.64935660634533        0.66961227684582       -2.64478655609105
H          -10.02906632803254        0.25705646970286       -3.19850079176834
H          -10.65511457022243        1.79005637331902       -0.63609119238739
H           -9.04303726717623        1.43785860342829       -1.27625634819316
H          -11.16232491962076        3.05525853893586       -2.74133224058860
H           -9.51067364116929        2.77245337864142       -3.28783655168847
H           -9.87571154798241        5.02830817733906       -2.28749674154627
H          -10.28266047091009        4.27627880425686       -0.74646137336618
H           -7.99282557422167        3.37974259745949       -0.53917798595521
H           -7.59232405588115        3.95314652521965       -2.16014824494861
H           -7.91107867430805        5.10551074969763       -0.86263844487454
H           -0.43833413844048       -4.43768701486956        2.02632779961242
H           -1.39564694473387       -3.49327222527941        0.84458124031007
H           -1.53359837600525       -3.13656182183960        2.58220920029206
H            3.17155423262020       -0.53333549900161        1.43341981915885
H            5.60591512202266       -0.65168803325833        1.78234545515191

          :  Hamiltonian                  GFN2-xTB          :
         :: gradient norm              0.000067885431 Eh/a0 ::
         :: HOMO-LUMO gap              2.853173530961 eV    ::
         :: SCC energy              -148.298847034188 Eh    ::
         :: -> dispersion             -0.115867208884 Eh    ::
         :: repulsion energy           2.316442726701 Eh    ::

    * Orbital Energies and Occupations

         #    Occupation            Energy/Eh            Energy/eV
      -------------------------------------------------------------
         1        2.0000           -0.7211376             -19.6232
       ...           ...                  ...                  ...
       123        2.0000           -0.4135971             -11.2545
       124        2.0000           -0.4130796             -11.2405
       125        2.0000           -0.4099016             -11.1540
       126        2.0000           -0.4091441             -11.1334
       127        2.0000           -0.4081033             -11.1051
       128        2.0000           -0.3859730             -10.5029
       129        2.0000           -0.3839118             -10.4468
       130        2.0000           -0.3719183             -10.1204
       131        2.0000           -0.3703162             -10.0768
       132        2.0000           -0.3673842              -9.9970
       133        2.0000           -0.3623600              -9.8603
       134        2.0000           -0.3496870              -9.5155
       135        2.0000           -0.3452802              -9.3956 (HOMO)
       136                         -0.2404280              -6.5424 (LUMO)
       137                         -0.2363595              -6.4317
       138                         -0.2337158              -6.3597
       139                         -0.2284560              -6.2166
       140                         -0.2090660              -5.6890
       141                         -0.2046952              -5.5700
       142                         -0.1845266              -5.0212
       143                         -0.1814381              -4.9372
       144                         -0.1761126              -4.7923
       145                         -0.1663197              -4.5258
       146                         -0.1006520              -2.7389
       ...                                ...                  ...
       261                          0.7561288              20.5753
      -------------------------------------------------------------
                  HL-Gap            0.1048522 Eh            2.8532 eV

     #   Z          covCN         q      C6AA      α(0)
     1   6 C        3.752    -0.102    22.515     6.767
     2   6 C        3.801    -0.053    21.528     6.606
     3   6 C        3.803    -0.059    21.641     6.623
     4   6 C        3.802    -0.060    21.650     6.625
     5   6 C        3.802    -0.058    21.624     6.620
     6   6 C        3.802    -0.059    21.628     6.621
     7   6 C        3.802    -0.063    21.717     6.635
     8   6 C        3.741    -0.001    20.666     6.486
     9   7 N        2.797    -0.049    22.183     6.995
    10   6 C        3.083     0.044    26.919     8.505
    11   6 C        2.910    -0.053    29.324     8.879
    12   6 C        2.923    -0.035    28.868     8.811
    13   6 C        2.920    -0.043    29.080     8.843
    14   6 C        2.912    -0.033    28.831     8.805
    15   6 C        3.070    -0.019    28.419     8.741
    16   6 C        3.069    -0.018    28.375     8.734
    17   6 C        2.919    -0.059    29.478     8.903
    18   6 C        2.904     0.063    26.584     8.454
    19   7 N        2.718    -0.140    24.032     7.281
    20   6 C        2.920     0.257    22.699     7.813
    21   7 N        1.870    -0.384    30.894     8.239
    22   6 C        2.917     0.257    22.684     7.810
    23   7 N        2.717    -0.143    24.086     7.289
    24   6 C        2.905     0.063    26.580     8.454
    25   6 C        2.930    -0.058    29.448     8.900
    26   6 C        2.909    -0.051    29.272     8.872
    27   6 C        3.083     0.038    27.061     8.528
    28   6 C        3.070    -0.017    28.363     8.732
    29   6 C        2.914    -0.056    29.394     8.890
    30   6 C        3.071    -0.019    28.396     8.737
    31   6 C        2.912    -0.033    28.829     8.804
    32   6 C        2.920    -0.043    29.068     8.841
    33   6 C        2.923    -0.034    28.855     8.809
    34   6 C        2.910    -0.053    29.321     8.879
    35   6 C        3.084     0.044    26.914     8.505
    36   7 N        2.796    -0.051    22.216     7.000
    37   6 C        3.740    -0.000    20.667     6.486
    38   6 C        3.801    -0.064    21.727     6.637
    39   6 C        3.800    -0.061    21.665     6.627
    40   6 C        3.802    -0.059    21.640     6.623
    41   6 C        3.801    -0.058    21.608     6.618
    42   6 C        3.802    -0.058    21.622     6.620
    43   6 C        3.800    -0.053    21.523     6.605
    44   6 C        3.751    -0.100    22.472     6.760
    45   7 N        1.837    -0.372    30.550     8.191
    46   6 C        2.915     0.336    21.303     7.569
    47   8 O        1.709    -0.244    18.046     5.736
    48   6 C        3.661     0.034    20.266     6.459
    49   7 N        1.839    -0.348    29.897     8.103
    50   6 C        2.923    -0.054    29.345     8.883
    51   6 C        2.910    -0.050    29.247     8.868
    52   6 C        3.079     0.038    27.065     8.529
    53   1 H        0.925     0.033     2.541     2.493
    54   1 H        0.925     0.033     2.540     2.492
    55   1 H        0.925     0.033     2.541     2.493
    56   1 H        0.924     0.029     2.597     2.520
    57   1 H        0.924     0.029     2.597     2.520
    58   1 H        0.924     0.030     2.593     2.518
    59   1 H        0.924     0.030     2.588     2.516
    60   1 H        0.924     0.032     2.558     2.501
    61   1 H        0.924     0.031     2.578     2.511
    62   1 H        0.924     0.032     2.561     2.502
    63   1 H        0.924     0.032     2.558     2.501
    64   1 H        0.924     0.033     2.547     2.496
    65   1 H        0.924     0.030     2.585     2.514
    66   1 H        0.924     0.041     2.440     2.443
    67   1 H        0.924     0.042     2.427     2.436
    68   1 H        0.924     0.048     2.342     2.393
    69   1 H        0.924     0.045     2.381     2.413
    70   1 H        0.926     0.023     2.681     2.560
    71   1 H        0.926     0.026     2.646     2.544
    72   1 H        0.926     0.025     2.663     2.552
    73   1 H        0.926     0.027     2.625     2.534
    74   1 H        0.926     0.028     2.614     2.528
    75   1 H        0.860     0.189     1.164     1.690
    76   1 H        0.860     0.188     1.170     1.694
    77   1 H        0.926     0.028     2.620     2.531
    78   1 H        0.926     0.027     2.633     2.538
    79   1 H        0.926     0.068     2.107     2.270
    80   1 H        0.926     0.028     2.608     2.525
    81   1 H        0.926     0.026     2.646     2.544
    82   1 H        0.926     0.027     2.630     2.536
    83   1 H        0.926     0.024     2.678     2.559
    84   1 H        0.924     0.051     2.302     2.372
    85   1 H        0.924     0.045     2.389     2.417
    86   1 H        0.924     0.037     2.485     2.465
    87   1 H        0.924     0.044     2.396     2.421
    88   1 H        0.924     0.033     2.538     2.491
    89   1 H        0.924     0.035     2.521     2.483
    90   1 H        0.924     0.030     2.583     2.513
    91   1 H        0.924     0.032     2.563     2.503
    92   1 H        0.924     0.027     2.627     2.534
    93   1 H        0.925     0.035     2.517     2.481
    94   1 H        0.924     0.027     2.629     2.536
    95   1 H        0.924     0.030     2.580     2.512
    96   1 H        0.924     0.029     2.604     2.523
    97   1 H        0.924     0.029     2.599     2.521
    98   1 H        0.925     0.032     2.558     2.501
    99   1 H        0.925     0.034     2.526     2.485
   100   1 H        0.925     0.031     2.566     2.505
   101   1 H        0.925     0.068     2.105     2.269
   102   1 H        0.924     0.060     2.201     2.320
   103   1 H        0.924     0.058     2.220     2.330
   104   1 H        0.926     0.077     2.013     2.219
   105   1 H        0.926     0.032     2.559     2.502

molecular dipole:
                 x           y           z       tot (Debye)
 q only:       -0.731      -0.047      -0.371
   full:       -0.923       0.194      -0.408       2.611

 projected vibrational frequencies (cm⁻¹)
eigval :       -0.00    -0.00    -0.00     0.00     0.00     0.00
eigval :        3.83     4.81     8.25     9.64    15.40    15.80
eigval :       19.20    22.86    28.08    30.87    33.50    43.28
eigval :       46.95    52.68    58.64    63.32    78.75    85.44
eigval :       93.49    96.28    98.19   111.61   112.16   116.97
eigval :      121.14   123.02   124.26   134.13   134.86   142.54
eigval :      144.72   157.83   163.12   174.15   182.62   194.14
eigval :      205.67   214.59   220.75   224.11   233.94   238.77
eigval :      246.33   256.41   264.08   266.63   282.70   283.68
eigval :      295.97   302.35   316.61   317.93   328.11   339.52
eigval :      354.92   362.18   391.51   393.11   401.55   407.17
eigval :      421.44   425.08   431.21   446.10   456.17   459.59
eigval :      475.42   476.69   506.90   526.04   530.57   531.59
eigval :      533.70   555.45   558.88   579.16   580.43   581.26
eigval :      592.45   598.18   606.14   606.46   612.01   617.18
eigval :      635.06   657.28   671.11   671.56   678.92   701.13
eigval :      707.06   707.76   743.37   746.65   753.75   757.06
eigval :      764.99   768.93   770.75   771.08   772.18   777.76
eigval :      780.08   794.37   800.47   807.70   813.42   832.26
eigval :      839.53   854.29   860.40   862.12   863.33   863.73
eigval :      865.65   875.55   885.04   885.80   898.98   901.27
eigval :      908.07   918.90   920.03   921.78   928.04   940.15
eigval :      941.06   960.94   971.80   982.77   996.46  1009.67
eigval :     1012.15  1020.55  1023.05  1025.11  1026.60  1043.71
eigval :     1046.82  1057.66  1061.11  1067.47  1072.74  1073.22
eigval :     1078.57  1087.48  1092.69  1093.38  1113.02  1125.08
eigval :     1127.12  1128.42  1134.65  1136.28  1137.34  1138.63
eigval :     1141.79  1145.71  1151.25  1154.39  1162.42  1170.51
eigval :     1173.21  1178.56  1181.80  1183.37  1185.57  1190.59
eigval :     1196.19  1205.12  1214.59  1217.02  1223.24  1230.45
eigval :     1234.39  1245.93  1252.45  1254.53  1256.75  1258.42
eigval :     1262.87  1272.44  1276.16  1279.85  1281.64  1285.48
eigval :     1286.18  1287.65  1289.74  1291.93  1294.61  1296.33
eigval :     1298.22  1324.12  1326.24  1331.15  1339.37  1346.20
eigval :     1347.52  1353.15  1355.66  1357.17  1360.15  1362.41
eigval :     1367.90  1368.13  1369.62  1370.23  1372.85  1378.26
eigval :     1379.69  1383.41  1386.99  1409.81  1415.35  1416.39
eigval :     1423.86  1427.05  1443.29  1445.18  1446.77  1465.29
eigval :     1470.31  1471.98  1473.17  1482.74  1487.34  1490.16
eigval :     1490.97  1491.33  1491.94  1492.57  1494.36  1495.04
eigval :     1495.70  1496.39  1497.37  1498.33  1499.97  1501.65
eigval :     1502.41  1504.84  1506.64  1507.89  1511.65  1548.38
eigval :     1554.91  1568.40  1571.46  1572.78  1587.17  1587.55
eigval :     1603.57  1604.28  1620.56  1620.96  2945.13  2949.88
eigval :     2955.60  2955.95  2956.93  2958.18  2958.45  2958.77
eigval :     2962.56  2964.46  2966.87  2968.55  2969.10  2971.37
eigval :     2973.54  2973.92  2974.05  2975.66  2976.47  2979.36
eigval :     2980.29  2981.87  2983.06  2984.99  2986.98  2989.86
eigval :     2991.63  2997.32  3000.74  3006.47  3028.74  3029.69
eigval :     3030.52  3032.47  3033.59  3038.12  3045.50  3067.89
eigval :     3071.66  3072.42  3072.83  3077.64  3077.77  3084.37
eigval :     3084.59  3085.91  3088.29  3092.94  3093.28  3137.72
eigval :     3156.88  3416.64  3419.96

   temp. (K)  partition function   enthalpy   heat capacity  entropy
                                   cal/mol     cal/K/mol   cal/K/mol   J/K/mol
 298.15  VIB  0.457E+28            30245.998    174.807    197.792
         ROT  0.239E+09              888.752      2.981     41.319
         INT  0.109E+37            31134.750    177.788    239.111
         TR   0.178E+29             1481.254      4.968     45.480
         TOT                       32616.0041   182.7560   284.5916  1190.7314

       T/K    H(0)-H(T)+PV         H(T)/Eh          T*S/Eh         G(T)/Eh
   ------------------------------------------------------------------------
    298.15    0.519769E-01    0.932450E+00    0.135219E+00    0.797231E+00
   ------------------------------------------------------------------------

         :::::::::::::::::::::::::::::::::::::::::::::::::::::
         ::                  THERMODYNAMIC                  ::
         :::::::::::::::::::::::::::::::::::::::::::::::::::::
         :: total free energy        -145.185173343998 Eh   ::
         ::.................................................::
         :: total energy             -145.982404307487 Eh   ::
         :: zero point energy           0.880472716799 Eh   ::
         :: G(RRHO) w/o ZPVE           -0.083241753310 Eh   ::
         :: G(RRHO) contrib.            0.797230963489 Eh   ::
         :::::::::::::::::::::::::::::::::::::::::::::::::::::

           -------------------------------------------------
          | TOTAL ENERGY             -145.982404307487 Eh   |
          | TOTAL ENTHALPY           -145.049954679655 Eh   |
          | TOTAL FREE ENERGY        -145.185173343998 Eh   |
          | GRADIENT NORM               0.000067883819 Eh/α |
          | HOMO-LUMO GAP               2.853173690778 eV   |
           -------------------------------------------------

 * finished run on 2025/08/23 at 09:43:08.158
