   * xtb version 6.7.1 (edcfbbe) compiled by 'albert@albert-system' on 2024-07-22

   ID    Z sym.   atoms
    1    6 C      1-8, 10-18, 20, 22, 24-35, 37-44, 46, 48, 50-52
    2    7 N      9, 19, 21, 23, 36, 45, 49
    3    8 O      47
    4    1 H      53-105

          program call               : xtb data2507/gas/2CM/2CM_gas_T1_crest.xyz --gfn 2 --spinpol --tblite --uhf 2 --ohess vtight --parallel 40 --molden --ceasefiles --namespace data2507/gas/2CM/2CM_gas_T1_finalOpt
 * total energy  :  -145.8952725 Eh     change        0.1932682E-07 Eh
 * total energy  :  -145.8952864 Eh     change       -0.1388290E-04 Eh
 * total energy  :  -145.8953077 Eh     change       -0.2131097E-04 Eh
 * total energy  :  -145.8953157 Eh     change       -0.8020362E-05 Eh
 * total energy  :  -145.8953255 Eh     change       -0.9740882E-05 Eh
 * total energy  :  -145.8953285 Eh     change       -0.3029163E-05 Eh
 * total energy  :  -145.8953322 Eh     change       -0.3754535E-05 Eh
 * total energy  :  -145.8953352 Eh     change       -0.2938438E-05 Eh
 * total energy  :  -145.8953387 Eh     change       -0.3480260E-05 Eh
 * total energy  :  -145.8953427 Eh     change       -0.4069116E-05 Eh
 * total energy  :  -145.8953612 Eh     change       -0.8423963E-06 Eh
 * total energy  :  -145.8953615 Eh     change       -0.2658575E-06 Eh
 * total energy  :  -145.8953615 Eh     change        0.4270390E-08 Eh
 * total energy  :  -145.8953618 Eh     change       -0.3052047E-06 Eh
 * total energy  :  -145.8953624 Eh     change       -0.5905366E-06 Eh
 * total energy  :  -145.8953626 Eh     change       -0.2244700E-06 Eh
 * total energy  :  -145.8953628 Eh     change       -0.1609712E-06 Eh
 * total energy  :  -145.8953629 Eh     change       -0.1475614E-06 Eh
 * total energy  :  -145.8953630 Eh     change       -0.9589684E-07 Eh
   *** GEOMETRY OPTIMIZATION CONVERGED AFTER 38 ITERATIONS ***

 final structure:
================
105
 xtb: 6.7.1 (edcfbbe)
C           -0.07420411829822       -1.24976055434523        2.57455752966973
C           -1.55612728264135       -0.89789640310258        2.58185988673008
C           -1.87908222464511        0.19779355651660        3.59611087280868
C           -3.36589085416485        0.55754294884800        3.62600213596298
C           -3.78884102175385        1.41351521285564        2.43371636052161
C           -5.30474865916893        1.59690263540453        2.37918151130922
C           -5.78212129795474        2.44188170543526        1.19424336042867
C           -5.94748772328700        1.65776040653901       -0.11776616642398
N           -4.70661213254055        1.18290514478199       -0.65859091552854
C           -3.75819835859845        1.98887271274042       -1.25679103644997
C           -3.82029036183605        3.33611549965911       -1.56475057959849
C           -2.69676530274999        3.91754783158934       -2.16697805101748
C           -1.56606215510046        3.17584833283060       -2.44210435815316
C           -1.48920064708793        1.81933916344732       -2.12229530410134
C           -2.61098893300059        1.21343757273620       -1.55110018831449
C           -2.88049937568973       -0.10786355019042       -1.09386522320053
C           -2.12542843790933       -1.27641900902702       -1.06449247893346
C           -2.68111963717677       -2.41033457490328       -0.48774904617463
N           -2.00065350738542       -3.61151413484734       -0.39059338510307
C           -0.69670792745606       -3.93025985108786       -0.57012459700884
N            0.22793261372696       -3.00279278233964       -0.79118874999519
C            1.46099066808765       -3.47270707682794       -0.95878279843589
N            2.51055179383421       -2.65019127990480       -1.21054691314265
C            2.62800862198355       -1.27652947648543       -1.21261578035644
C            3.84524939838919       -0.74468476469439       -1.71197646674762
C            4.07829573530720        0.62015045106384       -1.73462360716386
C            3.09301834247441        1.46340077536070       -1.24647065093310
C            1.85930539674439        0.93462314833739       -0.73506751011200
C            1.63540340233998       -0.43832394500329       -0.72419239260813
C            1.08592802168487        2.04738963718257       -0.30834712082046
C           -0.19832995602235        2.17006212976308        0.23190922263015
C           -0.66919374381962        3.45510637044531        0.51806704750453
C            0.08428920857001        4.57598445390020        0.24798489322878
C            1.37226205070755        4.47327154698420       -0.30725987964716
C            1.85257675763881        3.20640104915684       -0.57766651911761
N            3.06094133984394        2.82731281638560       -1.13408281333757
C            4.13192385675674        3.73465118285738       -1.42887077007239
C            4.88953556303587        4.21442612067232       -0.17973855306934
C            5.76995746598968        3.14465191140647        0.47203693775587
C            5.01020177369471        2.20212820065727        1.40463675258029
C            5.91733282374087        1.09653859773688        1.94041057744235
C            5.16810700914385        0.05078305363771        2.76717248262715
C            4.23671659398404       -0.82105273391342        1.92610341021626
C            3.65033707412966       -1.97249110596713        2.73258948544428
N            1.80360449955402       -4.77098004712528       -0.93096852779235
C            0.80667858318244       -5.60192104008124       -0.67429380579199
O            1.13780360790346       -6.88743823158319       -0.62119212597423
C            0.08552522006811       -7.79232471993204       -0.34923685781913
N           -0.45401787578742       -5.25177496071577       -0.47581410914071
C           -4.00189225581811       -2.38938729663041        0.01666080738977
C           -4.76352372479157       -1.23338102047877       -0.00472133930928
C           -4.20172512811471       -0.08687551553959       -0.54268261436272
H            0.52503732671483       -0.37494740245767        2.33134868071831
H            0.12883401746114       -2.01985161631534        1.83372110475707
H            0.23791832348391       -1.61971496665086        3.54931295990320
H           -1.84924696858905       -0.57759154287541        1.58158451300093
H           -2.14014689067385       -1.79062761116439        2.82014186696934
H           -1.57598605623622       -0.14623797053670        4.58832556862339
H           -1.29442928576132        1.09097582209952        3.36344936024922
H           -3.95290695992185       -0.36438189353870        3.63368334244089
H           -3.59042136716577        1.09825330934422        4.54908088134234
H           -3.43948337830332        0.94040217320687        1.51945614942657
H           -3.30883602736915        2.39245115502612        2.50663178452930
H           -5.78584143347422        0.61680963305630        2.34364481923409
H           -5.62596227150363        2.08183106777206        3.30479614860632
H           -6.75716691737279        2.87317032543655        1.43195930240708
H           -5.08280835307889        3.26405594827498        1.03279417120253
H           -6.60422219592179        0.80090460206623        0.04766939492066
H           -6.42020663285769        2.31006134169385       -0.86081687483179
H           -4.69597257466271        3.93159869555434       -1.35674787224915
H           -2.72402955020351        4.96759945902155       -2.41677920415539
H           -0.71374448629953        3.65644843903397       -2.89956928345808
H           -0.61903476054036        1.23627497512203       -2.37515423376146
H           -1.13116498080430       -1.30573239067988       -1.47304262606884
H           -2.55463759402187       -4.41647403772738       -0.12619017791424
H            3.35180084846198       -3.17552228768195       -1.41592923084706
H            4.59770945787856       -1.42337901768637       -2.08337320567070
H            5.01169148876412        0.99883719988303       -2.12244472644261
H            0.72344576300491       -0.84761464303965       -0.32994459413528
H           -0.77004211708050        1.29640474099970        0.49255996417786
H           -1.65521289969727        3.56769323738964        0.94433175695095
H           -0.31073469380823        5.55690131650303        0.46550934822102
H            1.94564668365653        5.36294269043655       -0.51741020160034
H            3.70880788887916        4.60661445876768       -1.94012616877592
H            4.82641718497302        3.24344465304647       -2.11395372666483
H            4.17034688188652        4.58855714689447        0.55106903874762
H            5.51930293483673        5.05117794076710       -0.49004089926275
H            6.55562934088896        3.64147170997888        1.04705523979254
H            6.26278261511183        2.55960184348844       -0.30803770840612
H            4.17974758353924        1.74573885457134        0.87242429569539
H            4.59782032391597        2.77305152060166        2.24003627711723
H            6.40322845315486        0.59574761972399        1.09909432144009
H            6.70257856360880        1.54498960658376        2.55479958788426
H            4.59186104227052        0.54902317781280        3.55005881935655
H            5.90132882536762       -0.59489401219543        3.25753660554124
H            3.41934373242456       -0.21907066728628        1.52758331991432
H            4.79365758347688       -1.22236648040014        1.07627596833469
H            3.08390733668976       -1.59358869811355        3.58021349152024
H            2.98232408994770       -2.56701499088615        2.11380935752580
H            4.43947642531543       -2.62028560671613        3.10916732280486
H           -0.36411580588609       -7.58107651302476        0.62352769547845
H            0.53739569393348       -8.78192293030622       -0.35182298088979
H           -0.69007772325173       -7.72467770243802       -1.11534331044475
H           -4.41523962237563       -3.29317231473344        0.43854785049729
H           -5.76413801001586       -1.24300392180135        0.40010047955649

 projected vibrational frequencies (cm⁻¹)
eigval :       -0.00    -0.00     0.00     0.00     0.00     0.00
eigval :       13.57    17.42    19.08    24.60    25.28    30.13
eigval :       35.59    43.36    45.15    47.64    48.47    58.84
eigval :       62.50    63.84    66.67    79.05    79.86    91.03
eigval :       97.05   102.55   110.71   111.89   115.64   122.65
eigval :      125.88   131.36   134.37   136.26   138.66   145.44
eigval :      171.27   173.84   184.12   190.89   195.86   203.81
eigval :      209.86   214.01   220.75   237.17   238.31   246.63
eigval :      256.49   261.85   268.82   276.05   277.12   279.05
eigval :      291.34   304.89   310.65   320.44   327.83   338.12
eigval :      360.63   364.09   370.76   374.26   396.91   397.77
eigval :      421.71   425.41   429.44   438.83   444.30   467.25
eigval :      468.64   504.51   505.08   508.42   512.53   519.09
eigval :      524.05   550.89   551.18   557.28   563.12   566.26
eigval :      570.90   577.66   588.00   600.15   603.24   614.78
eigval :      634.58   645.11   647.54   650.51   655.98   673.94
eigval :      682.21   687.44   696.45   718.53   728.43   737.75
eigval :      743.79   743.98   751.44   753.10   757.70   757.90
eigval :      761.67   775.67   780.10   795.75   814.04   824.66
eigval :      826.06   827.44   837.38   839.89   844.82   845.40
eigval :      847.14   850.44   862.46   871.00   876.12   882.33
eigval :      891.70   894.10   897.24   898.03   901.31   908.80
eigval :      924.97   927.67   931.86   940.76   978.82   981.48
eigval :      997.45  1007.75  1011.57  1018.94  1020.47  1021.39
eigval :     1031.04  1035.33  1044.82  1048.70  1058.95  1073.25
eigval :     1074.50  1077.54  1089.59  1090.68  1092.18  1112.50
eigval :     1117.38  1120.47  1120.87  1122.90  1125.32  1127.90
eigval :     1132.33  1134.66  1135.84  1136.96  1141.52  1150.66
eigval :     1154.62  1158.65  1174.59  1175.95  1180.30  1182.44
eigval :     1183.96  1192.93  1199.13  1200.75  1205.60  1208.22
eigval :     1216.25  1229.56  1231.05  1237.45  1240.03  1241.20
eigval :     1246.01  1248.55  1273.21  1276.54  1277.28  1278.43
eigval :     1286.41  1288.71  1289.09  1297.91  1298.44  1302.01
eigval :     1304.24  1311.22  1311.62  1312.74  1327.21  1328.38
eigval :     1332.07  1341.16  1342.67  1344.44  1350.30  1355.60
eigval :     1356.97  1358.85  1362.00  1366.70  1369.12  1371.85
eigval :     1372.52  1378.67  1379.43  1386.87  1389.82  1401.51
eigval :     1408.57  1410.77  1413.46  1414.37  1414.95  1422.87
eigval :     1427.97  1429.28  1434.34  1439.98  1457.38  1459.45
eigval :     1463.37  1465.55  1468.56  1470.49  1471.61  1480.64
eigval :     1483.45  1483.86  1485.79  1487.83  1488.04  1491.59
eigval :     1491.91  1494.86  1495.23  1495.93  1498.02  1500.14
eigval :     1500.94  1503.06  1505.43  1508.48  1512.25  1521.32
eigval :     1530.67  1535.86  1543.80  1569.09  2930.67  2932.82
eigval :     2952.78  2952.95  2956.70  2956.75  2957.10  2957.13
eigval :     2961.74  2964.24  2967.59  2969.90  2970.45  2971.17
eigval :     2971.92  2973.83  2973.93  2976.44  2978.47  2978.75
eigval :     2980.73  2981.00  2982.95  2983.56  2996.14  2996.77
eigval :     2997.41  3000.61  3024.75  3026.58  3029.88  3031.56
eigval :     3033.22  3035.63  3038.81  3048.37  3051.91  3073.52
eigval :     3073.84  3074.06  3076.74  3080.45  3081.33  3085.75
eigval :     3088.99  3091.03  3092.86  3107.05  3125.27  3144.37
eigval :     3155.67  3396.53  3403.04

   temp. (K)  partition function   enthalpy   heat capacity  entropy
                                   cal/mol     cal/K/mol   cal/K/mol   J/K/mol
 298.15  VIB  0.407E+24            30060.848    180.419    190.496
         ROT  0.794E+08              888.752      2.981     39.130
         INT  0.323E+32            30949.600    183.400    229.627
         TR   0.178E+29             1481.254      4.968     45.480
         TOT                       32430.8538   188.3678   275.1070  1151.0476

       T/K    H(0)-H(T)+PV         H(T)/Eh          T*S/Eh         G(T)/Eh
   ------------------------------------------------------------------------
    298.15    0.516819E-01    0.925218E+00    0.130712E+00    0.794506E+00
   ------------------------------------------------------------------------

         :::::::::::::::::::::::::::::::::::::::::::::::::::::
         ::                  THERMODYNAMIC                  ::
         :::::::::::::::::::::::::::::::::::::::::::::::::::::
         :: total free energy        -145.100857341837 Eh   ::
         ::.................................................::
         :: total energy             -145.895362998476 Eh   ::
         :: zero point energy           0.873536008946 Eh   ::
         :: G(RRHO) w/o ZPVE           -0.079030352306 Eh   ::
         :: G(RRHO) contrib.            0.794505656640 Eh   ::
         :::::::::::::::::::::::::::::::::::::::::::::::::::::

           -------------------------------------------------
          | TOTAL ENERGY             -145.895362998476 Eh   |
          | TOTAL ENTHALPY           -144.970145134276 Eh   |
          | TOTAL FREE ENERGY        -145.100857341837 Eh   |
          | GRADIENT NORM               0.000118897794 Eh/α |
           -------------------------------------------------

 * finished run on 2025/08/23 at 16:29:53.172
