   * xtb version 6.7.1 (edcfbbe) compiled by 'albert@albert-system' on 2024-07-22

   ID    Z sym.   atoms
    1    6 C      1-8, 10-18, 20, 22, 24-35, 37-44, 46, 48, 50-52
    2    7 N      9, 19, 21, 23, 36, 45, 49
    3    8 O      47
    4    1 H      53-105

          program call               : xtb data2507/gas/2CM/2CM_gas_S0_crest.xyz --gfn 2 --ohess vtight --parallel 40 --molden --ceasefiles --namespace data2507/gas/2CM/2CM_gas_S0_finalOpt
          :  Hamiltonian                  GFN2-xTB          :
 * total energy  :  -145.9963089 Eh     change       -0.7771661E-08 Eh
 * total energy  :  -145.9963103 Eh     change       -0.1447360E-05 Eh
 * total energy  :  -145.9963132 Eh     change       -0.2907961E-05 Eh
 * total energy  :  -145.9963149 Eh     change       -0.1661594E-05 Eh
 * total energy  :  -145.9963172 Eh     change       -0.2319128E-05 Eh
 * total energy  :  -145.9963204 Eh     change       -0.3185474E-05 Eh
 * total energy  :  -145.9963233 Eh     change       -0.2903439E-05 Eh
 * total energy  :  -145.9963256 Eh     change       -0.2263663E-05 Eh
 * total energy  :  -145.9963277 Eh     change       -0.2174195E-05 Eh
 * total energy  :  -145.9963299 Eh     change       -0.2107175E-05 Eh
 * total energy  :  -145.9963432 Eh     change       -0.2430176E-06 Eh
 * total energy  :  -145.9963434 Eh     change       -0.1663048E-06 Eh
 * total energy  :  -145.9963435 Eh     change       -0.1287764E-06 Eh
 * total energy  :  -145.9963436 Eh     change       -0.1168355E-06 Eh
 * total energy  :  -145.9963438 Eh     change       -0.1166099E-06 Eh
 * total energy  :  -145.9963439 Eh     change       -0.1063520E-06 Eh
 * total energy  :  -145.9963440 Eh     change       -0.1065931E-06 Eh
 * total energy  :  -145.9963441 Eh     change       -0.1124935E-06 Eh
 * total energy  :  -145.9963442 Eh     change       -0.8566633E-07 Eh
   *** GEOMETRY OPTIMIZATION CONVERGED AFTER 36 ITERATIONS ***

 final structure:
================
105
 xtb: 6.7.1 (edcfbbe)
C           -3.50452300274993       -0.48038717702515        3.37570890919780
C           -2.08395768210689        0.03469252664649        3.18187032880863
C           -1.26921636741444       -0.87424689396739        2.26509763012016
C            0.17880078920240       -0.40556310174810        2.14796690900566
C            1.02742934573300       -1.28087612584690        1.22557083627719
C            1.38517829406869       -2.63577136460116        1.83887576861403
C            2.26417298887280       -3.50606782721057        0.93005899205515
C            1.47521115850599       -4.44353933115928        0.00351507379822
N            0.60273507234389       -3.74068038744910       -0.89526278523924
C            1.01947091058099       -3.01244515659780       -1.98361218678183
C            2.27628708479598       -2.93405095049927       -2.56967438705971
C            2.42213920304985       -2.13133760893144       -3.68430210513081
C            1.34912372211676       -1.41537192039213       -4.21228193830181
C            0.09719436732785       -1.48378338364456       -3.63392666635314
C           -0.07398345217990       -2.28298294889734       -2.51025366388716
C           -1.19428957408908       -2.56697393998857       -1.66015651673773
C           -2.49606863066777       -2.08919329412558       -1.61295643651190
C           -3.32576987515155       -2.53471928952297       -0.59903050867542
N           -4.60750301921929       -1.96929097116054       -0.44681867881819
C           -4.78294992582921       -0.65864029585538       -0.16592228245941
N           -3.73670976508725        0.16055141417574       -0.26070315999206
C           -3.96558667117727        1.40745361235117        0.12922400466490
N           -2.98033552506954        2.32713991718716        0.17445831096114
C           -1.63960688990355        2.26326415609987       -0.20770691921301
C           -1.12061531520815        1.17647016234704       -0.92108970240152
C            0.19292838667299        1.15470047240106       -1.34162242622581
C            1.00461197586223        2.23782329058067       -1.03861574323344
C            0.50031747911856        3.32884534477841       -0.29299651054538
C           -0.82517097927218        3.34191768444995        0.11637442459730
C            1.58629291336927        4.25609939879951       -0.15375820517395
C            1.71343479553361        5.49174753724450        0.46668355216754
C            2.92894658342611        6.14248563870701        0.40673660147949
C            4.01066606385085        5.57393769866634       -0.26259414962187
C            3.90966805170380        4.34608321031352       -0.88649175768505
C            2.69059909079780        3.68279005456852       -0.83289646587900
N            2.32007306595801        2.47237546163230       -1.36630138675433
C            3.13517214860911        1.60223815595233       -2.16988764807364
C            3.68424691674375        0.40670400699238       -1.38393021046745
C            4.57241932980833        0.83052384178527       -0.21703259006423
C            5.09225018978955       -0.37407034517797        0.56323393768088
C            5.94150701333857        0.04289505069084        1.76127344707172
C            6.49579724855065       -1.14521928616631        2.54832654499199
C            5.41927919074621       -1.94081059949557        3.28428110879608
C            6.02434887548745       -3.05174990381233        4.13397629010444
N           -5.15990772731982        1.86985151261682        0.53638744247564
C           -6.13697487295473        0.97863848261750        0.52994132166141
O           -7.35954365532715        1.35549782073218        0.88909355472935
C           -7.51103561404948        2.71349392591128        1.25338523377350
N           -6.01216814600307       -0.30139767674297        0.21066329007529
C           -2.89093937073397       -3.50917356825001        0.30542459088162
C           -1.59973568576667       -3.99256222003723        0.27280513116103
C           -0.73267386254156       -3.48535240659843       -0.68621498040851
H           -4.07257920409430        0.18556726963279        4.02185985703166
H           -3.49386752301293       -1.47051570775934        3.82728424994154
H           -4.01833780718797       -0.54960881341799        2.42012618797196
H           -2.11553546812922        1.03827490736273        2.75190552669220
H           -1.59088061231527        0.10617133809742        4.15516500227129
H           -1.30090924146314       -1.89237942763444        2.65856018808027
H           -1.72689737915040       -0.88384607002058        1.27402247171383
H            0.18038271031428        0.61341399096483        1.75362429536155
H            0.63537324147542       -0.37770848347758        3.14126563371261
H            1.95518576868183       -0.74607989271084        1.00828598027929
H            0.49100804831342       -1.41179827701596        0.28681349219547
H            1.92133190148791       -2.45148020678519        2.77344446507304
H            0.47412429720346       -3.18000824513976        2.08794394837708
H            2.90374906278141       -2.86334113916968        0.32153202753704
H            2.91230674449406       -4.13612561658177        1.54364045378417
H            2.17897979361322       -5.04147055193211       -0.58607482909613
H            0.87158466371237       -5.12891953319065        0.60206118168029
H            3.11744053261826       -3.48454050151920       -2.17618120467704
H            3.38913201027053       -2.05820440384024       -4.16050547552712
H            1.50393092377700       -0.80112589954802       -5.08720212010678
H           -0.73391218457754       -0.92731564377180       -4.03997787874518
H           -2.85692000082594       -1.37169734599858       -2.33154098568739
H           -5.37110522035717       -2.56070864617806       -0.15180583627460
H           -3.29051739701032        3.21231473413657        0.55324288083011
H           -1.77155464508840        0.34838387950136       -1.13498704378535
H            0.56533848765253        0.31273527586362       -1.90243343259430
H           -1.21877887781259        4.18215752707088        0.67037744084850
H            0.87430152917019        5.93132744242170        0.98497422358740
H            3.04888937581869        7.10439269001791        0.88266696427930
H            4.95046089283393        6.10580038225570       -0.29301411279492
H            4.76164258341550        3.92224579148257       -1.39653775901693
H            3.96166612328109        2.18862359905263       -2.57827739435423
H            2.53115002676542        1.23198529436305       -3.00553249779073
H            4.25140606540183       -0.22440571152307       -2.07102861602029
H            2.84491008988874       -0.18207482425724       -1.00989542745810
H            4.00231624706533        1.47500247537565        0.45603380191444
H            5.41865722297410        1.41061752911394       -0.59287883170535
H            5.68699532440430       -1.00769515553071       -0.09976839518469
H            4.24140688641288       -0.96133459504077        0.91064523897891
H            6.77723832481217        0.65081456749853        1.40587107724410
H            5.34076914719462        0.66720820924636        2.42685080943940
H            7.21535851431788       -0.77301833325713        3.28179255566628
H            7.03404661076610       -1.80985783579523        1.86808178160892
H            4.84829313567213       -1.26417543083034        3.92429626233188
H            4.72781709426689       -2.38112546956340        2.56446526390839
H            6.69989462674725       -2.63869602454274        4.87995282557312
H            5.24505256835218       -3.60906879401914        4.64912469682073
H            6.58709786626960       -3.74432383224234        3.51140999382136
H           -7.24485288824327        3.36930898301206        0.42140919423416
H           -6.87553005368417        2.95719109540758        2.10766844290187
H           -8.56047061581636        2.83563856379692        1.51285609317698
H           -3.57703493528032       -3.86352777799234        1.06090038308953
H           -1.28197050180839       -4.73112828923963        0.99339613160426

          :  Hamiltonian                  GFN2-xTB          :
         :: gradient norm              0.000066867701 Eh/a0 ::
         :: HOMO-LUMO gap              2.748437811408 eV    ::
         :: SCC energy              -148.312518923545 Eh    ::
         :: -> dispersion             -0.141192069640 Eh    ::
         :: repulsion energy           2.316174759763 Eh    ::

    * Orbital Energies and Occupations

         #    Occupation            Energy/Eh            Energy/eV
      -------------------------------------------------------------
         1        2.0000           -0.7183088             -19.5462
       ...           ...                  ...                  ...
       123        2.0000           -0.4125680             -11.2265
       124        2.0000           -0.4117754             -11.2050
       125        2.0000           -0.4093350             -11.1386
       126        2.0000           -0.4073346             -11.0841
       127        2.0000           -0.4053419             -11.0299
       128        2.0000           -0.3868160             -10.5258
       129        2.0000           -0.3842298             -10.4554
       130        2.0000           -0.3771561             -10.2629
       131        2.0000           -0.3684265             -10.0254
       132        2.0000           -0.3678331             -10.0092
       133        2.0000           -0.3628972              -9.8749
       134        2.0000           -0.3574001              -9.7254
       135        2.0000           -0.3470512              -9.4437 (HOMO)
       136                         -0.2460480              -6.6953 (LUMO)
       137                         -0.2376527              -6.4669
       138                         -0.2311308              -6.2894
       139                         -0.2266045              -6.1662
       140                         -0.2150976              -5.8531
       141                         -0.2058858              -5.6024
       142                         -0.1934595              -5.2643
       143                         -0.1869172              -5.0863
       144                         -0.1818448              -4.9482
       145                         -0.1703048              -4.6342
       146                         -0.1010367              -2.7493
       ...                                ...                  ...
       261                          0.7544971              20.5309
      -------------------------------------------------------------
                  HL-Gap            0.1010032 Eh            2.7484 eV

     #   Z          covCN         q      C6AA      α(0)
     1   6 C        3.752    -0.093    22.345     6.741
     2   6 C        3.801    -0.050    21.464     6.596
     3   6 C        3.803    -0.060    21.648     6.624
     4   6 C        3.802    -0.058    21.618     6.620
     5   6 C        3.801    -0.057    21.592     6.616
     6   6 C        3.800    -0.059    21.628     6.622
     7   6 C        3.800    -0.063    21.704     6.633
     8   6 C        3.739     0.000    20.656     6.485
     9   7 N        2.796    -0.044    22.097     6.982
    10   6 C        3.083     0.045    26.890     8.501
    11   6 C        2.910    -0.052    29.300     8.876
    12   6 C        2.923    -0.035    28.876     8.812
    13   6 C        2.920    -0.044    29.095     8.845
    14   6 C        2.912    -0.032    28.794     8.799
    15   6 C        3.070    -0.017    28.355     8.731
    16   6 C        3.071    -0.016    28.334     8.728
    17   6 C        2.916    -0.039    28.957     8.824
    18   6 C        2.917     0.066    26.513     8.444
    19   7 N        2.713    -0.160    24.464     7.346
    20   6 C        2.946     0.262    22.597     7.796
    21   7 N        1.845    -0.352    30.010     8.119
    22   6 C        2.924     0.259    22.646     7.804
    23   7 N        2.717    -0.142    24.070     7.287
    24   6 C        2.904     0.064    26.571     8.452
    25   6 C        2.924    -0.053    29.319     8.880
    26   6 C        2.910    -0.052    29.279     8.873
    27   6 C        3.085     0.038    27.051     8.526
    28   6 C        3.066    -0.018    28.398     8.738
    29   6 C        2.919    -0.060    29.501     8.907
    30   6 C        3.072    -0.020    28.433     8.743
    31   6 C        2.912    -0.034    28.837     8.806
    32   6 C        2.920    -0.044    29.085     8.844
    33   6 C        2.923    -0.035    28.865     8.811
    34   6 C        2.910    -0.053    29.315     8.878
    35   6 C        3.081     0.044    26.916     8.505
    36   7 N        2.795    -0.047    22.146     6.989
    37   6 C        3.740    -0.001    20.668     6.487
    38   6 C        3.802    -0.063    21.700     6.632
    39   6 C        3.803    -0.057    21.593     6.616
    40   6 C        3.803    -0.058    21.616     6.619
    41   6 C        3.802    -0.058    21.626     6.621
    42   6 C        3.802    -0.059    21.638     6.623
    43   6 C        3.800    -0.054    21.538     6.608
    44   6 C        3.752    -0.102    22.516     6.767
    45   7 N        1.851    -0.392    31.119     8.268
    46   6 C        2.910     0.338    21.267     7.562
    47   8 O        1.708    -0.246    18.068     5.739
    48   6 C        3.663     0.032    20.295     6.462
    49   7 N        1.847    -0.367    30.422     8.175
    50   6 C        2.926    -0.049    29.223     8.865
    51   6 C        2.910    -0.048    29.194     8.860
    52   6 C        3.082     0.045    26.906     8.504
    53   1 H        0.925     0.030     2.587     2.515
    54   1 H        0.925     0.030     2.581     2.512
    55   1 H        0.925     0.025     2.652     2.546
    56   1 H        0.924     0.025     2.662     2.551
    57   1 H        0.924     0.026     2.641     2.541
    58   1 H        0.924     0.027     2.636     2.539
    59   1 H        0.924     0.039     2.463     2.455
    60   1 H        0.924     0.030     2.584     2.514
    61   1 H        0.924     0.027     2.627     2.534
    62   1 H        0.924     0.027     2.635     2.539
    63   1 H        0.925     0.035     2.519     2.482
    64   1 H        0.924     0.033     2.550     2.497
    65   1 H        0.925     0.037     2.490     2.468
    66   1 H        0.924     0.041     2.434     2.440
    67   1 H        0.924     0.036     2.504     2.475
    68   1 H        0.924     0.043     2.407     2.426
    69   1 H        0.924     0.049     2.332     2.388
    70   1 H        0.926     0.024     2.673     2.557
    71   1 H        0.926     0.025     2.662     2.551
    72   1 H        0.926     0.024     2.671     2.556
    73   1 H        0.926     0.033     2.540     2.492
    74   1 H        0.926     0.051     2.313     2.378
    75   1 H        0.860     0.185     1.187     1.707
    76   1 H        0.860     0.188     1.169     1.694
    77   1 H        0.926     0.070     2.083     2.257
    78   1 H        0.926     0.035     2.521     2.483
    79   1 H        0.926     0.027     2.628     2.535
    80   1 H        0.926     0.027     2.623     2.533
    81   1 H        0.926     0.025     2.660     2.551
    82   1 H        0.926     0.026     2.644     2.543
    83   1 H        0.926     0.022     2.705     2.572
    84   1 H        0.924     0.049     2.336     2.390
    85   1 H        0.924     0.046     2.370     2.407
    86   1 H        0.924     0.036     2.498     2.472
    87   1 H        0.924     0.041     2.433     2.439
    88   1 H        0.924     0.035     2.514     2.480
    89   1 H        0.924     0.030     2.588     2.516
    90   1 H        0.924     0.028     2.620     2.531
    91   1 H        0.924     0.032     2.553     2.499
    92   1 H        0.924     0.029     2.601     2.522
    93   1 H        0.924     0.031     2.567     2.506
    94   1 H        0.924     0.031     2.576     2.510
    95   1 H        0.924     0.030     2.589     2.516
    96   1 H        0.924     0.030     2.591     2.517
    97   1 H        0.924     0.031     2.571     2.508
    98   1 H        0.925     0.033     2.541     2.493
    99   1 H        0.925     0.032     2.565     2.504
   100   1 H        0.925     0.032     2.556     2.500
   101   1 H        0.924     0.058     2.219     2.330
   102   1 H        0.924     0.058     2.217     2.329
   103   1 H        0.925     0.068     2.105     2.269
   104   1 H        0.926     0.034     2.527     2.486
   105   1 H        0.926     0.029     2.607     2.525

molecular dipole:
                 x           y           z       tot (Debye)
 q only:        1.736      -0.772       0.080
   full:        1.587      -0.714       0.211       4.456

 projected vibrational frequencies (cm⁻¹)
eigval :       -0.00    -0.00    -0.00     0.00     0.00     0.00
eigval :        9.57    16.69    19.79    22.50    25.88    30.09
eigval :       32.49    36.15    44.21    50.33    53.45    57.65
eigval :       62.17    67.07    71.56    81.95    89.34    94.71
eigval :       96.06   102.22   105.34   110.18   113.54   118.68
eigval :      126.96   131.07   132.68   135.64   140.63   144.77
eigval :      153.29   168.18   176.25   183.02   190.51   198.75
eigval :      201.09   220.03   227.78   230.35   231.56   238.88
eigval :      245.79   267.02   270.39   271.57   276.43   282.56
eigval :      291.54   304.39   320.90   330.28   334.03   352.44
eigval :      359.65   384.67   391.96   396.10   401.28   403.75
eigval :      423.21   426.35   431.38   449.95   457.04   473.46
eigval :      481.88   514.81   519.63   521.72   528.28   530.86
eigval :      535.67   538.55   553.59   558.11   568.17   572.14
eigval :      576.11   583.19   585.54   606.21   608.62   611.87
eigval :      637.51   656.14   663.97   671.73   682.48   706.92
eigval :      707.74   709.40   723.93   727.61   742.71   754.72
eigval :      763.82   767.02   767.80   769.96   774.27   776.40
eigval :      782.57   807.79   813.71   815.54   816.27   839.00
eigval :      840.79   856.76   861.31   866.59   872.40   877.65
eigval :      878.79   891.39   896.22   898.82   902.52   904.34
eigval :      910.06   913.19   918.61   922.13   924.30   932.79
eigval :      936.52   946.49   947.22   961.36   994.02  1005.54
eigval :     1007.78  1010.70  1019.26  1026.47  1035.67  1042.03
eigval :     1043.78  1057.28  1069.09  1071.61  1073.99  1080.09
eigval :     1085.16  1094.40  1107.03  1108.04  1111.43  1113.85
eigval :     1124.38  1128.61  1129.09  1130.43  1132.74  1134.46
eigval :     1138.22  1141.15  1150.21  1152.91  1158.90  1166.85
eigval :     1169.30  1173.31  1179.62  1183.50  1183.71  1187.59
eigval :     1188.98  1210.87  1213.51  1217.44  1230.17  1233.44
eigval :     1239.12  1239.35  1242.15  1246.91  1248.79  1260.72
eigval :     1269.38  1270.22  1272.55  1282.31  1284.74  1286.53
eigval :     1290.65  1291.65  1292.25  1299.81  1306.87  1310.56
eigval :     1312.26  1317.57  1326.95  1327.50  1332.32  1333.80
eigval :     1339.64  1348.29  1352.38  1354.68  1357.19  1367.06
eigval :     1368.54  1370.68  1372.84  1374.42  1374.87  1378.87
eigval :     1382.31  1383.15  1385.71  1411.42  1414.88  1416.88
eigval :     1422.67  1427.00  1443.02  1443.70  1444.72  1458.91
eigval :     1462.44  1466.43  1470.19  1474.75  1475.59  1480.75
eigval :     1485.45  1486.88  1489.27  1489.81  1491.02  1491.92
eigval :     1492.11  1495.26  1495.72  1496.52  1499.09  1500.47
eigval :     1504.34  1504.71  1505.65  1508.71  1511.72  1540.29
eigval :     1549.37  1569.45  1571.28  1578.52  1585.94  1587.76
eigval :     1601.13  1603.59  1618.75  1620.77  2935.67  2936.57
eigval :     2954.02  2955.55  2956.67  2958.24  2960.47  2961.75
eigval :     2962.36  2968.44  2968.94  2971.55  2972.32  2973.40
eigval :     2973.50  2976.68  2977.39  2977.54  2979.69  2982.05
eigval :     2983.34  2984.51  2988.36  2989.52  2991.35  2995.09
eigval :     2997.37  3003.95  3007.34  3024.44  3025.43  3028.92
eigval :     3029.78  3030.18  3031.12  3036.81  3050.22  3071.57
eigval :     3072.43  3072.76  3074.19  3078.05  3079.88  3084.78
eigval :     3086.77  3088.39  3093.53  3094.95  3109.76  3111.78
eigval :     3159.35  3416.52  3433.56

   temp. (K)  partition function   enthalpy   heat capacity  entropy
                                   cal/mol     cal/K/mol   cal/K/mol   J/K/mol
 298.15  VIB  0.567E+24            29754.858    177.404    189.534
         ROT  0.826E+08              888.752      2.981     39.209
         INT  0.469E+32            30643.611    180.385    228.743
         TR   0.178E+29             1481.254      4.968     45.480
         TOT                       32124.8648   185.3534   274.2237  1147.3518

       T/K    H(0)-H(T)+PV         H(T)/Eh          T*S/Eh         G(T)/Eh
   ------------------------------------------------------------------------
    298.15    0.511942E-01    0.932511E+00    0.130293E+00    0.802218E+00
   ------------------------------------------------------------------------

         :::::::::::::::::::::::::::::::::::::::::::::::::::::
         ::                  THERMODYNAMIC                  ::
         :::::::::::::::::::::::::::::::::::::::::::::::::::::
         :: total free energy        -145.194125790312 Eh   ::
         ::.................................................::
         :: total energy             -145.996344163780 Eh   ::
         :: zero point energy           0.881316652166 Eh   ::
         :: G(RRHO) w/o ZPVE           -0.079098278698 Eh   ::
         :: G(RRHO) contrib.            0.802218373468 Eh   ::
         :::::::::::::::::::::::::::::::::::::::::::::::::::::

           -------------------------------------------------
          | TOTAL ENERGY             -145.996344163780 Eh   |
          | TOTAL ENTHALPY           -145.063833280952 Eh   |
          | TOTAL FREE ENERGY        -145.194125790312 Eh   |
          | GRADIENT NORM               0.000066863448 Eh/α |
          | HOMO-LUMO GAP               2.748437736415 eV   |
           -------------------------------------------------

 * finished run on 2025/08/23 at 12:31:25.017
