   * xtb version 6.7.1 (edcfbbe) compiled by 'albert@albert-system' on 2024-07-22

   ID    Z sym.   atoms
    1    6 C      1-8, 10-31, 33-64
    2    7 N      9, 32
    3    1 H      65-140

          program call               : xtb data2507/gas/6tBPA/6tBPA_gas_S0_crest.xyz --gfn 2 --ohess vtight --parallel 40 --molden --ceasefiles --namespace data2507/gas/6tBPA/6tBPA_gas_S0_finalOpt
          :  Hamiltonian                  GFN2-xTB          :
 * total energy  :  -177.5049974 Eh     change       -0.1058876E-07 Eh
 * total energy  :  -177.5049986 Eh     change       -0.1154589E-05 Eh
 * total energy  :  -177.5050002 Eh     change       -0.1644748E-05 Eh
 * total energy  :  -177.5050019 Eh     change       -0.1632503E-05 Eh
 * total energy  :  -177.5050026 Eh     change       -0.6962829E-06 Eh
 * total energy  :  -177.5050036 Eh     change       -0.1060108E-05 Eh
 * total energy  :  -177.5050047 Eh     change       -0.1064994E-05 Eh
 * total energy  :  -177.5050054 Eh     change       -0.7523629E-06 Eh
 * total energy  :  -177.5050062 Eh     change       -0.7805681E-06 Eh
 * total energy  :  -177.5050071 Eh     change       -0.8452659E-06 Eh
 * total energy  :  -177.5050104 Eh     change       -0.7793803E-06 Eh
 * total energy  :  -177.5050111 Eh     change       -0.6419164E-06 Eh
 * total energy  :  -177.5050116 Eh     change       -0.5082439E-06 Eh
 * total energy  :  -177.5050120 Eh     change       -0.4094227E-06 Eh
 * total energy  :  -177.5050124 Eh     change       -0.3950543E-06 Eh
 * total energy  :  -177.5050129 Eh     change       -0.4671616E-06 Eh
 * total energy  :  -177.5050134 Eh     change       -0.5797393E-06 Eh
 * total energy  :  -177.5050141 Eh     change       -0.6136095E-06 Eh
 * total energy  :  -177.5050141 Eh     change       -0.1359666E-07 Eh
   *** GEOMETRY OPTIMIZATION CONVERGED AFTER 22 ITERATIONS ***

 final structure:
================
140
 xtb: 6.7.1 (edcfbbe)
C            6.18438910184399       -3.64519509546337        3.33691262864167
C            5.82583439129629       -2.28710952598178        3.95793575344769
C            5.06788473737425       -2.54450580868940        5.26303770012721
C            7.10868685571073       -1.51468740254201        4.29575191976478
C            5.00842710800895       -1.49003675798355        2.95442838753273
C            3.70153233428774       -1.08018329823565        3.18912754400611
C            2.97977995534858       -0.38565319781574        2.23796067519698
C            3.53882886613660       -0.08099026142098        0.99934704980025
N            2.76703741924068        0.54281849581728        0.01851838095152
C            3.33273331431215        1.37353955090065       -0.94743299522804
C            2.77790877017407        1.44538716809430       -2.22466413946823
C            3.31875461315453        2.28311536057036       -3.17604726112954
C            4.43257337034019        3.07673991088943       -2.91019484139500
C            4.99010291562553        3.97927355165804       -3.99902080158903
C            5.40693723256273        3.11913945042274       -5.20054433254554
C            6.21351202645343        4.77548052884661       -3.53680074722278
C            3.90402733169659        4.97666019694123       -4.42638377399964
C            4.97713929520197        2.99848126890611       -1.63375393338730
C            4.43985963086071        2.17125244765302       -0.66644871054481
C            1.38355955218853        0.27278757418406       -0.02679862624624
C            0.46144400675120        1.33249095763670        0.01300958019793
C            0.85356852841289        2.68638326185490        0.16034374544608
C           -0.05901432445191        3.69413788115512        0.17886012606367
C           -1.44037506064172        3.44472536231643       -0.00723298044236
C           -2.41515164250003        4.60916650616073        0.00119032987384
C           -2.36038534705275        5.26707208305987        1.38769061690246
C           -3.85952755650419        4.17159500477469       -0.25842506727846
C           -2.01718748805142        5.62412409890423       -1.07863339529556
C           -1.83933783148015        2.14671769783900       -0.14199984402083
C           -0.93569945532234        1.05727194762286       -0.06546661097374
C           -1.38650272145599       -0.27529201576077       -0.02709186594378
N           -2.76995415289737       -0.54590860204103        0.01719441766178
C           -3.33484211434432       -1.37057853272137       -0.95447931848523
C           -2.77929823857828       -1.43307765690791       -2.23190321052362
C           -3.31832374164418       -2.26517922156187       -3.18920322030903
C           -4.43111142119687       -3.06221416981535       -2.92931086573069
C           -4.98651249929361       -3.95831086929710       -4.02453424966300
C           -3.89893223443254       -4.95178765471408       -4.45719070519951
C           -6.20962582552714       -4.75870519093634       -3.56882016534662
C           -5.40292853564545       -3.09092845118536       -5.22099706371569
C           -4.97651799614408       -2.99318270490067       -1.65268848615736
C           -4.44105671967766       -2.17161230178274       -0.67952214443958
C           -3.54177841919413        0.07268328731700        1.00121388958219
C           -2.98198905926547        0.37303281501183        2.24061670269342
C           -3.70308478555063        1.06433773696609        3.19461700043930
C           -5.01015000420534        1.47501906651510        2.96226753556970
C           -5.82660453737578        2.26932525306430        3.96878167840131
C           -7.10699751650609        1.49375478054345        4.30867407708146
C           -5.06594607757260        2.52682141330903        5.27230190182745
C           -6.18959684804326        3.62757857502798        3.35069236207084
C           -5.56983521196838        1.14599564941601        1.72899673923962
C           -4.85999918856932        0.46397651007595        0.76409894576228
C           -0.46436792165475       -1.33519605069921        0.00634142127031
C           -0.85646615095060       -2.68981039951875        0.14684733818423
C            0.05604380723697       -3.69774551034970        0.15870282526817
C            1.43717481011331       -3.44741860206115       -0.02784259652628
C            2.41194167768061       -4.61191012677946       -0.02680826913624
C            2.36409003533852       -5.27187694715412        1.35895791640874
C            2.00866473158794       -5.62540802478881       -1.10604008817155
C            3.85491693059522       -4.17386405664137       -0.29340835363686
C            1.83618084956713       -2.14865074498530       -0.15521038847886
C            0.93270287851595       -1.05958970819652       -0.07183885910191
C            4.85649249457140       -0.47248520414974        0.75946513550701
C            5.56693813915020       -1.15788142605823        1.72146716175202
H            6.77193015138155       -3.52308298102075        2.43101849219322
H            5.27917074411849       -4.19373335798722        3.08421152989576
H            6.76271889237311       -4.23975464635005        4.04115800352610
H            4.16401783366781       -3.12236826983698        5.08400873413065
H            5.69954304892092       -3.11219452891870        5.94354562681198
H            4.80230430813383       -1.60977463246889        5.75154102482883
H            7.69529863203408       -2.06360149634731        5.02962757787707
H            6.86122809782128       -0.53972663984388        4.71077482752500
H            7.72466329863065       -1.36297676013469        3.41379684123983
H            3.21745267954384       -1.29764682926930        4.12725082778201
H            1.96362952516682       -0.08521986636416        2.44804167524513
H            1.91726808134743        0.83771821069088       -2.46375020634290
H            2.85788705224717        2.30766090168898       -4.15216501713177
H            6.16291898907184        2.39622376741152       -4.90062124711981
H            4.56042983964554        2.57565440116648       -5.61082450128612
H            5.82201161025440        3.74702892056788       -5.98633929442867
H            5.96383505793986        5.42781429828723       -2.70317255610886
H            6.57129035655597        5.39805219349511       -4.35461466822488
H            7.02310369883178        4.11224541000447       -3.24089539493797
H            3.03151187044405        4.46523860117901       -4.82321020268066
H            3.58851467713541        5.57568251553953       -3.57453861300853
H            4.28781867696272        5.64401116864597       -5.19540738988309
H            5.83274302926264        3.59596229701413       -1.36375062266441
H            4.87359372509810        2.15285497993856        0.32313198188379
H            1.90042961979832        2.91653535727852        0.28354801299912
H            0.28698678854976        4.70612442692123        0.32521441752386
H           -2.62237827624414        4.53892595924436        2.15333138839179
H           -3.06483885737221        6.09485251750522        1.43922049221256
H           -1.36719219945699        5.64987360462489        1.60665438277526
H           -3.95489088714866        3.69541166473589       -1.23165769739994
H           -4.50957447809180        5.04443292075946       -0.24578272915128
H           -4.20540474100114        3.48297203082278        0.50946660251020
H           -1.01954859697555        6.01880684406542       -0.90749683667507
H           -2.71580194603774        6.45830613637765       -1.08427725912820
H           -2.03370209392324        5.15334644686266       -2.05947734456837
H           -2.87662173931928        1.91708422958257       -0.30572912832381
H           -1.91943225263633       -0.82256297941020       -2.46646837962407
H           -2.85679512338413       -2.28249925768671       -4.16516552813278
H           -3.02616515780856       -4.43688571671954       -4.84894055617765
H           -3.58432347365952       -5.55666445601133       -3.60915423383636
H           -4.28096903120963       -5.61391459012708       -5.23158900402560
H           -7.02005085499694       -4.09815421603447       -3.26920667853794
H           -6.56610688676616       -5.37606770314707       -4.39113844104242
H           -5.96015454557852       -5.41641467455091       -2.73936610146942
H           -6.16041715097786       -2.37111039655248       -4.91745001867142
H           -4.55670178497101       -2.54350599329897       -5.62658838983889
H           -5.81595713281178       -3.71432207501644       -6.01143814565625
H           -5.83136088659294       -3.59373625749000       -1.38709944387651
H           -4.87548190440781       -2.16050802346895        0.30987001236731
H           -1.96560813181685        0.07220899156608        2.44901363836651
H           -3.21830601542004        1.27874223492150        4.13308564280730
H           -6.85647491486046        0.51913874555218        4.72267301901454
H           -7.72421455455602        1.34109535518224        3.42773967679759
H           -7.69347255156478        2.04089656387429        5.04398197982128
H           -4.79889035665548        1.59219062476886        5.76017659796960
H           -5.69637351645864        3.09417528867700        5.95424133886505
H           -4.16271181825562        3.10508791851321        5.09135045493564
H           -6.76838145859943        4.21931484733237        4.05695004873267
H           -5.28618714057312        4.17893591932117        3.09767736152818
H           -6.77825693991211        3.50574317891635        2.44550179597286
H           -6.58170964523894        1.44390048614036        1.49759737389378
H           -5.31613346708727        0.25847209172532       -0.19354558291038
H           -1.90321827826323       -2.92046145214435        0.27003728956554
H           -0.28981422879698       -4.71048766354805        0.30003303098264
H            1.37115893761099       -5.65229821644112        1.58331900102238
H            3.06672964022636       -6.10152018840947        1.40492810493709
H            2.63255361792415       -4.54552427588321        2.12406032218532
H            1.01320170216897       -6.02290151026419       -0.92892454728248
H            2.70905686024594       -6.45803817146746       -1.11822895745576
H            2.01741771829239       -5.15257348490210       -2.08597917839604
H            4.50438164888362       -5.04722028204395       -0.29030930496451
H            3.94403947821407       -3.69192156917584       -1.26440406266819
H            4.20647735190196       -3.49013325216140        0.47628283022301
H            2.87338444377999       -1.91812665860604       -0.31819059404793
H            5.31178691937850       -0.26400526833068       -0.19794693494424
H            6.57838847692135       -1.45568775858074        1.48812687323757

          :  Hamiltonian                  GFN2-xTB          :
         :: gradient norm              0.000063156415 Eh/a0 ::
         :: HOMO-LUMO gap              1.640469275582 eV    ::
         :: SCC energy              -180.577676012328 Eh    ::
         :: -> dispersion             -0.186768145549 Eh    ::
         :: repulsion energy           3.072661943279 Eh    ::

    * Orbital Energies and Occupations

         #    Occupation            Energy/Eh            Energy/eV
      -------------------------------------------------------------
         1        2.0000           -0.6554232             -17.8350
       ...           ...                  ...                  ...
       155        2.0000           -0.4035361             -10.9808
       156        2.0000           -0.3998584             -10.8807
       157        2.0000           -0.3970132             -10.8033
       158        2.0000           -0.3952265             -10.7547
       159        2.0000           -0.3932316             -10.7004
       160        2.0000           -0.3928853             -10.6910
       161        2.0000           -0.3926338             -10.6841
       162        2.0000           -0.3877628             -10.5516
       163        2.0000           -0.3840714             -10.4511
       164        2.0000           -0.3805123             -10.3543
       165        2.0000           -0.3591379              -9.7726
       166        2.0000           -0.3435722              -9.3491
       167        2.0000           -0.3291447              -8.9565 (HOMO)
       168                         -0.2688586              -7.3160 (LUMO)
       169                         -0.2232523              -6.0750
       170                         -0.2184993              -5.9457
       171                         -0.2176518              -5.9226
       172                         -0.2136261              -5.8131
       173                         -0.2126785              -5.7873
       174                         -0.2103231              -5.7232
       175                         -0.2101634              -5.7188
       176                         -0.2086575              -5.6779
       177                         -0.1965844              -5.3493
       178                         -0.1928309              -5.2472
       ...                                ...                  ...
       332                          0.7198480              19.5881
      -------------------------------------------------------------
                  HL-Gap            0.0602861 Eh            1.6405 eV

     #   Z          covCN         q      C6AA      α(0)
     1   6 C        3.762    -0.104    22.541     6.768
     2   6 C        3.903     0.026    20.086     6.371
     3   6 C        3.761    -0.106    22.575     6.773
     4   6 C        3.761    -0.105    22.548     6.769
     5   6 C        2.973    -0.003    28.094     8.694
     6   6 C        2.925    -0.040    28.988     8.829
     7   6 C        2.923    -0.052    29.281     8.874
     8   6 C        2.923     0.064    26.569     8.453
     9   7 N        2.751    -0.072    22.646     7.068
    10   6 C        2.922     0.063    26.585     8.455
    11   6 C        2.922    -0.052    29.281     8.874
    12   6 C        2.927    -0.035    28.880     8.813
    13   6 C        2.973    -0.002    28.075     8.691
    14   6 C        3.903     0.026    20.086     6.371
    15   6 C        3.762    -0.105    22.548     6.769
    16   6 C        3.761    -0.106    22.581     6.774
    17   6 C        3.762    -0.105    22.547     6.769
    18   6 C        2.925    -0.041    29.013     8.833
    19   6 C        2.921    -0.054    29.340     8.883
    20   6 C        2.925     0.042    27.067     8.532
    21   6 C        2.982    -0.007    28.183     8.708
    22   6 C        2.915    -0.037    28.929     8.820
    23   6 C        2.922    -0.035    28.875     8.812
    24   6 C        2.970     0.007    27.868     8.659
    25   6 C        3.903     0.025    20.093     6.372
    26   6 C        3.763    -0.102    22.494     6.761
    27   6 C        3.761    -0.107    22.593     6.776
    28   6 C        3.761    -0.104    22.540     6.768
    29   6 C        2.926    -0.048    29.183     8.859
    30   6 C        2.982    -0.007    28.177     8.707
    31   6 C        2.925     0.042    27.067     8.532
    32   7 N        2.751    -0.072    22.646     7.068
    33   6 C        2.922     0.063    26.585     8.455
    34   6 C        2.922    -0.052    29.281     8.874
    35   6 C        2.927    -0.035    28.880     8.813
    36   6 C        2.972    -0.002    28.074     8.691
    37   6 C        3.903     0.026    20.086     6.371
    38   6 C        3.762    -0.105    22.547     6.769
    39   6 C        3.761    -0.106    22.581     6.774
    40   6 C        3.762    -0.105    22.548     6.769
    41   6 C        2.925    -0.041    29.013     8.833
    42   6 C        2.921    -0.054    29.339     8.883
    43   6 C        2.923     0.064    26.569     8.453
    44   6 C        2.923    -0.052    29.282     8.874
    45   6 C        2.925    -0.040    28.988     8.829
    46   6 C        2.972    -0.003    28.095     8.694
    47   6 C        3.903     0.026    20.086     6.371
    48   6 C        3.761    -0.105    22.548     6.769
    49   6 C        3.761    -0.106    22.574     6.773
    50   6 C        3.762    -0.104    22.541     6.768
    51   6 C        2.927    -0.037    28.920     8.819
    52   6 C        2.920    -0.053    29.321     8.880
    53   6 C        2.982    -0.007    28.183     8.708
    54   6 C        2.915    -0.037    28.929     8.820
    55   6 C        2.922    -0.035    28.875     8.812
    56   6 C        2.970     0.007    27.868     8.659
    57   6 C        3.903     0.025    20.093     6.372
    58   6 C        3.763    -0.102    22.493     6.760
    59   6 C        3.761    -0.104    22.540     6.768
    60   6 C        3.761    -0.107    22.593     6.776
    61   6 C        2.926    -0.048    29.183     8.859
    62   6 C        2.982    -0.007    28.177     8.707
    63   6 C        2.920    -0.053    29.320     8.880
    64   6 C        2.927    -0.037    28.920     8.819
    65   1 H        0.925     0.035     2.510     2.478
    66   1 H        0.925     0.034     2.530     2.487
    67   1 H        0.925     0.035     2.519     2.482
    68   1 H        0.925     0.034     2.525     2.485
    69   1 H        0.925     0.034     2.524     2.484
    70   1 H        0.925     0.035     2.520     2.482
    71   1 H        0.925     0.035     2.517     2.481
    72   1 H        0.925     0.033     2.548     2.496
    73   1 H        0.925     0.036     2.508     2.476
    74   1 H        0.926     0.033     2.538     2.491
    75   1 H        0.926     0.025     2.664     2.553
    76   1 H        0.926     0.025     2.658     2.550
    77   1 H        0.926     0.027     2.626     2.534
    78   1 H        0.925     0.033     2.549     2.497
    79   1 H        0.925     0.036     2.508     2.476
    80   1 H        0.925     0.035     2.515     2.480
    81   1 H        0.925     0.035     2.518     2.481
    82   1 H        0.925     0.034     2.525     2.485
    83   1 H        0.925     0.035     2.517     2.481
    84   1 H        0.925     0.036     2.505     2.475
    85   1 H        0.925     0.033     2.547     2.496
    86   1 H        0.925     0.035     2.514     2.480
    87   1 H        0.926     0.034     2.531     2.488
    88   1 H        0.926     0.028     2.614     2.528
    89   1 H        0.926     0.032     2.565     2.504
    90   1 H        0.926     0.027     2.628     2.535
    91   1 H        0.925     0.032     2.560     2.502
    92   1 H        0.925     0.036     2.507     2.476
    93   1 H        0.925     0.036     2.506     2.476
    94   1 H        0.925     0.034     2.527     2.486
    95   1 H        0.925     0.035     2.516     2.480
    96   1 H        0.925     0.038     2.469     2.457
    97   1 H        0.925     0.036     2.502     2.474
    98   1 H        0.925     0.036     2.508     2.477
    99   1 H        0.925     0.033     2.537     2.491
   100   1 H        0.926     0.042     2.428     2.436
   101   1 H        0.926     0.025     2.658     2.550
   102   1 H        0.926     0.027     2.626     2.534
   103   1 H        0.925     0.036     2.505     2.475
   104   1 H        0.925     0.033     2.547     2.496
   105   1 H        0.925     0.035     2.514     2.480
   106   1 H        0.925     0.035     2.517     2.481
   107   1 H        0.925     0.034     2.525     2.485
   108   1 H        0.925     0.035     2.518     2.481
   109   1 H        0.925     0.033     2.549     2.497
   110   1 H        0.925     0.036     2.508     2.476
   111   1 H        0.925     0.035     2.515     2.480
   112   1 H        0.926     0.034     2.531     2.488
   113   1 H        0.926     0.028     2.613     2.528
   114   1 H        0.926     0.025     2.665     2.553
   115   1 H        0.926     0.033     2.538     2.491
   116   1 H        0.925     0.033     2.548     2.496
   117   1 H        0.925     0.036     2.508     2.476
   118   1 H        0.925     0.035     2.517     2.481
   119   1 H        0.925     0.035     2.520     2.482
   120   1 H        0.925     0.034     2.524     2.484
   121   1 H        0.925     0.034     2.525     2.485
   122   1 H        0.925     0.035     2.520     2.482
   123   1 H        0.925     0.034     2.529     2.487
   124   1 H        0.925     0.035     2.510     2.478
   125   1 H        0.926     0.027     2.626     2.534
   126   1 H        0.926     0.028     2.610     2.527
   127   1 H        0.926     0.032     2.564     2.504
   128   1 H        0.926     0.027     2.628     2.535
   129   1 H        0.925     0.036     2.507     2.476
   130   1 H        0.925     0.036     2.507     2.476
   131   1 H        0.925     0.032     2.560     2.502
   132   1 H        0.925     0.036     2.502     2.474
   133   1 H        0.925     0.036     2.509     2.477
   134   1 H        0.925     0.033     2.537     2.491
   135   1 H        0.925     0.035     2.516     2.480
   136   1 H        0.925     0.034     2.527     2.486
   137   1 H        0.925     0.038     2.470     2.458
   138   1 H        0.926     0.042     2.428     2.436
   139   1 H        0.926     0.028     2.610     2.526
   140   1 H        0.926     0.027     2.625     2.534

molecular dipole:
                 x           y           z       tot (Debye)
 q only:        0.002      -0.001      -0.012
   full:        0.002      -0.001      -0.009       0.022

 projected vibrational frequencies (cm⁻¹)
eigval :       -0.00    -0.00    -0.00     0.00     0.00     0.00
eigval :        7.52     9.39    14.54    17.54    21.07    22.27
eigval :       23.76    25.69    27.42    28.16    31.48    31.95
eigval :       33.51    37.63    42.98    60.41    61.00    71.43
eigval :       72.74    77.83    79.39    87.12    91.77    93.18
eigval :      107.72   111.11   132.77   141.40   148.84   151.71
eigval :      160.28   161.47   170.88   171.93   173.77   179.68
eigval :      179.97   180.07   183.33   183.98   192.38   194.66
eigval :      214.76   217.05   222.22   222.38   223.67   223.78
eigval :      225.43   225.79   228.15   235.77   243.82   249.95
eigval :      260.21   262.92   268.64   282.16   285.98   307.68
eigval :      310.18   313.76   313.93   315.03   315.13   319.43
eigval :      324.96   327.86   330.06   333.77   337.62   338.25
eigval :      343.61   345.06   358.45   359.09   362.43   362.57
eigval :      366.13   381.44   381.65   385.63   386.73   388.68
eigval :      389.91   393.55   395.29   403.08   407.82   413.61
eigval :      416.25   425.98   429.01   431.36   441.47   448.59
eigval :      448.72   454.22   458.36   458.37   463.02   463.84
eigval :      478.92   485.76   492.39   512.60   531.26   533.55
eigval :      535.31   535.63   546.50   557.55   572.47   577.01
eigval :      588.58   589.20   608.39   608.77   608.94   609.64
eigval :      632.09   634.93   642.20   642.91   683.49   683.67
eigval :      683.99   684.60   698.26   700.14   708.09   725.44
eigval :      726.12   730.91   734.19   782.55   808.56   809.30
eigval :      810.69   815.58   818.08   819.83   833.04   856.08
eigval :      864.93   865.28   867.05   870.38   871.99   873.12
eigval :      873.14   874.80   877.70   887.67   889.13   906.75
eigval :      910.52   910.78   915.37   915.40   920.60   920.82
eigval :      924.43   924.49   934.00   934.37   934.62   934.71
eigval :      959.96   960.05   960.05   960.14   960.16   961.46
eigval :      962.51   962.54   962.69   962.72   962.80   962.83
eigval :      962.86   962.90   962.95   963.50   963.92   964.02
eigval :      970.83   991.44  1002.09  1003.84  1025.78  1026.42
eigval :     1034.97  1035.00  1035.19  1035.22  1035.31  1035.35
eigval :     1035.69  1035.70  1035.82  1035.84  1036.85  1037.39
eigval :     1078.32  1138.65  1145.19  1146.23  1146.25  1146.51
eigval :     1146.53  1147.48  1154.37  1154.72  1157.68  1159.62
eigval :     1167.30  1200.63  1211.76  1212.42  1214.92  1216.27
eigval :     1226.84  1227.40  1227.48  1227.57  1227.73  1227.77
eigval :     1232.07  1233.29  1234.24  1234.34  1234.47  1234.50
eigval :     1249.67  1254.13  1265.20  1266.00  1272.39  1280.61
eigval :     1281.06  1281.41  1286.59  1287.47  1287.59  1290.12
eigval :     1290.16  1299.81  1303.95  1319.53  1321.77  1322.04
eigval :     1327.19  1327.64  1341.96  1342.87  1345.31  1351.76
eigval :     1395.79  1400.91  1401.35  1403.18  1403.28  1404.55
eigval :     1404.60  1405.74  1405.75  1405.83  1405.84  1406.91
eigval :     1407.38  1412.57  1412.75  1417.40  1419.04  1421.95
eigval :     1429.21  1429.27  1429.38  1429.40  1429.76  1429.79
eigval :     1430.68  1458.39  1467.63  1488.33  1489.76  1490.58
eigval :     1490.88  1492.31  1492.31  1492.48  1492.49  1492.67
eigval :     1492.69  1494.87  1494.93  1495.31  1495.31  1495.82
eigval :     1495.85  1502.06  1502.24  1503.26  1503.48  1503.70
eigval :     1503.76  1506.10  1506.53  1507.07  1507.34  1507.34
eigval :     1507.53  1514.58  1514.64  1514.98  1515.00  1515.77
eigval :     1515.87  1519.69  1519.71  1520.37  1520.47  1520.49
eigval :     1521.86  1524.64  1526.73  1536.25  1561.91  1562.21
eigval :     1568.07  1568.27  1604.80  1605.29  1607.50  1608.58
eigval :     1611.83  1624.36  3019.73  3019.75  3020.50  3020.52
eigval :     3020.58  3020.63  3021.18  3021.20  3021.65  3021.67
eigval :     3021.88  3021.92  3023.85  3023.92  3026.23  3026.24
eigval :     3026.45  3026.46  3028.69  3028.70  3029.01  3029.03
eigval :     3029.18  3029.28  3029.54  3029.86  3030.54  3030.55
eigval :     3030.58  3030.64  3034.58  3034.67  3035.00  3035.06
eigval :     3035.30  3035.34  3036.95  3037.10  3038.05  3038.07
eigval :     3038.13  3038.24  3044.31  3044.48  3045.64  3045.71
eigval :     3046.97  3046.98  3049.28  3049.33  3049.51  3049.53
eigval :     3050.43  3050.49  3074.86  3074.94  3075.56  3075.86
eigval :     3078.39  3078.47  3081.06  3081.66  3082.80  3082.93
eigval :     3087.75  3087.87  3088.34  3088.75  3103.28  3103.37
eigval :     3110.77  3110.86  3111.77  3112.00  3152.50  3152.53

   temp. (K)  partition function   enthalpy   heat capacity  entropy
                                   cal/mol     cal/K/mol   cal/K/mol   J/K/mol
 298.15  VIB  0.491E+32            40219.992    242.421    249.974
         ROT  0.934E+08              888.752      2.981     39.451
         INT  0.459E+40            41108.744    245.402    289.426
         TR   0.239E+29             1481.254      4.968     46.074
         TOT                       42589.9981   250.3699   335.4994  1403.7295

       T/K    H(0)-H(T)+PV         H(T)/Eh          T*S/Eh         G(T)/Eh
   ------------------------------------------------------------------------
    298.15    0.678715E-01    0.126883E+01    0.159407E+00    0.110942E+01
   ------------------------------------------------------------------------

         :::::::::::::::::::::::::::::::::::::::::::::::::::::
         ::                  THERMODYNAMIC                  ::
         :::::::::::::::::::::::::::::::::::::::::::::::::::::
         :: total free energy        -176.395591544375 Eh   ::
         ::.................................................::
         :: total energy             -177.505014069045 Eh   ::
         :: zero point energy           1.200957632443 Eh   ::
         :: G(RRHO) w/o ZPVE           -0.091535107773 Eh   ::
         :: G(RRHO) contrib.            1.109422524670 Eh   ::
         :::::::::::::::::::::::::::::::::::::::::::::::::::::

           -------------------------------------------------
          | TOTAL ENERGY             -177.505014069045 Eh   |
          | TOTAL ENTHALPY           -176.236184954396 Eh   |
          | TOTAL FREE ENERGY        -176.395591544375 Eh   |
          | GRADIENT NORM               0.000063160312 Eh/α |
          | HOMO-LUMO GAP               1.640469226894 eV   |
           -------------------------------------------------

 * finished run on 2025/09/10 at 23:36:19.152
