   * xtb version 6.7.1 (edcfbbe) compiled by 'albert@albert-system' on 2024-07-22

   ID    Z sym.   atoms
    1    6 C      1-8, 10-31, 33-64
    2    7 N      9, 32
    3    1 H      65-140

          program call               : xtb data2507/gas/6tBPA/6tBPA_gas_S0_finalOpt.xtbopt.xyz --gfn 2 --spinpol --tblite --uhf 2 --ohess vtight --parallel 40 --molden --ceasefiles --namespace data2507/gas/6tBPA/6tBPA_gas_T1_preOpt
 * total energy  :  -177.4426979 Eh     change       -0.6170865E-07 Eh
 * total energy  :  -177.4472546 Eh     change       -0.4556692E-02 Eh
 * total energy  :  -177.4484579 Eh     change       -0.1203292E-02 Eh
 * total energy  :  -177.4485606 Eh     change       -0.1027300E-03 Eh
 * total energy  :  -177.4486186 Eh     change       -0.5801646E-04 Eh
 * total energy  :  -177.4486330 Eh     change       -0.1443355E-04 Eh
 * total energy  :  -177.4486463 Eh     change       -0.1325177E-04 Eh
 * total energy  :  -177.4486523 Eh     change       -0.6035819E-05 Eh
 * total energy  :  -177.4486567 Eh     change       -0.4403707E-05 Eh
 * total energy  :  -177.4486583 Eh     change       -0.1560339E-05 Eh
 * total energy  :  -177.4486933 Eh     change       -0.1115954E-05 Eh
 * total energy  :  -177.4486943 Eh     change       -0.9700070E-06 Eh
 * total energy  :  -177.4486952 Eh     change       -0.9205420E-06 Eh
 * total energy  :  -177.4486961 Eh     change       -0.8903758E-06 Eh
 * total energy  :  -177.4486969 Eh     change       -0.8013800E-06 Eh
 * total energy  :  -177.4486978 Eh     change       -0.8713551E-06 Eh
 * total energy  :  -177.4486976 Eh     change        0.1559635E-06 Eh
 * total energy  :  -177.4486978 Eh     change       -0.1705225E-06 Eh
 * total energy  :  -177.4486978 Eh     change       -0.1268234E-08 Eh
   *** GEOMETRY OPTIMIZATION CONVERGED AFTER 46 ITERATIONS ***

 final structure:
================
140
 xtb: 6.7.1 (edcfbbe)
C            6.20548957946182       -3.67114394450942        3.28197823564084
C            5.84273515242057       -2.32053229286955        3.91680331131814
C            5.08911878504573       -2.59339659235411        5.22126330943184
C            7.12294033348662       -1.54511256312077        4.25836867003214
C            5.01976371619946       -1.51808651544973        2.92280161919106
C            3.71068277203586       -1.11670949739892        3.16516393079713
C            2.98405187830302       -0.41658426891684        2.22328152017690
C            3.54101217541416       -0.09512556056844        0.98647973094140
N            2.76224146837933        0.53780792692201        0.01956312629461
C            3.32813999223389        1.38553035367782       -0.92868104312468
C            2.77139261856329        1.47274045406377       -2.20567972475991
C            3.31344881061847        2.31875966920383       -3.14740053663575
C            4.42909840587268        3.10831186394780       -2.87207743871017
C            4.98917771465114        4.01928350365997       -3.95189861764239
C            5.40641735016157        3.16786669898950       -5.15970490906740
C            6.21311227006331        4.80988426967343       -3.48154384451656
C            3.90460228033247        5.02117783284415       -4.37252503316485
C            4.97380774552914        3.01674446403626       -1.59575350386424
C            4.43670882610925        2.17948678751973       -0.63766299694484
C            1.38613674183933        0.27196893471466       -0.02376448057125
C            0.45868448536967        1.35880907113857        0.00273925329238
C            0.85378896152231        2.69273295048210        0.12517573061208
C           -0.06920522520212        3.72907895525678        0.13875567765705
C           -1.42469358736759        3.48540203622345       -0.02368849995143
C           -2.41894623508251        4.63400697148150       -0.00311458998050
C           -2.38124950783679        5.27151890908972        1.39375007007633
C           -3.85649335678772        4.18406054580931       -0.28013731438673
C           -2.03132578275277        5.67470847076475       -1.06237431389282
C           -1.82937846758867        2.15608028336420       -0.13435808736035
C           -0.93638747968128        1.08577520791686       -0.05316546654394
C           -1.38769969503897       -0.27332829063312       -0.02513879151271
N           -2.76380033528837       -0.53951962402227        0.01647402023636
C           -3.32931553524181       -1.38179897650416       -0.93684247289707
C           -2.77190220720932       -1.46170366580114       -2.21403010492032
C           -3.31337930340354       -2.30240103625256       -3.16081745787130
C           -4.42912621104815       -3.09355595040325       -2.89058853245577
C           -4.98840642345191       -3.99854736383073       -3.97582805098843
C           -3.90358482414157       -4.99833797920540       -4.40082984966540
C           -6.21292106339762       -4.79145438344277       -3.51088272348819
C           -5.40439320307776       -3.14061656279811       -5.17946210116760
C           -4.97455128057272       -3.00923472277351       -1.61407889474420
C           -4.43801411455658       -2.17741332105173       -0.65093523109288
C           -3.54274426356638        0.08816686269790        0.98664788146127
C           -2.98578916422473        0.40317683246009        2.22511498397581
C           -3.71218174643795        1.09894131422028        3.17038582098567
C           -5.02106165230422        1.50208674299088        2.92989924673066
C           -5.84354770347940        2.30045296837276        3.92756922080904
C           -7.12378157978618        1.52384052584630        4.26631169204567
C           -5.08939873675498        2.56773345574077        5.23288679817389
C           -6.20629484455323        3.65382753230526        3.29862702533701
C           -5.57672895358756        1.16088567119501        1.69720116948206
C           -4.86234605160502        0.47277778733821        0.74071738835401
C           -0.46025646395175       -1.36027846339147       -0.00463956358100
C           -0.85533940178351       -2.69484570794804        0.11068899058387
C            0.06768464950105       -3.73125324240093        0.11839174810598
C            1.42311209649958       -3.48669269194197       -0.04316976737174
C            2.41741866597893       -4.63534634130739       -0.02921131298727
C            2.38144319921049       -5.27930326692025        1.36474031571526
C            2.02859504543874       -5.67118464283056       -1.09279024119518
C            3.85460050058629       -4.18403199897787       -0.30595521158213
C            1.82778504809426       -2.15676639009828       -0.14652353549625
C            0.93480013077666       -1.08694331240562       -0.05925277542010
C            4.86064358079343       -0.47837849875857        0.73858729389684
C            5.57524298703178       -1.17094450631915        1.69167006030257
H            6.79089604768955       -3.53842741658578        2.37621544371175
H            5.30201843646706       -4.22085572901966        3.02599027524685
H            6.78746464516640       -4.26965310903460        3.97976802948307
H            4.18790095180569       -3.17431939854760        5.03915726641350
H            5.72533414106905       -3.16412320068988        5.89488962752151
H            4.82025996683226       -1.66458163853341        5.71920527298344
H            7.71347529866614       -2.09832337916257        4.98573739789042
H            6.87221276350948       -0.57523059904221        4.68322295580518
H            7.73645099895885       -1.38254621283682        3.37663981797737
H            3.23095321387293       -1.34584384819627        4.10258822830817
H            1.96830823061813       -0.11752514868221        2.43598826647314
H            1.91285336338024        0.86399057987540       -2.44830912747989
H            2.85432525766300        2.35398043083032       -4.12381050797539
H            6.16127020342880        2.44169474880723       -4.86483840441228
H            4.55993760769975        2.62881810794273       -5.57576159998448
H            5.82325436434666        3.80182740302213       -5.93956980925338
H            5.96351723507048        5.45529046649837       -2.64256039908330
H            6.57206841877307        5.43917752909800       -4.29360062500204
H            7.02193225677201        4.14326587776536       -3.19110935611216
H            3.03209355987644        4.51434575730540       -4.77506379082250
H            3.58840342382641        5.61350524612615       -3.51635996121850
H            4.29064632199991        5.69427208913786       -5.13531479645908
H            5.82928049943193        3.61169779371151       -1.32009278206999
H            4.86725686314444        2.15252242008821        0.35310330674098
H            1.89967774629527        2.93675156478875        0.22603585956992
H            0.29912608622401        4.73572608709994        0.26656740454506
H           -2.63882008412855        4.52860812310721        2.14673937492479
H           -3.09415187115087        6.09172287284963        1.45502221642684
H           -1.39173563938863        5.65860662388238        1.62195246760986
H           -3.93498123850953        3.70414344013681       -1.25317619552875
H           -4.51350419944384        5.05208159481923       -0.27871419375146
H           -4.20849886937555        3.49584247018317        0.48536344148734
H           -1.04236220353198        6.08318832423669       -0.87503625531979
H           -2.74429033647899        6.49696110618721       -1.06007816327348
H           -2.03075485678300        5.22045158102278       -2.05109161435306
H           -2.87309737469186        1.93795984054394       -0.26662558828883
H           -1.91328340941274       -0.85152453507713       -2.45275124747623
H           -2.85369518590173       -2.33206970932422       -4.13715476354203
H           -3.03057495130023       -4.48945646699028       -4.79969674291165
H           -3.58834677733451       -5.59538293159537       -3.54758710144184
H           -4.28896345496789       -5.66718811566412       -5.16766967867233
H           -7.02182778778350       -4.12625232000606       -3.21743622684635
H           -6.57133888677859       -5.41616185231461       -4.32670109461053
H           -5.96419088497392       -5.44155471332523       -2.67526846160523
H           -6.15932931133663       -2.41583197820447       -4.88140766205360
H           -4.55743178950926       -2.59957632303145       -5.59194181150433
H           -5.82070312373348       -3.77032421346746       -5.96304562519842
H           -5.83017725381992       -3.60575192994874       -1.34228278507067
H           -4.86909624010115       -2.15611296548968        0.33973509699032
H           -1.97015126915859        0.10272939644771        2.43637608622673
H           -3.23239034396286        1.32330410250101        4.10893759464753
H           -6.87309181953060        0.55222263220199        4.68720686972565
H           -7.73749058361366        1.36489669260593        3.38405201178322
H           -7.71408449801893        2.07420078453365        4.99602354616891
H           -4.82075500860008        1.63681918392771        5.72701761274653
H           -5.72514760764453        3.13601080670031        5.90900722037501
H           -4.18798846097078        3.14900575881498        5.05281346088585
H           -6.78786366733044        4.24947767362316        3.99919066159466
H           -5.30281713223636        4.20444810840263        3.04462280317321
H           -6.79210266543288        3.52510655568632        2.39254353812383
H           -6.58862654923442        1.45436150119390        1.46089147208327
H           -5.31260606898140        0.26038155246436       -0.21820347172803
H           -1.90119484620183       -2.93940059635537        0.21053021836262
H           -0.30060706535621       -4.73856375674328        0.24090027656353
H            1.39214583027489       -5.66729084899539        1.59238905617316
H            3.09431684242098       -6.09986773280385        1.42131524345613
H            2.64006828421137       -4.53990022039750        2.12081358283951
H            1.04009145596279       -6.08098493976931       -0.90589972128291
H            2.74187940010942       -6.49315418839768       -1.09544823808487
H            2.02634792614743       -5.21226920687196       -2.07935092115802
H            4.51155528350884       -5.05208141606039       -0.31004148644335
H            3.93167109932370       -3.69901388363768       -1.27658043433938
H            4.20779550799085       -3.49987737573561        0.46264015759088
H            2.87147584590665       -1.93788313448863       -0.27776334014619
H            5.31081266327457       -0.26116506645578       -0.21930304470522
H            6.58717955395471       -1.46307585193853        1.45388091292094

 projected vibrational frequencies (cm⁻¹)
eigval :       -0.00    -0.00    -0.00     0.00     0.00     0.00
eigval :        7.05     8.10    14.30    16.99    20.66    21.93
eigval :       23.59    26.07    27.15    28.37    30.07    31.95
eigval :       32.28    34.91    38.83    58.85    61.14    72.60
eigval :       72.93    79.01    79.06    87.57    92.02    94.08
eigval :      107.98   111.85   132.57   139.42   140.92   148.89
eigval :      159.69   161.88   170.47   171.70   174.83   178.96
eigval :      179.57   179.60   181.79   182.81   193.08   193.26
eigval :      216.51   218.10   221.17   222.77   223.53   223.98
eigval :      227.11   228.23   231.33   237.46   244.80   253.34
eigval :      261.28   264.10   268.72   281.02   286.16   308.50
eigval :      309.49   311.12   313.99   314.20   315.34   315.35
eigval :      323.74   327.92   329.35   329.89   335.86   337.73
eigval :      341.04   345.39   358.24   358.84   362.23   362.63
eigval :      365.49   376.07   381.89   383.03   385.48   390.25
eigval :      390.32   393.26   396.64   401.81   408.59   411.08
eigval :      415.43   423.90   424.99   426.67   432.80   438.70
eigval :      451.83   453.06   457.69   458.27   465.59   467.04
eigval :      475.96   485.21   487.33   508.24   529.50   533.61
eigval :      534.93   535.60   543.65   555.20   566.11   571.37
eigval :      586.36   588.60   605.90   607.62   608.01   608.24
eigval :      608.94   622.54   633.95   635.68   676.60   684.00
eigval :      684.27   684.91   685.60   694.42   698.97   713.80
eigval :      724.03   725.19   731.45   783.95   798.63   799.16
eigval :      809.16   809.62   810.26   816.57   829.49   829.88
eigval :      832.22   852.56   862.78   863.14   866.74   870.56
eigval :      870.74   873.62   876.28   886.24   888.11   888.42
eigval :      888.69   907.57   910.23   910.39   915.03   915.11
eigval :      923.88   923.94   931.24   931.48   933.27   933.34
eigval :      959.05   959.63   959.64   959.85   959.93   960.14
eigval :      961.58   961.91   962.15   962.19   962.27   962.32
eigval :      962.46   962.50   962.64   962.78   962.85   962.91
eigval :      970.96   997.98  1003.53  1004.76  1023.59  1025.56
eigval :     1034.30  1034.34  1034.38  1034.46  1034.72  1034.74
eigval :     1034.95  1034.95  1035.21  1035.24  1036.64  1038.09
eigval :     1074.59  1139.08  1144.06  1144.53  1144.67  1145.51
eigval :     1151.51  1152.15  1152.65  1155.32  1157.88  1163.18
eigval :     1163.41  1191.16  1206.98  1207.52  1208.29  1210.90
eigval :     1225.24  1225.35  1226.48  1226.50  1226.67  1226.70
eigval :     1232.14  1232.16  1233.26  1233.32  1233.53  1233.57
eigval :     1245.04  1248.33  1259.88  1271.55  1276.99  1277.32
eigval :     1278.77  1282.05  1284.73  1285.02  1286.91  1288.16
eigval :     1292.88  1294.70  1296.84  1297.90  1320.12  1320.72
eigval :     1325.16  1325.33  1325.80  1332.17  1334.75  1342.73
eigval :     1362.99  1363.51  1378.05  1393.28  1399.99  1400.26
eigval :     1401.75  1401.85  1402.19  1402.23  1404.29  1404.31
eigval :     1404.41  1404.51  1405.76  1407.03  1411.48  1411.70
eigval :     1419.06  1419.47  1425.44  1425.46  1425.90  1425.92
eigval :     1426.35  1426.39  1444.12  1474.91  1481.22  1481.34
eigval :     1483.77  1484.09  1490.34  1490.36  1490.83  1490.84
eigval :     1491.11  1491.14  1493.24  1493.35  1493.49  1493.55
eigval :     1495.60  1495.61  1498.15  1500.62  1500.91  1501.04
eigval :     1501.34  1502.06  1503.49  1503.95  1504.30  1504.40
eigval :     1504.88  1504.99  1507.69  1513.01  1513.02  1513.23
eigval :     1513.23  1515.35  1515.67  1518.34  1518.55  1518.58
eigval :     1518.70  1520.36  1524.49  1525.48  1542.90  1549.70
eigval :     1555.00  1555.19  1561.04  1561.13  1594.43  1594.75
eigval :     1600.43  1600.82  3015.14  3015.17  3016.78  3016.81
eigval :     3020.63  3020.65  3020.89  3020.93  3021.02  3021.06
eigval :     3022.23  3022.25  3022.47  3022.49  3024.37  3024.67
eigval :     3026.12  3026.15  3026.24  3026.27  3026.93  3026.94
eigval :     3029.19  3029.24  3029.32  3029.80  3029.80  3029.81
eigval :     3029.92  3029.94  3032.66  3032.73  3033.50  3033.63
eigval :     3034.79  3034.83  3035.00  3035.03  3036.78  3036.80
eigval :     3036.86  3037.05  3042.08  3042.14  3044.34  3044.38
eigval :     3046.22  3046.26  3048.26  3048.32  3048.48  3048.49
eigval :     3049.99  3050.04  3075.32  3075.39  3077.65  3077.79
eigval :     3078.83  3079.03  3080.02  3080.22  3083.31  3083.94
eigval :     3088.26  3088.51  3090.12  3090.70  3102.57  3102.67
eigval :     3111.53  3111.75  3113.32  3113.66  3156.67  3156.71

   temp. (K)  partition function   enthalpy   heat capacity  entropy
                                   cal/mol     cal/K/mol   cal/K/mol   J/K/mol
 298.15  VIB  0.931E+32            40361.657    243.219    250.938
         ROT  0.935E+08              888.752      2.981     39.454
         INT  0.870E+40            41250.409    246.199    290.392
         TR   0.239E+29             1481.254      4.968     46.074
         TOT                       42731.6634   251.1676   336.4655  1407.7716

       T/K    H(0)-H(T)+PV         H(T)/Eh          T*S/Eh         G(T)/Eh
   ------------------------------------------------------------------------
    298.15    0.680972E-01    0.126616E+01    0.159866E+00    0.110629E+01
   ------------------------------------------------------------------------

         :::::::::::::::::::::::::::::::::::::::::::::::::::::
         ::                  THERMODYNAMIC                  ::
         :::::::::::::::::::::::::::::::::::::::::::::::::::::
         :: total free energy        -176.342404838761 Eh   ::
         ::.................................................::
         :: total energy             -177.448697732326 Eh   ::
         :: zero point energy           1.198061263597 Eh   ::
         :: G(RRHO) w/o ZPVE           -0.091768370032 Eh   ::
         :: G(RRHO) contrib.            1.106292893565 Eh   ::
         :::::::::::::::::::::::::::::::::::::::::::::::::::::

           -------------------------------------------------
          | TOTAL ENERGY             -177.448697732326 Eh   |
          | TOTAL ENTHALPY           -176.182539228498 Eh   |
          | TOTAL FREE ENERGY        -176.342404838761 Eh   |
          | GRADIENT NORM               0.000098339257 Eh/α |
           -------------------------------------------------

 * finished run on 2025/09/10 at 23:36:43.109
