   * xtb version 6.7.1 (edcfbbe) compiled by 'albert@albert-system' on 2024-07-22

   ID    Z sym.   atoms
    1    6 C      1-8, 10-31, 33-64
    2    7 N      9, 32
    3    1 H      65-140

          program call               : xtb data2507/gas/6tBPA/6tBPA.xyz --gfn 2 --ohess vtight --parallel 40 --molden --ceasefiles --namespace data2507/gas/6tBPA/6tBPA_gas_S0_preOpt
          :  Hamiltonian                  GFN2-xTB          :
 * total energy  :  -177.4592663 Eh     change       -0.2713534E-08 Eh
 * total energy  :  -177.4808847 Eh     change       -0.2161834E-01 Eh
 * total energy  :  -177.4903202 Eh     change       -0.9435514E-02 Eh
 * total energy  :  -177.4948672 Eh     change       -0.4547051E-02 Eh
 * total energy  :  -177.4981721 Eh     change       -0.3304883E-02 Eh
 * total energy  :  -177.4996851 Eh     change       -0.1512992E-02 Eh
 * total energy  :  -177.5001585 Eh     change       -0.4734277E-03 Eh
 * total energy  :  -177.5003109 Eh     change       -0.1523232E-03 Eh
 * total energy  :  -177.5004108 Eh     change       -0.9991137E-04 Eh
 * total energy  :  -177.5005183 Eh     change       -0.1075230E-03 Eh
 * total energy  :  -177.5048015 Eh     change       -0.8149695E-06 Eh
 * total energy  :  -177.5048023 Eh     change       -0.8161353E-06 Eh
 * total energy  :  -177.5048031 Eh     change       -0.8188694E-06 Eh
 * total energy  :  -177.5048040 Eh     change       -0.8230351E-06 Eh
 * total energy  :  -177.5048048 Eh     change       -0.8284270E-06 Eh
 * total energy  :  -177.5048056 Eh     change       -0.8346834E-06 Eh
 * total energy  :  -177.5048065 Eh     change       -0.8419971E-06 Eh
 * total energy  :  -177.5048073 Eh     change       -0.8497336E-06 Eh
 * total energy  :  -177.5048073 Eh     change       -0.7207717E-08 Eh
   *** GEOMETRY OPTIMIZATION CONVERGED AFTER 700 ITERATIONS ***

 final structure:
================
140
 xtb: 6.7.1 (edcfbbe)
C            7.09735349734030       -4.36518930267469       -1.30473904695092
C            5.80518329215598       -4.08675897450968       -2.08529068047290
C            6.14674524484073       -3.55926154097900       -3.48656564508726
C            5.05140372175825       -5.40998302357921       -2.24345632937041
C            4.99087987866004       -3.03374319255310       -1.35142754748945
C            3.68666758799091       -3.24252482070532       -0.91978056606939
C            2.96880325583376       -2.24993322075302       -0.28150499929765
C            3.52989824638775       -0.99523410587415       -0.05622520546368
N            2.76257995042359        0.01727143706831        0.51852048071611
C            3.32842150633949        1.04345926072381        1.27229772073181
C            2.75744294685759        2.31354301195109        1.27047386488230
C            3.30308749724252        3.33538133785958        2.02323981468517
C            4.43824704002535        3.14042642609597        2.80047874744263
C            5.07974730721464        4.24113081483598        3.62993260522364
C            4.34672350105361        5.57914256740156        3.50124016658723
C            6.52760493570949        4.44348234767491        3.16068599341189
C            5.06618966665760        3.82883768827625        5.10871315373263
C            4.99471341902911        1.86266367961579        2.80385774805976
C            4.45608750372319        0.83080536084812        2.06572136788080
C            1.37460383591876        0.03945006215548        0.26113633292130
C            0.46702044183598        0.00205107443161        1.33243531462314
C            0.88290040703193       -0.11603243193978        2.68200165469280
C           -0.01542543317238       -0.15824887677384        3.70171467584756
C           -1.40665966386463       -0.03359091764600        3.46830456205173
C           -2.36517329301937       -0.08134571966311        4.64527988843772
C           -3.82778179089960        0.08106331359998        4.22128718011520
C           -2.02055283378580        1.04087803269416        5.63355447670800
C           -2.21951480571952       -1.44799562003880        5.33030916504460
C           -1.82719547753279        0.08838422563067        2.17570396508294
C           -0.93481801718736        0.04906216995021        1.07515420171631
C           -1.39919838789316        0.02377774493434       -0.25256673005013
N           -2.78635456013581       -0.01034013447926       -0.51237882440540
C           -3.35558210116924        1.00954377239791       -1.27330796245947
C           -2.79845801594561        2.28562543765399       -1.26562789762206
C           -3.34641405351125        3.30124443980393       -2.02517952127192
C           -4.47025729751126        3.09358083256848       -2.81540370214849
C           -5.11388349646715        4.18682308406992       -3.65302094466567
C           -5.07738676219302        3.77429813431576       -5.13135054557183
C           -6.56959643586966        4.37296313923143       -3.20172637788772
C           -4.39762372672962        5.53303579323286       -3.51576065128725
C           -5.01273410420018        1.80982361648720       -2.82458499479575
C           -4.47159549000927        0.78428254919745       -2.07952876507942
C           -3.55056652222658       -1.02336258040924        0.06483705336801
C           -2.97713550149190       -2.27043693859361        0.31335084229942
C           -3.69508128017094       -3.25650422589852        0.95432259737920
C           -5.01176099030979       -3.05902991428371        1.36506076369205
C           -5.74685601263759       -4.17126460027870        2.09514859972975
C           -7.18783735732989       -3.79341098901025        2.44871565583944
C           -5.78666450634501       -5.42250745022523        1.20667520334083
C           -4.99961598666807       -4.48281163121153        3.40003839610913
C           -5.58117578869832       -1.82045100187970        1.09382645553976
C           -4.87035970682461       -0.81803819021241        0.46218061066338
C           -0.49088484102229       -0.00239051861572       -1.32395964007903
C           -0.90376633765416       -0.12586639867113       -2.67401301389222
C           -0.00423165928147       -0.15352164684930       -3.69327715992139
C            1.38481045220178       -0.00743692237805       -3.45921677656587
C            2.34522678249113       -0.03730303549328       -4.63529317427436
C            3.80320076842803        0.16260559700711       -4.21137703798146
C            2.23232959980122       -1.41078660456422       -5.31271363032484
C            1.97517498783337        1.07082075084873       -5.63018927654457
C            1.80273825983657        0.11560326905903       -2.16593841782367
C            0.91010779581057        0.06143643945145       -1.06633822795292
C            4.84304716000347       -0.77822254672004       -0.47542703313928
C            5.54919283134536       -1.78080691861464       -1.10473755694562
H            7.68186190363782       -5.13288031439669       -1.80772701267535
H            6.86155019853604       -4.71296680231364       -0.30099966705061
H            7.71083406765736       -3.47256589892269       -1.22051011387644
H            6.72213755450758       -4.30027084850151       -4.03769329791238
H            5.23452650310596       -3.34833821897569       -4.04129570513227
H            6.73107257912720       -2.64467506437398       -3.43292609600139
H            5.68202818130899       -6.12661737459590       -2.76607310992044
H            4.14248742515118       -5.27637383078139       -2.82560879506659
H            4.79501864125488       -5.83159872273043       -1.27421170655504
H            3.20200517016211       -4.19269287481731       -1.07463112341142
H            1.95498554423244       -2.44117130160517        0.03888519703526
H            1.87922147246973        2.49847440353446        0.66896304735529
H            2.82356997788747        4.29979205311100        1.98305725908145
H            3.31976728290260        5.49762443496913        3.84974596959103
H            4.84963560025141        6.32842550752562        4.10959469481771
H            4.34713309014989        5.92757433069354        2.47095756259123
H            6.54601522567045        4.71622856906311        2.10741204634226
H            7.11550501556628        3.53874821482986        3.28819777810761
H            7.00014721878874        5.23995470899852        3.73196213517425
H            5.50653032057520        4.61277739743007        5.72156229908774
H            4.04386833755307        3.66227028376950        5.44204067536183
H            5.63001442128056        2.91416241738467        5.26976020576684
H            5.86818749872935        1.65487992324712        3.40389959906173
H            4.90138546051028       -0.15276457232816        2.10927122022696
H            1.93716615721928       -0.19670102534166        2.89758003274466
H            0.34858164272379       -0.27854690612325        4.71082808947132
H           -3.99160095496274        1.04155231439598        3.73800179770996
H           -4.46652615230050        0.03489732934439        5.10137871686696
H           -4.12989957146867       -0.71355922047809        3.54205908462135
H           -2.10332998277773        2.00945325868126        5.14464777406295
H           -1.00871176235401        0.93790946564825        6.01578303119145
H           -2.70649611383715        1.02056709820727        6.47795856626454
H           -2.44606025896260       -2.24390507948432        4.62342809159882
H           -2.90867275330583       -1.52282563830590        6.16905048692066
H           -1.21073482054993       -1.60008030379369        5.70432248434149
H           -2.87309111733987        0.20965312833845        1.95890187511730
H           -1.92921929336216        2.48028020507358       -0.65421153302255
H           -2.87791968661529        4.27082849648918       -1.97997787542718
H           -5.62880283311671        2.85325770074290       -5.29896114995655
H           -5.51895138834916        4.55304267685526       -5.74990743610277
H           -4.04920325112012        3.61921058856639       -5.45194427462809
H           -6.60407681985249        4.64547176785085       -2.14880020989046
H           -7.04386992321427        5.16412740786676       -3.77890540286170
H           -7.14578851379828        3.46176332555544       -3.33639168041053
H           -3.36569155319633        5.46314008921659       -3.85186556153726
H           -4.90161030687636        6.27654545035209       -4.13027107393128
H           -4.41440296106957        5.88148233719988       -2.48562088843058
H           -5.87676980271732        1.59230109324269       -3.43474352879968
H           -4.90554558127239       -0.20412985097946       -2.12766828548714
H           -1.95720315763841       -2.45477681732316        0.00898062677745
H           -3.20812989776222       -4.20306416190968        1.13540243784639
H           -7.66629434949120       -4.62677363458787        2.95955834329006
H           -7.76452137237539       -3.57207050897700        1.55353265811233
H           -7.21572722322049       -2.93270835212650        3.11301408987857
H           -6.29201061345465       -5.20084825607369        0.26884986873527
H           -6.32628998236869       -6.22280504845873        1.70900801449538
H           -4.78628824390003       -5.77906019432447        0.97808604200474
H           -3.98050639313081       -4.80506117622565        3.20390730548087
H           -4.96156928870640       -3.59727784925452        4.03162422782397
H           -5.50898858285112       -5.27423027580729        3.94606419731919
H           -6.59494335882169       -1.60504403536992        1.39015554312231
H           -5.33473250751514        0.14412477251342        0.30110856804654
H           -1.95633747162378       -0.22281384241098       -2.89090631044039
H           -0.36588831876773       -0.27908753554378       -4.70260898076518
H            3.94161208098273        1.12723484096461       -3.72834510138361
H            4.12641888150114       -0.62392506040623       -3.53269166657719
H            4.44294914344197        0.13237321993845       -5.09133063840458
H            1.22770768958771       -1.58817454223243       -5.68699164644579
H            2.47521875547877       -2.19679574774680       -4.59996628907312
H            2.92489066566036       -1.47493835671030       -6.14952041881688
H            2.66384325171661        1.06325825048319       -6.47256922605246
H            0.96740592813942        0.94102677919475       -6.01493240417063
H            2.03257680820468        2.04357420962843       -5.14599533665311
H            2.84671101770708        0.25019478788558       -1.94785370012216
H            5.29848011352729        0.19100360062791       -0.33206456909192
H            6.55736125274315       -1.56523660930765       -1.42611220297506

          :  Hamiltonian                  GFN2-xTB          :
         :: gradient norm              0.000068373229 Eh/a0 ::
         :: HOMO-LUMO gap              1.637071123313 eV    ::
         :: SCC energy              -180.577817318817 Eh    ::
         :: -> dispersion             -0.185509446979 Eh    ::
         :: repulsion energy           3.073009984682 Eh    ::

    * Orbital Energies and Occupations

         #    Occupation            Energy/Eh            Energy/eV
      -------------------------------------------------------------
         1        2.0000           -0.6557440             -17.8437
       ...           ...                  ...                  ...
       155        2.0000           -0.4036031             -10.9826
       156        2.0000           -0.4002358             -10.8910
       157        2.0000           -0.3967957             -10.7974
       158        2.0000           -0.3950213             -10.7491
       159        2.0000           -0.3932704             -10.7014
       160        2.0000           -0.3928174             -10.6891
       161        2.0000           -0.3926021             -10.6832
       162        2.0000           -0.3879894             -10.5577
       163        2.0000           -0.3847098             -10.4685
       164        2.0000           -0.3811064             -10.3704
       165        2.0000           -0.3592719              -9.7763
       166        2.0000           -0.3430183              -9.3340
       167        2.0000           -0.3299026              -8.9771 (HOMO)
       168                         -0.2697414              -7.3400 (LUMO)
       169                         -0.2236646              -6.0862
       170                         -0.2182631              -5.9392
       171                         -0.2174138              -5.9161
       172                         -0.2133183              -5.8047
       173                         -0.2125073              -5.7826
       174                         -0.2101384              -5.7182
       175                         -0.2100050              -5.7145
       176                         -0.2093438              -5.6965
       177                         -0.1960391              -5.3345
       178                         -0.1922721              -5.2320
       ...                                ...                  ...
       332                          0.7199935              19.5920
      -------------------------------------------------------------
                  HL-Gap            0.0601613 Eh            1.6371 eV

     #   Z          covCN         q      C6AA      α(0)
     1   6 C        3.761    -0.105    22.549     6.769
     2   6 C        3.903     0.026    20.086     6.371
     3   6 C        3.762    -0.104    22.535     6.767
     4   6 C        3.761    -0.106    22.575     6.773
     5   6 C        2.973    -0.003    28.099     8.695
     6   6 C        2.925    -0.040    28.990     8.830
     7   6 C        2.923    -0.052    29.294     8.876
     8   6 C        2.923     0.064    26.569     8.453
     9   7 N        2.751    -0.074    22.671     7.072
    10   6 C        2.922     0.063    26.587     8.456
    11   6 C        2.923    -0.053    29.307     8.878
    12   6 C        2.925    -0.040    28.986     8.829
    13   6 C        2.972    -0.002    28.079     8.692
    14   6 C        3.903     0.026    20.086     6.371
    15   6 C        3.761    -0.107    22.583     6.774
    16   6 C        3.762    -0.105    22.546     6.769
    17   6 C        3.762    -0.105    22.546     6.769
    18   6 C        2.927    -0.037    28.909     8.818
    19   6 C        2.921    -0.053    29.328     8.881
    20   6 C        2.926     0.042    27.053     8.530
    21   6 C        2.982    -0.006    28.170     8.706
    22   6 C        2.915    -0.037    28.921     8.819
    23   6 C        2.922    -0.035    28.869     8.811
    24   6 C        2.970     0.007    27.858     8.658
    25   6 C        3.903     0.025    20.092     6.372
    26   6 C        3.761    -0.106    22.572     6.773
    27   6 C        3.761    -0.104    22.537     6.768
    28   6 C        3.763    -0.104    22.526     6.765
    29   6 C        2.925    -0.047    29.178     8.858
    30   6 C        2.981    -0.006    28.165     8.705
    31   6 C        2.925     0.042    27.052     8.529
    32   7 N        2.751    -0.073    22.666     7.071
    33   6 C        2.922     0.063    26.588     8.456
    34   6 C        2.923    -0.052    29.301     8.877
    35   6 C        2.925    -0.040    28.986     8.829
    36   6 C        2.972    -0.002    28.074     8.691
    37   6 C        3.903     0.026    20.086     6.371
    38   6 C        3.762    -0.105    22.546     6.769
    39   6 C        3.762    -0.105    22.547     6.769
    40   6 C        3.761    -0.107    22.584     6.774
    41   6 C        2.927    -0.037    28.908     8.817
    42   6 C        2.921    -0.053    29.321     8.880
    43   6 C        2.922     0.064    26.569     8.453
    44   6 C        2.922    -0.052    29.281     8.874
    45   6 C        2.927    -0.036    28.887     8.814
    46   6 C        2.973    -0.003    28.102     8.696
    47   6 C        3.903     0.026    20.085     6.370
    48   6 C        3.761    -0.106    22.581     6.774
    49   6 C        3.761    -0.105    22.548     6.769
    50   6 C        3.762    -0.104    22.526     6.766
    51   6 C        2.925    -0.041    29.023     8.835
    52   6 C        2.921    -0.054    29.351     8.884
    53   6 C        2.982    -0.006    28.172     8.707
    54   6 C        2.915    -0.037    28.923     8.819
    55   6 C        2.922    -0.035    28.870     8.811
    56   6 C        2.970     0.007    27.860     8.658
    57   6 C        3.903     0.025    20.093     6.372
    58   6 C        3.761    -0.107    22.590     6.775
    59   6 C        3.763    -0.103    22.505     6.762
    60   6 C        3.761    -0.104    22.539     6.768
    61   6 C        2.925    -0.048    29.181     8.859
    62   6 C        2.982    -0.006    28.164     8.705
    63   6 C        2.920    -0.053    29.327     8.881
    64   6 C        2.927    -0.037    28.921     8.819
    65   1 H        0.925     0.035     2.518     2.481
    66   1 H        0.925     0.033     2.548     2.496
    67   1 H        0.925     0.036     2.507     2.476
    68   1 H        0.925     0.035     2.518     2.481
    69   1 H        0.925     0.033     2.541     2.493
    70   1 H        0.925     0.036     2.509     2.477
    71   1 H        0.925     0.034     2.525     2.485
    72   1 H        0.925     0.034     2.524     2.485
    73   1 H        0.925     0.035     2.519     2.482
    74   1 H        0.926     0.033     2.540     2.492
    75   1 H        0.926     0.024     2.670     2.555
    76   1 H        0.926     0.025     2.664     2.553
    77   1 H        0.926     0.034     2.532     2.488
    78   1 H        0.925     0.035     2.515     2.480
    79   1 H        0.925     0.034     2.525     2.485
    80   1 H        0.925     0.035     2.518     2.482
    81   1 H        0.925     0.033     2.550     2.497
    82   1 H        0.925     0.036     2.508     2.477
    83   1 H        0.925     0.035     2.516     2.480
    84   1 H        0.925     0.035     2.515     2.480
    85   1 H        0.925     0.033     2.545     2.495
    86   1 H        0.925     0.035     2.510     2.478
    87   1 H        0.926     0.027     2.629     2.535
    88   1 H        0.926     0.028     2.612     2.528
    89   1 H        0.926     0.032     2.559     2.501
    90   1 H        0.926     0.028     2.620     2.531
    91   1 H        0.925     0.034     2.524     2.484
    92   1 H        0.925     0.034     2.524     2.484
    93   1 H        0.925     0.037     2.490     2.468
    94   1 H        0.925     0.033     2.540     2.492
    95   1 H        0.925     0.036     2.501     2.473
    96   1 H        0.925     0.036     2.506     2.476
    97   1 H        0.925     0.034     2.524     2.485
    98   1 H        0.925     0.036     2.507     2.476
    99   1 H        0.925     0.036     2.502     2.474
   100   1 H        0.926     0.042     2.424     2.434
   101   1 H        0.926     0.025     2.662     2.551
   102   1 H        0.926     0.034     2.530     2.487
   103   1 H        0.925     0.035     2.510     2.477
   104   1 H        0.925     0.035     2.514     2.480
   105   1 H        0.925     0.033     2.545     2.495
   106   1 H        0.925     0.033     2.549     2.497
   107   1 H        0.925     0.035     2.515     2.480
   108   1 H        0.925     0.036     2.508     2.476
   109   1 H        0.925     0.035     2.515     2.480
   110   1 H        0.925     0.034     2.524     2.485
   111   1 H        0.925     0.035     2.518     2.481
   112   1 H        0.926     0.027     2.627     2.534
   113   1 H        0.926     0.028     2.610     2.526
   114   1 H        0.926     0.024     2.669     2.555
   115   1 H        0.926     0.026     2.637     2.539
   116   1 H        0.925     0.034     2.525     2.485
   117   1 H        0.925     0.035     2.518     2.482
   118   1 H        0.925     0.035     2.515     2.480
   119   1 H        0.925     0.033     2.548     2.496
   120   1 H        0.925     0.035     2.518     2.481
   121   1 H        0.925     0.036     2.509     2.477
   122   1 H        0.925     0.034     2.525     2.485
   123   1 H        0.925     0.033     2.541     2.493
   124   1 H        0.925     0.035     2.517     2.481
   125   1 H        0.926     0.034     2.532     2.488
   126   1 H        0.926     0.028     2.612     2.527
   127   1 H        0.926     0.032     2.559     2.501
   128   1 H        0.926     0.028     2.622     2.532
   129   1 H        0.925     0.034     2.524     2.484
   130   1 H        0.925     0.038     2.474     2.460
   131   1 H        0.925     0.035     2.513     2.479
   132   1 H        0.925     0.036     2.503     2.474
   133   1 H        0.925     0.032     2.557     2.501
   134   1 H        0.925     0.036     2.502     2.474
   135   1 H        0.925     0.036     2.505     2.475
   136   1 H        0.925     0.036     2.502     2.474
   137   1 H        0.925     0.033     2.539     2.492
   138   1 H        0.926     0.042     2.422     2.434
   139   1 H        0.926     0.028     2.610     2.526
   140   1 H        0.926     0.027     2.627     2.535

molecular dipole:
                 x           y           z       tot (Debye)
 q only:       -0.004       0.017      -0.009
   full:        0.010      -0.017      -0.011       0.057

 projected vibrational frequencies (cm⁻¹)
eigval :       -0.00    -0.00     0.00     0.00     0.00     0.00
eigval :        7.20     8.88    13.99    15.83    21.17    22.23
eigval :       23.49    25.51    26.71    27.83    30.50    30.76
eigval :       30.85    34.46    42.25    61.45    63.43    67.98
eigval :       70.02    76.34    78.71    85.56    90.44    90.71
eigval :      104.28   110.78   132.90   140.36   147.35   149.50
eigval :      160.32   161.70   171.51   172.85   173.88   178.65
eigval :      179.71   183.35   184.35   184.84   188.68   196.19
eigval :      212.25   217.80   220.95   221.87   222.92   223.44
eigval :      223.98   225.68   227.80   234.49   243.40   248.72
eigval :      259.97   264.63   268.91   278.74   294.62   302.57
eigval :      309.80   313.70   313.91   314.88   315.33   318.22
eigval :      321.62   327.17   329.33   334.78   338.64   341.36
eigval :      343.82   345.92   357.36   358.14   361.18   362.12
eigval :      366.57   381.55   382.04   385.07   385.61   388.88
eigval :      390.05   393.23   395.99   402.44   407.96   413.76
eigval :      416.08   425.90   428.09   430.85   439.89   448.19
eigval :      448.78   452.51   458.36   459.16   462.45   463.80
eigval :      477.98   485.27   491.82   512.27   531.55   533.01
eigval :      535.16   535.35   547.08   557.72   572.50   576.52
eigval :      588.99   589.09   608.41   608.82   608.89   609.64
eigval :      631.95   636.27   642.67   643.07   683.30   683.47
eigval :      683.81   684.50   698.34   700.57   708.24   724.77
eigval :      726.09   731.91   734.29   782.65   808.06   808.82
eigval :      810.34   815.21   817.81   819.48   832.50   855.80
eigval :      864.82   865.19   866.97   869.45   871.24   873.18
eigval :      874.67   875.07   877.44   887.62   889.21   906.65
eigval :      909.35   909.65   911.89   915.37   920.66   920.88
eigval :      924.49   925.12   933.90   934.42   935.54   936.82
eigval :      959.92   960.10   960.15   960.20   960.22   961.26
eigval :      962.35   962.53   962.64   962.79   962.81   962.83
eigval :      962.90   962.91   963.23   963.46   963.75   963.86
eigval :      970.53   990.99  1002.05  1003.88  1025.56  1026.02
eigval :     1034.81  1034.96  1035.22  1035.23  1035.64  1035.65
eigval :     1035.67  1035.68  1035.75  1035.91  1036.48  1037.04
eigval :     1078.25  1138.15  1144.74  1146.20  1146.28  1146.53
eigval :     1146.66  1147.30  1154.41  1154.86  1158.08  1160.12
eigval :     1167.40  1200.49  1211.87  1212.69  1215.00  1216.58
eigval :     1226.96  1227.47  1227.57  1227.61  1227.85  1227.86
eigval :     1231.59  1232.94  1234.34  1234.42  1234.51  1234.63
eigval :     1249.74  1254.96  1265.69  1266.74  1272.61  1280.55
eigval :     1280.97  1281.26  1286.51  1287.73  1288.00  1289.87
eigval :     1290.18  1299.67  1303.87  1319.15  1321.16  1323.39
eigval :     1327.63  1329.41  1342.98  1343.96  1346.59  1351.65
eigval :     1396.36  1400.83  1401.21  1403.07  1403.27  1404.66
eigval :     1404.88  1405.50  1405.51  1405.79  1406.26  1406.63
eigval :     1407.17  1412.56  1412.74  1417.79  1419.18  1422.25
eigval :     1428.96  1429.13  1429.16  1429.26  1429.76  1429.83
eigval :     1430.84  1458.54  1467.72  1488.72  1490.17  1490.81
eigval :     1491.18  1492.36  1492.52  1492.54  1492.60  1492.67
eigval :     1493.08  1494.47  1494.87  1495.41  1495.44  1495.66
eigval :     1496.51  1502.05  1502.41  1503.45  1503.64  1503.67
eigval :     1503.81  1506.02  1506.43  1507.21  1507.44  1507.58
eigval :     1507.72  1514.61  1514.70  1514.72  1514.73  1515.78
eigval :     1515.97  1519.78  1520.19  1520.43  1520.51  1520.71
eigval :     1521.49  1524.05  1527.33  1536.83  1561.81  1562.10
eigval :     1568.21  1568.45  1605.08  1605.64  1607.76  1608.89
eigval :     1611.79  1624.50  3019.12  3020.05  3020.49  3020.56
eigval :     3020.59  3020.61  3021.49  3021.67  3021.75  3021.78
eigval :     3021.85  3022.13  3024.55  3025.09  3025.38  3025.78
eigval :     3026.47  3026.52  3028.72  3028.78  3028.86  3028.97
eigval :     3029.19  3029.37  3029.89  3030.09  3030.23  3030.39
eigval :     3030.51  3030.56  3033.35  3034.01  3034.88  3034.97
eigval :     3035.33  3035.40  3036.60  3037.00  3037.80  3037.84
eigval :     3038.05  3038.10  3044.84  3045.02  3045.53  3045.57
eigval :     3046.05  3046.09  3049.00  3049.10  3049.51  3049.60
eigval :     3049.64  3049.78  3073.63  3074.02  3075.72  3076.25
eigval :     3079.34  3079.83  3080.40  3080.94  3082.50  3082.62
eigval :     3086.58  3086.99  3088.07  3088.99  3101.48  3102.05
eigval :     3111.19  3111.83  3112.01  3112.27  3152.32  3152.71

   temp. (K)  partition function   enthalpy   heat capacity  entropy
                                   cal/mol     cal/K/mol   cal/K/mol   J/K/mol
 298.15  VIB  0.970E+32            40270.696    242.252    250.672
         ROT  0.187E+09              888.752      2.981     40.833
         INT  0.181E+41            41159.449    245.233    291.504
         TR   0.239E+29             1481.254      4.968     46.074
         TOT                       42640.7026   250.2012   337.5779  1412.4259

       T/K    H(0)-H(T)+PV         H(T)/Eh          T*S/Eh         G(T)/Eh
   ------------------------------------------------------------------------
    298.15    0.679523E-01    0.126880E+01    0.160394E+00    0.110841E+01
   ------------------------------------------------------------------------

         :::::::::::::::::::::::::::::::::::::::::::::::::::::
         ::                  THERMODYNAMIC                  ::
         :::::::::::::::::::::::::::::::::::::::::::::::::::::
         :: total free energy        -176.396398347749 Eh   ::
         ::.................................................::
         :: total energy             -177.504807334134 Eh   ::
         :: zero point energy           1.200850849849 Eh   ::
         :: G(RRHO) w/o ZPVE           -0.092441863464 Eh   ::
         :: G(RRHO) contrib.            1.108408986385 Eh   ::
         :::::::::::::::::::::::::::::::::::::::::::::::::::::

           -------------------------------------------------
          | TOTAL ENERGY             -177.504807334134 Eh   |
          | TOTAL ENTHALPY           -176.236004199275 Eh   |
          | TOTAL FREE ENERGY        -176.396398347749 Eh   |
          | GRADIENT NORM               0.000068373266 Eh/α |
          | HOMO-LUMO GAP               1.637071140008 eV   |
           -------------------------------------------------

 * finished run on 2025/09/10 at 22:26:36.406
