   * xtb version 6.7.1 (edcfbbe) compiled by 'albert@albert-system' on 2024-07-22

   ID    Z sym.   atoms
    1    6 C      1-8, 10-31, 33-64
    2    7 N      9, 32
    3    1 H      65-140

          program call               : xtb data2507/gas/6tBPA/6tBPA_gas_T1_crest.xyz --gfn 2 --spinpol --tblite --uhf 2 --ohess vtight --parallel 40 --molden --ceasefiles --namespace data2507/gas/6tBPA/6tBPA_gas_T1_finalOpt
 * total energy  :  -177.4503113 Eh     change       -0.2166507E-07 Eh
 * total energy  :  -177.4503268 Eh     change       -0.1557035E-04 Eh
 * total energy  :  -177.4503310 Eh     change       -0.4170563E-05 Eh
 * total energy  :  -177.4503327 Eh     change       -0.1710343E-05 Eh
 * total energy  :  -177.4503353 Eh     change       -0.2548139E-05 Eh
 * total energy  :  -177.4503385 Eh     change       -0.3191910E-05 Eh
 * total energy  :  -177.4503417 Eh     change       -0.3193635E-05 Eh
 * total energy  :  -177.4503458 Eh     change       -0.4184995E-05 Eh
 * total energy  :  -177.4503510 Eh     change       -0.5201812E-05 Eh
 * total energy  :  -177.4503568 Eh     change       -0.5758077E-05 Eh
 * total energy  :  -177.4504212 Eh     change       -0.9104805E-06 Eh
 * total energy  :  -177.4504219 Eh     change       -0.7100976E-06 Eh
 * total energy  :  -177.4504225 Eh     change       -0.6137750E-06 Eh
 * total energy  :  -177.4504234 Eh     change       -0.9314265E-06 Eh
 * total energy  :  -177.4504246 Eh     change       -0.1148086E-05 Eh
 * total energy  :  -177.4504256 Eh     change       -0.1020649E-05 Eh
 * total energy  :  -177.4504263 Eh     change       -0.6837635E-06 Eh
 * total energy  :  -177.4504263 Eh     change        0.2468411E-07 Eh
 * total energy  :  -177.4504263 Eh     change       -0.3071574E-07 Eh
   *** GEOMETRY OPTIMIZATION CONVERGED AFTER 69 ITERATIONS ***

 final structure:
================
140
 xtb: 6.7.1 (edcfbbe)
C            6.74907715458229        4.27548878632341       -0.27757958776136
C            6.32223688263270        3.58438743724570       -1.58057400443891
C            5.70770239663555        4.64200697596143       -2.50112934904546
C            7.55294550456699        2.99486366105274       -2.28430414474910
C            5.35239643522784        2.46193647224024       -1.25098239457490
C            4.04524763621750        2.42045799519889       -1.72306298159800
C            3.19110268252008        1.38640485280427       -1.39569832631960
C            3.61391745532244        0.34593614139081       -0.57047804382126
N            2.72107953766452       -0.66152727513784       -0.21080985383527
C            3.15652338017035       -1.95569763851022        0.06271228904987
C            2.48013126594229       -2.73489598196840        0.99952650876934
C            2.88678492829428       -4.02657561986509        1.26847361108441
C            3.98114052299483       -4.59367859419525        0.62499346087145
C            4.46348727629776       -6.00970178178395        0.89325326873220
C            3.62468923416799       -6.72702261096525        1.95429888702577
C            5.91688047493700       -5.96075998992287        1.38582665414114
C            4.38296586005991       -6.82019433638807       -0.40837967379627
C            4.64831986829829       -3.80622892574043       -0.31265079720812
C            4.25032598358512       -2.51840192800001       -0.59769423676121
C            1.35960992410813       -0.35107121892383       -0.08946838748122
C            0.39624686275940       -1.10085581105699       -0.83061578032097
C            0.75355571290297       -2.10424725985534       -1.73302768208297
C           -0.19348477481501       -2.79498009949669       -2.48044320208289
C           -1.53569641195930       -2.47121759010130       -2.39895833275573
C           -2.62751763050699       -3.18756320251013       -3.17395775389123
C           -2.07906565767293       -4.31787979448850       -4.04884056300841
C           -3.34949222717370       -2.18367883039854       -4.08378026322174
C           -3.62714414796337       -3.79214941653164       -2.17638448585095
C           -1.89593735451506       -1.42375512797740       -1.54623179500050
C           -0.98179816334924       -0.75593880356195       -0.73404718069864
C           -1.37966377610683        0.32412582222905        0.11870426447988
N           -2.73769760473429        0.65459876392002        0.22152637488877
C           -3.65508455124219       -0.33691251100003        0.56307903292601
C           -3.26580161637663       -1.38997965568899        1.38895479009039
C           -4.14588943805164       -2.40772863894712        1.69835584407559
C           -5.44673554462154       -2.41965784366795        1.20733208122878
C           -6.44466830533328       -3.52296697207078        1.51719079967092
C           -5.86562055259614       -4.59829788565348        2.44020380607487
C           -7.67227726864692       -2.91094961874923        2.20702713064266
C           -6.86814323122627       -4.19808615962836        0.20475145565063
C           -5.82746927846548       -1.35893885357839        0.38595967125105
C           -4.95890994299474       -0.33928316925001        0.06272749953759
C           -3.14406829494632        1.96011509111111       -0.04468585471334
C           -4.23354169111322        2.53946791507452        0.60432544351756
C           -4.60265758310919        3.84244352823830        0.33347081279763
C           -3.90314816844958        4.62351615585435       -0.58009362937763
C           -4.27166011930035        6.06358239514508       -0.89643262460292
C           -4.58376117883586        6.18534064256878       -2.39485754307489
C           -5.49666778960723        6.54534038236753       -0.11440289612493
C           -3.08693824501173        6.97158907105833       -0.53709094990917
C           -2.81125702342728        4.03571254512360       -1.21714372513789
C           -2.43571307055226        2.73501147588724       -0.96410385696067
C           -0.41682972151195        1.06602830749677        0.86908669073409
C           -0.77413468074184        2.06129179733455        1.78048354435741
C            0.17358048082277        2.75049836416780        2.52841836407348
C            1.51697950953418        2.43387317430167        2.43788710992661
C            2.60992053726610        3.15221492676708        3.20941347197019
C            2.06127409276437        4.27593382020242        4.09259984998213
C            3.34270852318239        2.14815425671585        4.11033364711649
C            3.59984906937122        3.76626109949507        2.20790566147116
C            1.87718887019413        1.39196099517177        1.57858549994982
C            0.96129609632263        0.72475222937429        0.76793254891409
C            4.92448601316256        0.37780732026025       -0.08923243907845
C            5.76687173749144        1.41362124235737       -0.43005813688503
H            7.24216271383629        3.58058561465241        0.39652302333303
H            5.87925139402917        4.68495932271656        0.23150205626387
H            7.43933193228084        5.08845998743912       -0.49325289454390
H            6.44397911537066        5.41696999022023       -2.70511028322491
H            5.40645692018305        4.20657623593423       -3.45114813618742
H            4.84552279054180        5.11261414911166       -2.03445026624955
H            8.25041049800531        3.78752415417300       -2.54710133938298
H            7.25425326226815        2.48154109089469       -3.19610569926248
H            8.07155586810035        2.28368637007224       -1.64739413445867
H            3.66844269444515        3.20041807458974       -2.36396764820205
H            2.18154410876467        1.37546807860603       -1.77923683963581
H            1.63228586431040       -2.31378400808771        1.51966780393659
H            2.33152075821600       -4.58605937623573        2.00329620057595
H            2.58737727744443       -6.81411601593546        1.63959381556334
H            4.01492535757343       -7.73138460485437        2.10696496929150
H            3.66610889751353       -6.20244393248888        2.90611378286757
H            6.27481044368690       -6.96584045425201        1.59920989153650
H            5.98484996561026       -5.36938413334364        2.29672475120282
H            6.57305571846055       -5.51721135322076        0.64211959213935
H            4.70675570829334       -7.84418712834526       -0.23372683819678
H            3.35885239163043       -6.83896666521537       -0.77541448871030
H            5.01386357595119       -6.39128300770309       -1.18193897598270
H            5.49653004461768       -4.20564777748950       -0.84825166456789
H            4.77306629319155       -1.94583481026173       -1.35033561234439
H            1.79266608414704       -2.36076080291620       -1.86630776360201
H            0.15480775147476       -3.58043758583637       -3.13095014054844
H           -1.38614017317966       -3.93344600290648       -4.79379371108657
H           -2.89972184219091       -4.80534255771489       -4.57190040188403
H           -1.57191035664353       -5.06699395321270       -3.44512700999772
H           -2.64254982757107       -1.72366379330181       -4.77136005922937
H           -3.82492988654037       -1.39633714453271       -3.50536614738863
H           -4.11796315410676       -2.68967456936840       -4.66489124076475
H           -3.11952818862085       -4.49447248202662       -1.51780583043648
H           -4.41390162066038       -4.32297053877622       -2.70947515001534
H           -4.08798239288048       -3.02444011034685       -1.56032320934158
H           -2.92756488872621       -1.11707805357507       -1.51865455018542
H           -2.26172962522895       -1.40211057446101        1.78660053848739
H           -3.79462232930890       -3.19871371980483        2.34024275876851
H           -5.00719525002872       -5.08463925084230        1.98283201754740
H           -5.56846738237007       -4.17449204409691        3.39673926105160
H           -6.62096811755496       -5.35846954024246        2.62958928837100
H           -8.16664804563600       -2.18548311904555        1.56694697320112
H           -8.39009479092274       -3.68990449398159        2.45564637049465
H           -7.37555220699661       -2.40897309749906        3.12573943198616
H           -7.33527432753786       -3.48903431142863       -0.47310990521148
H           -6.00057618893891       -4.62528163637620       -0.29346273930961
H           -7.57994449085678       -4.99592286059357        0.40645155567751
H           -6.82369693339455       -1.32763279619246       -0.02933079176065
H           -5.27828064901620        0.45011572243823       -0.60264852874272
H           -4.78074491474539        1.96986598472858        1.34177035519279
H           -5.44949988857319        4.24505772482309        0.86497746129355
H           -5.40855454806071        5.52763535335898       -2.66158149563788
H           -3.72394350356015        5.91620084619446       -3.00187009438001
H           -4.86529042383075        7.20794772147437       -2.63749786407325
H           -6.37228823107269        5.94448179944144       -0.34928229034047
H           -5.71549730934681        7.57693961352111       -0.38311521895926
H           -5.31592373835998        6.50942805213566        0.95742274805373
H           -2.20105983550983        6.71145156578530       -1.10964310709304
H           -3.33413913127131        8.01092241182472       -0.74352498773756
H           -2.84824562669785        6.87616306524668        0.52018503096559
H           -2.23710130268777        4.60009317575856       -1.93633229393344
H           -1.59078859208361        2.30099379224546       -1.47820505726702
H           -1.81358596749566        2.31281255309123        1.92041534846830
H           -0.17487406976177        3.53010735833614        3.18583938476531
H            1.37466497110657        3.88482444248368        4.83993796455078
H            2.88270495960290        4.76495379726030        4.61297806964848
H            1.54696606307283        5.02523602999897        3.49520965966810
H            2.64281675560315        1.68326462626601        4.80182996293602
H            4.11374265196455        2.65517108492733        4.68715458042215
H            3.81658516072204        1.36440325264778        3.52580866970980
H            4.38767350339324        4.29859831572687        2.73785566485428
H            4.06026902654403        3.00380045535473        1.58503827802440
H            3.08410914953908        4.46897061334241        1.55609690814493
H            2.90979465892609        1.08910815603235        1.54391606377715
H            5.27004297873451       -0.40128841366458        0.57524801206566
H            6.76933178304288        1.40527631579887       -0.02888207899008

 projected vibrational frequencies (cm⁻¹)
eigval :       -0.00    -0.00    -0.00     0.00     0.00     0.00
eigval :        6.01     8.79    16.35    20.84    22.38    24.06
eigval :       24.72    26.27    26.97    28.79    29.39    31.13
eigval :       32.96    34.89    42.30    61.29    64.63    70.38
eigval :       74.38    76.81    78.84    86.44    88.99    97.10
eigval :      104.86   110.37   127.03   131.92   136.28   142.27
eigval :      154.61   162.80   169.95   171.33   172.12   174.03
eigval :      176.97   177.21   179.40   183.83   185.97   201.36
eigval :      207.17   217.30   218.01   221.32   222.33   223.67
eigval :      225.09   225.56   239.11   241.84   251.66   255.11
eigval :      258.46   263.89   271.30   279.39   298.81   301.90
eigval :      306.89   310.70   314.13   314.37   314.75   315.50
eigval :      315.73   318.46   328.04   333.08   336.62   338.56
eigval :      341.13   341.80   349.99   357.65   357.90   359.76
eigval :      362.01   378.05   381.75   382.21   383.18   390.26
eigval :      390.60   393.24   399.96   400.38   408.41   411.34
eigval :      416.88   418.36   425.07   429.39   433.37   445.08
eigval :      452.22   452.94   458.13   458.90   462.40   470.41
eigval :      476.90   479.73   486.41   511.09   529.93   533.43
eigval :      535.18   538.20   540.69   553.05   571.25   571.65
eigval :      585.03   589.48   605.93   608.03   608.36   608.63
eigval :      608.97   621.62   633.76   637.38   676.48   684.08
eigval :      684.63   685.16   685.53   694.68   701.24   714.49
eigval :      725.81   726.09   732.11   784.98   794.84   795.29
eigval :      808.50   809.52   810.21   815.40   831.48   836.44
eigval :      836.54   852.21   862.91   863.67   867.15   870.70
eigval :      872.44   874.21   876.36   881.76   882.50   887.16
eigval :      888.60   907.43   908.79   909.58   911.18   914.68
eigval :      923.69   924.43   931.07   931.22   933.79   935.34
eigval :      958.50   958.52   959.18   959.27   959.49   959.58
eigval :      960.75   961.22   961.55   961.59   961.94   961.99
eigval :      962.11   962.13   962.57   962.78   963.80   964.46
eigval :      969.45   997.25  1004.97  1005.04  1023.94  1025.99
eigval :     1033.65  1033.75  1034.13  1034.16  1034.25  1034.30
eigval :     1034.51  1034.69  1034.82  1035.54  1035.71  1035.71
eigval :     1074.52  1136.37  1143.89  1144.24  1144.48  1145.72
eigval :     1151.94  1152.79  1153.23  1154.95  1157.98  1161.06
eigval :     1165.21  1194.26  1205.80  1206.78  1209.94  1210.41
eigval :     1224.72  1224.75  1226.64  1226.68  1226.86  1226.92
eigval :     1233.06  1233.16  1233.24  1233.29  1233.48  1233.84
eigval :     1243.99  1248.48  1258.58  1269.79  1276.47  1276.91
eigval :     1279.40  1282.36  1283.94  1284.59  1288.45  1290.53
eigval :     1293.54  1295.16  1295.36  1298.96  1319.46  1321.11
eigval :     1324.05  1325.19  1329.46  1330.33  1333.20  1344.91
eigval :     1365.33  1365.50  1386.61  1393.74  1398.90  1399.19
eigval :     1400.93  1401.04  1401.40  1401.53  1401.91  1402.68
eigval :     1403.48  1403.71  1404.23  1404.79  1410.41  1410.86
eigval :     1419.00  1419.10  1422.29  1422.38  1423.67  1423.95
eigval :     1424.11  1424.19  1438.64  1475.10  1480.63  1481.31
eigval :     1483.25  1483.97  1487.52  1487.64  1488.71  1488.83
eigval :     1489.67  1489.99  1490.76  1490.97  1491.71  1491.89
eigval :     1492.24  1492.38  1492.81  1496.87  1497.31  1499.41
eigval :     1500.02  1500.19  1500.79  1501.56  1502.95  1503.63
eigval :     1503.73  1503.87  1505.87  1509.95  1510.00  1511.05
eigval :     1511.09  1512.39  1512.56  1516.02  1516.47  1516.91
eigval :     1517.10  1517.96  1518.08  1523.85  1546.96  1554.73
eigval :     1555.38  1556.08  1561.64  1561.95  1594.57  1595.07
eigval :     1600.12  1600.59  3014.43  3014.75  3017.37  3017.70
eigval :     3019.86  3019.90  3021.04  3021.06  3021.42  3021.48
eigval :     3021.89  3021.94  3022.83  3022.89  3023.96  3024.41
eigval :     3025.25  3025.41  3025.61  3025.66  3025.71  3025.77
eigval :     3027.85  3028.16  3029.51  3029.66  3030.53  3030.61
eigval :     3030.63  3030.71  3032.47  3032.51  3033.22  3033.69
eigval :     3033.89  3034.58  3034.59  3034.78  3036.03  3036.14
eigval :     3038.05  3038.15  3041.73  3041.73  3042.65  3042.75
eigval :     3043.50  3044.37  3046.10  3046.16  3046.81  3046.92
eigval :     3047.65  3048.47  3073.28  3073.93  3075.36  3077.46
eigval :     3079.15  3082.56  3084.16  3084.40  3087.04  3087.83
eigval :     3088.22  3090.40  3099.57  3099.69  3111.82  3112.67
eigval :     3113.05  3113.61  3113.70  3114.21  3125.36  3126.41

   temp. (K)  partition function   enthalpy   heat capacity  entropy
                                   cal/mol     cal/K/mol   cal/K/mol   J/K/mol
 298.15  VIB  0.701E+32            40416.599    243.506    251.351
         ROT  0.184E+09              888.752      2.981     40.800
         INT  0.129E+41            41305.351    246.487    292.151
         TR   0.239E+29             1481.254      4.968     46.074
         TOT                       42786.6053   251.4554   338.2247  1415.1321

       T/K    H(0)-H(T)+PV         H(T)/Eh          T*S/Eh         G(T)/Eh
   ------------------------------------------------------------------------
    298.15    0.681848E-01    0.126578E+01    0.160701E+00    0.110508E+01
   ------------------------------------------------------------------------

         :::::::::::::::::::::::::::::::::::::::::::::::::::::
         ::                  THERMODYNAMIC                  ::
         :::::::::::::::::::::::::::::::::::::::::::::::::::::
         :: total free energy        -176.345347061436 Eh   ::
         ::.................................................::
         :: total energy             -177.450426301912 Eh   ::
         :: zero point energy           1.197595906162 Eh   ::
         :: G(RRHO) w/o ZPVE           -0.092516665686 Eh   ::
         :: G(RRHO) contrib.            1.105079240476 Eh   ::
         :::::::::::::::::::::::::::::::::::::::::::::::::::::

           -------------------------------------------------
          | TOTAL ENERGY             -177.450426301912 Eh   |
          | TOTAL ENTHALPY           -176.184645600049 Eh   |
          | TOTAL FREE ENERGY        -176.345347061436 Eh   |
          | GRADIENT NORM               0.000096448134 Eh/α |
           -------------------------------------------------

 * finished run on 2025/09/11 at 00:55:04.081
