   * xtb version 6.7.1 (edcfbbe) compiled by 'albert@albert-system' on 2024-07-22

   ID    Z sym.   atoms
    1    6 C      1-9, 11-14, 16-32, 34-39, 41-46, 48-51, 53-69, 71-76
    2    5 B      10, 47
    3    7 N      15, 52
    4    8 O      33, 40, 70, 77
    5    1 H      78-129

          program call               : xtb data2507/gas/Me2ACBO/Me2ACBO_gas_T1_crest.xyz --gfn 2 --spinpol --tblite --uhf 2 --ohess vtight --parallel 40 --molden --ceasefiles --namespace data2507/gas/Me2ACBO/Me2ACBO_gas_T1_finalOpt
 * total energy  :  -198.9548353 Eh     change       -0.1060545E-07 Eh
 * total energy  :  -198.9548383 Eh     change       -0.3044121E-05 Eh
 * total energy  :  -198.9548410 Eh     change       -0.2737896E-05 Eh
 * total energy  :  -198.9548468 Eh     change       -0.5722364E-05 Eh
 * total energy  :  -198.9548538 Eh     change       -0.7065563E-05 Eh
 * total energy  :  -198.9548626 Eh     change       -0.8748141E-05 Eh
 * total energy  :  -198.9548748 Eh     change       -0.1225335E-04 Eh
 * total energy  :  -198.9548930 Eh     change       -0.1814022E-04 Eh
 * total energy  :  -198.9549129 Eh     change       -0.1992405E-04 Eh
 * total energy  :  -198.9549270 Eh     change       -0.1407278E-04 Eh
 * total energy  :  -198.9571824 Eh     change       -0.2751071E-06 Eh
 * total energy  :  -198.9571827 Eh     change       -0.3220945E-06 Eh
 * total energy  :  -198.9571830 Eh     change       -0.2795763E-06 Eh
 * total energy  :  -198.9571831 Eh     change       -0.1117918E-06 Eh
 * total energy  :  -198.9571835 Eh     change       -0.3515244E-06 Eh
 * total energy  :  -198.9571837 Eh     change       -0.2671465E-06 Eh
 * total energy  :  -198.9571840 Eh     change       -0.2482346E-06 Eh
 * total energy  :  -198.9571843 Eh     change       -0.2894669E-06 Eh
 * total energy  :  -198.9571843 Eh     change       -0.2539682E-07 Eh
   *** GEOMETRY OPTIMIZATION CONVERGED AFTER 249 ITERATIONS ***

 final structure:
================
129
 xtb: 6.7.1 (edcfbbe)
C           -5.22363054255410        5.24492764843601       -2.15590924414316
C           -4.38372757987425        3.98225726928691       -1.92713017689729
C           -3.28061724694180        3.96524943922398       -2.99639809153419
C           -3.83925885614484        3.96878265175822       -0.50511610145995
C           -4.72199616604749        4.17147013154702        0.55804194744891
C           -4.27421983954876        4.10412044643427        1.85899485931136
C           -2.94992814913109        3.76897487222856        2.13587794323619
C           -2.03411581045864        3.48735945206773        1.09804970477170
C           -2.52439315485986        3.64516229785500       -0.20618640504324
B           -0.62853022388543        2.98821400416252        1.51322337309591
C            0.58315553821942        2.45495865551817        0.72305975242161
C            0.69459085692355        2.30991156730590       -0.67441622124826
C            1.81953584976456        1.81508349579784       -1.29606929997568
C            2.90478488889152        1.39327873788046       -0.53141285426953
N            4.08721290552870        0.88824664175299       -1.13788914536895
C            4.06314266521770       -0.33712115147281       -1.77827751266464
C            2.85068980574632       -1.02365936405806       -1.92717513410986
C            2.79287056288271       -2.23047583601563       -2.58569288588624
C            3.95326973994460       -2.80795853048791       -3.07098303594628
C            5.15810604068873       -2.15425507746521       -2.89447187354445
C            5.24189773064415       -0.91847414537561       -2.26795826739295
C            6.59406303821789       -0.25356686603022       -2.11299287702732
C            7.22726958955646       -0.08907141842503       -3.50765737646316
C            7.48399499308197       -1.14373573015185       -1.22569396971601
C            6.47907244632980        1.11298966236847       -1.47078177738384
C            7.61728668266593        1.89137997619577       -1.30991658168277
C            7.56668035424444        3.15953296014216       -0.76230496628843
C            6.34352169723681        3.68373790600846       -0.37781589636355
C            5.20011354914536        2.92916013775181       -0.51450684159646
C            5.25135862708226        1.62919062217557       -1.03514117228708
C            2.84150502320899        1.50403156751003        0.85436625937404
C            1.71934434630063        2.04909249915668        1.46495577461401
O            1.84045339182015        2.16494675346651        2.81679424402398
C            0.81986820772827        2.62026850292751        3.58914891624327
C            1.05233834888851        2.69889809296957        4.95865286093097
C            0.03514409463237        3.12101712928593        5.79964913264352
C           -1.20569840970241        3.46071119166428        5.28699295141218
C           -1.41716580553296        3.39867639594765        3.91227472686630
C           -0.40783837751082        2.99160563638789        3.02726617401573
O           -2.64998902882220        3.73862935269753        3.46406608061280
C           -5.18234546548611        2.69164342999085       -2.06042921245857
C           -6.46910067162939        2.61544623572919       -2.58582229515586
C           -7.11473814984525        1.39489037645890       -2.66271255854895
C           -6.49018461628515        0.22834082830500       -2.22489073815479
C           -5.17200661410734        0.25871465517993       -1.72035828203399
C           -4.57318232073838        1.51655260362748       -1.64506565474857
B           -4.54505676359780       -1.07553276031437       -1.26885983567146
C           -3.14125800207513       -1.45319827787868       -0.76427758255572
C           -2.00707648386096       -0.62150226599485       -0.72187663669097
C           -0.80252790407012       -1.02921168001336       -0.20101804966381
C           -0.66668526736412       -2.31964896553462        0.30892736874309
N            0.58266379747348       -2.70995299340894        0.86081133680469
C            1.02277601046619       -2.04619614717757        1.99177970975731
C            0.12778564150947       -1.23674408752233        2.70597194499069
C            0.52787849341993       -0.56912000234328        3.84052963031775
C            1.83745800971676       -0.68145463217317        4.27916037792198
C            2.71830746825694       -1.49254086536111        3.58965356786844
C            2.33385569873064       -2.20234946473316        2.46014310271742
C            3.32043101070714       -3.13034287110381        1.78438929805595
C            4.50160925152016       -2.29908663147406        1.25248174952661
C            3.81518870132204       -4.15628707874815        2.82288089095702
C            2.69059075757026       -3.87818787685581        0.62791312512971
C            3.44241218660537       -4.81709029231627       -0.06414508047865
C            2.92440109188977       -5.53561010078891       -1.12499467091852
C            1.62109397886023       -5.30115799009884       -1.52968425757369
C            0.85898175105880       -4.35786976267527       -0.87712422284836
C            1.37013356061491       -3.64444529950539        0.21575867935236
C           -1.75153583487168       -3.18874337410428        0.26875855189683
C           -2.96019394042215       -2.76952735079289       -0.27829261468753
O           -3.92638890308436       -3.73199006589522       -0.29195456926697
C           -5.15771104015657       -3.50952080150130       -0.82851475244798
C           -6.03972755972876       -4.58347368762857       -0.86938139327832
C           -7.30504184883926       -4.40163562647989       -1.40691865669745
C           -7.70093224173208       -3.16648198919893       -1.89250261982422
C           -6.81327535870536       -2.09537879222432       -1.83835928448656
C           -5.52126463562902       -2.24665672504558       -1.31224690721972
O           -7.24786883153593       -0.90167052847525       -2.31692340669168
H           -6.11472954490840        5.25970406113807       -1.53577156192443
H           -5.52833190971136        5.31635869048990       -3.19772350564320
H           -4.62593763392269        6.12225557205361       -1.91562977398715
H           -2.61066127427548        4.81320707675024       -2.86847901933517
H           -3.73678160473414        4.03194747548888       -3.98240171020974
H           -2.70604981071267        3.04357702715432       -2.96431317745145
H           -5.76416506849075        4.37825494183071        0.37422966893457
H           -4.94135348905393        4.28977041793514        2.68701023723744
H           -1.82958258174357        3.49303585123764       -1.01305767894077
H           -0.13244681678529        2.61186125964096       -1.29475039762660
H            1.87199154681021        1.75645975644899       -2.37388680444128
H            1.94544372723103       -0.60008847093620       -1.52508644263840
H            1.84201993349284       -2.72292885917957       -2.71171232646175
H            3.92015875538595       -3.76053239970396       -3.57600053180636
H            6.05767587115700       -2.62360426266182       -3.26246329017483
H            8.20474596203060        0.37915147707448       -3.43915211625956
H            6.59025111404364        0.53551725200486       -4.13092428023951
H            7.34804667104467       -1.05135959846844       -3.99634851630806
H            8.47754837852714       -0.71560073343961       -1.12499029346543
H            7.04524624543342       -1.23307400581403       -0.23389646291956
H            7.58088339835588       -2.13887979918039       -1.65111471550103
H            8.57506777352295        1.50174204811138       -1.61935990196527
H            8.47123187551698        3.73696636660823       -0.64880380576278
H            6.27938251067212        4.68209139910961        0.02745219271496
H            4.24955664762958        3.34647140681902       -0.22372944764202
H            3.67279758216590        1.19487452106850        1.46934943126105
H            2.02243107510692        2.42982912276743        5.34541881226827
H            0.20962814657754        3.18075799874405        6.86297789604265
H           -2.01027845258274        3.77895190312738        5.93092247363202
H           -6.98200792115472        3.49797614253780       -2.93322232604210
H           -8.11865680154999        1.32651213362169       -3.05404256379787
H           -3.58867759924051        1.57879380713718       -1.21374465108959
H           -2.07613230466656        0.37669460780971       -1.11866170393770
H            0.03871774071264       -0.35240501571050       -0.16883952539469
H           -0.89315769656246       -1.14950232374470        2.37020970697837
H           -0.17977282986256        0.03973139659131        4.38193953125927
H            2.16479680438669       -0.15169937724815        5.15945613747983
H            3.73220250279379       -1.57717122501072        3.95032744031784
H            4.13983512268194       -1.56525214659175        0.53608327092755
H            5.00101305606909       -1.77696284362240        2.06456987063164
H            5.22674559967916       -2.93493114244258        0.75160282481122
H            4.54151821736586       -4.83435763864091        2.38459284761870
H            4.28381082287726       -3.66009467722892        3.66757603932760
H            2.97580706658728       -4.74253913063116        3.19176695912184
H            4.46546584388496       -4.99751260751357        0.22804874318013
H            3.53408330363895       -6.26682454211058       -1.63309192302781
H            1.19999950220082       -5.84530517371889       -2.36171940450609
H           -0.14466000648887       -4.16121025261253       -1.21742003540377
H           -1.67395489212267       -4.19010956490328        0.66438435913576
H           -5.72871310556322       -5.54188534439853       -0.48446507540692
H           -7.99145137028301       -5.23359636952871       -1.44428259096360
H           -8.68512831703478       -3.01842693287717       -2.30812013326190

 projected vibrational frequencies (cm⁻¹)
eigval :       -0.00    -0.00    -0.00     0.00     0.00     0.00
eigval :        7.58     9.57    17.60    19.20    24.55    25.95
eigval :       30.75    32.41    40.58    44.71    48.66    57.11
eigval :       62.13    66.15    72.64    78.54    80.04    82.99
eigval :       84.50   100.24   101.97   107.18   113.21   121.32
eigval :      122.89   124.95   128.47   129.94   139.02   140.76
eigval :      152.21   158.45   181.66   186.11   196.36   203.01
eigval :      208.33   214.02   218.28   220.33   223.23   230.94
eigval :      232.65   235.50   238.83   243.17   245.94   254.56
eigval :      257.15   264.01   271.25   274.12   285.48   296.51
eigval :      298.86   308.77   315.33   320.51   324.73   328.98
eigval :      330.44   335.33   335.91   345.78   346.74   353.09
eigval :      365.47   373.70   377.77   379.96   380.30   383.24
eigval :      392.70   395.61   399.54   405.51   408.23   411.50
eigval :      417.20   419.35   430.06   431.77   443.11   453.35
eigval :      454.24   456.12   460.40   462.11   468.88   492.08
eigval :      504.32   505.29   509.09   510.86   514.91   519.14
eigval :      526.29   531.17   534.06   544.19   544.91   546.01
eigval :      547.08   549.77   553.48   571.49   574.82   577.82
eigval :      584.11   585.42   585.77   596.87   607.23   617.66
eigval :      619.52   628.28   630.12   640.96   642.36   644.28
eigval :      658.59   673.38   673.82   674.07   675.20   685.86
eigval :      686.43   688.19   689.65   695.98   698.50   699.87
eigval :      706.11   708.94   717.55   729.09   738.55   768.28
eigval :      774.63   776.67   777.49   778.83   787.03   787.82
eigval :      793.79   799.25   804.21   813.36   815.77   825.33
eigval :      826.29   827.64   830.54   845.42   850.96   854.28
eigval :      856.32   857.53   864.13   864.40   866.14   867.83
eigval :      870.62   872.75   880.88   895.48   898.21   898.57
eigval :      899.23   901.62   902.02   903.12   903.55   912.29
eigval :      913.22   914.28   914.85   915.58   916.98   917.43
eigval :      922.65   924.15   926.30   929.93   938.00   938.82
eigval :      945.95   957.55   958.74   960.33   976.38   990.30
eigval :      992.31  1013.36  1013.66  1015.84  1042.32  1046.62
eigval :     1063.21  1076.12  1076.92  1077.16  1086.72  1088.32
eigval :     1090.72  1091.21  1109.30  1110.36  1111.30  1116.54
eigval :     1116.78  1125.94  1126.54  1130.13  1139.20  1139.30
eigval :     1151.70  1152.30  1154.46  1155.29  1161.07  1165.89
eigval :     1167.37  1169.15  1177.68  1178.72  1179.29  1184.42
eigval :     1184.55  1186.04  1186.53  1197.11  1201.44  1209.22
eigval :     1213.19  1215.47  1216.86  1218.88  1222.72  1231.39
eigval :     1233.73  1240.53  1240.62  1244.44  1244.61  1245.48
eigval :     1248.46  1249.91  1251.30  1260.47  1262.02  1266.14
eigval :     1273.00  1276.42  1280.96  1294.96  1295.32  1302.13
eigval :     1306.80  1314.64  1317.17  1318.74  1324.51  1325.72
eigval :     1330.34  1331.00  1332.02  1335.77  1336.43  1343.23
eigval :     1344.79  1374.03  1378.66  1384.19  1389.48  1399.79
eigval :     1402.27  1403.18  1412.95  1413.40  1415.75  1417.08
eigval :     1418.26  1419.11  1420.54  1424.89  1428.35  1431.22
eigval :     1431.83  1438.46  1440.11  1456.07  1456.79  1460.03
eigval :     1461.67  1479.50  1481.25  1486.05  1487.77  1488.29
eigval :     1489.21  1490.15  1492.37  1493.82  1498.85  1499.49
eigval :     1501.12  1502.85  1503.16  1504.34  1507.17  1511.64
eigval :     1515.48  1522.34  1523.03  1538.09  1543.91  1546.71
eigval :     1549.31  1559.15  1561.76  1563.56  1572.30  1575.39
eigval :     1577.03  1581.92  1583.65  1592.27  1594.55  3020.48
eigval :     3024.68  3025.21  3030.14  3030.72  3032.60  3033.31
eigval :     3036.19  3040.37  3041.36  3045.07  3045.98  3046.07
eigval :     3048.10  3049.45  3053.01  3056.70  3056.79  3075.61
eigval :     3082.43  3083.39  3083.76  3085.38  3085.48  3087.21
eigval :     3087.59  3087.89  3088.30  3088.94  3088.97  3092.72
eigval :     3094.69  3096.71  3097.01  3098.77  3099.28  3100.81
eigval :     3100.98  3102.93  3104.49  3105.27  3105.61  3106.74
eigval :     3107.43  3111.83  3112.88  3114.78  3117.21  3121.84
eigval :     3122.43  3131.13  3139.42

   temp. (K)  partition function   enthalpy   heat capacity  entropy
                                   cal/mol     cal/K/mol   cal/K/mol   J/K/mol
 298.15  VIB  0.334E+28            37802.953    243.067    231.331
         ROT  0.217E+09              888.752      2.981     41.124
         INT  0.723E+36            38691.705    246.048    272.455
         TR   0.304E+29             1481.254      4.968     46.545
         TOT                       40172.9594   251.0162   318.9999  1334.6956

       T/K    H(0)-H(T)+PV         H(T)/Eh          T*S/Eh         G(T)/Eh
   ------------------------------------------------------------------------
    298.15    0.640197E-01    0.106470E+01    0.151567E+00    0.913136E+00
   ------------------------------------------------------------------------

         :::::::::::::::::::::::::::::::::::::::::::::::::::::
         ::                  THERMODYNAMIC                  ::
         :::::::::::::::::::::::::::::::::::::::::::::::::::::
         :: total free energy        -198.044048770068 Eh   ::
         ::.................................................::
         :: total energy             -198.957184463192 Eh   ::
         :: zero point energy           1.000683153265 Eh   ::
         :: G(RRHO) w/o ZPVE           -0.087547460141 Eh   ::
         :: G(RRHO) contrib.            0.913135693124 Eh   ::
         :::::::::::::::::::::::::::::::::::::::::::::::::::::

           -------------------------------------------------
          | TOTAL ENERGY             -198.957184463192 Eh   |
          | TOTAL ENTHALPY           -197.892481624090 Eh   |
          | TOTAL FREE ENERGY        -198.044048770068 Eh   |
          | GRADIENT NORM               0.000037181907 Eh/α |
           -------------------------------------------------

 * finished run on 2025/07/18 at 08:56:00.821
