   * xtb version 6.7.1 (edcfbbe) compiled by 'albert@albert-system' on 2024-07-22

   ID    Z sym.   atoms
    1    6 C      1-9, 11-14, 16-32, 34-39, 41-46, 48-51, 53-69, 71-76
    2    5 B      10, 47
    3    7 N      15, 52
    4    8 O      33, 40, 70, 77
    5    1 H      78-129

          program call               : xtb data2507/gas/Me2ACBO/Me2ACBO.xyz --gfn 2 --ohess vtight --parallel 40 --molden --ceasefiles --namespace data2507/gas/Me2ACBO/Me2ACBO_gas_S0_preOpt
          :  Hamiltonian                  GFN2-xTB          :
 * total energy  :  -198.8799941 Eh     change       -0.6643262E-08 Eh
 * total energy  :  -198.9510587 Eh     change       -0.7106456E-01 Eh
 * total energy  :  -198.9803383 Eh     change       -0.2927967E-01 Eh
 * total energy  :  -198.9920247 Eh     change       -0.1168635E-01 Eh
 * total energy  :  -198.9985193 Eh     change       -0.6494567E-02 Eh
 * total energy  :  -199.0026057 Eh     change       -0.4086483E-02 Eh
 * total energy  :  -199.0058565 Eh     change       -0.3250726E-02 Eh
 * total energy  :  -199.0088317 Eh     change       -0.2975243E-02 Eh
 * total energy  :  -199.0115841 Eh     change       -0.2752348E-02 Eh
 * total energy  :  -199.0139905 Eh     change       -0.2406484E-02 Eh
 * total energy  :  -199.0251236 Eh     change       -0.4273318E-06 Eh
 * total energy  :  -199.0251239 Eh     change       -0.3111244E-06 Eh
 * total energy  :  -199.0251241 Eh     change       -0.2040576E-06 Eh
 * total energy  :  -199.0251243 Eh     change       -0.1506628E-06 Eh
 * total energy  :  -199.0251245 Eh     change       -0.2057651E-06 Eh
 * total energy  :  -199.0251248 Eh     change       -0.2893142E-06 Eh
 * total energy  :  -199.0251251 Eh     change       -0.3768189E-06 Eh
 * total energy  :  -199.0251255 Eh     change       -0.3705848E-06 Eh
 * total energy  :  -199.0251255 Eh     change       -0.8265602E-08 Eh
   *** GEOMETRY OPTIMIZATION CONVERGED AFTER 300 ITERATIONS ***

 final structure:
================
129
 xtb: 6.7.1 (edcfbbe)
C            0.66650582067848        0.07242107583295       -1.00742712269665
C            0.00439496804350        1.09288104252115       -0.07013210591589
C           -0.68011954351587        0.32697722127244        1.07143141305862
C            0.99703743342455        2.04989454820830        0.57049884042652
C            0.49730688860360        3.18290440950130        1.22085554431645
C            1.34677427248491        4.07983803089186        1.81907046424147
C            2.72727555152376        3.86288633320860        1.79976773180488
C            3.26878877803514        2.71373886164049        1.19628121133301
C            2.36013988048275        1.84247115991043        0.57620999401076
B            4.80357463254259        2.53902720658495        1.27043376259314
C            5.75687981432705        1.38564410419930        0.86832329248490
C            5.38867826116843        0.10121932717255        0.44343193978874
C            6.30807737728592       -0.85583666171318        0.08176120304019
C            7.67063218028159       -0.55888752207389        0.12877775367556
N            8.62860831216238       -1.53440002692667       -0.25314664516714
C            9.32091553610428       -2.22229418991804        0.73093369159669
C            9.03786376084389       -1.97601586258293        2.07767294551720
C            9.71519016306466       -2.63990954490842        3.07840537382885
C           10.68607720116710       -3.56977944187120        2.75362402056871
C           10.95283574867593       -3.83030102955168        1.42239961861476
C           10.28509626068949       -3.17832377331850        0.39480118817621
C           10.60882526525955       -3.52849667912237       -1.04522350383617
C           10.32318478689520       -5.02571953135930       -1.26260667199545
C           12.09578570978150       -3.22607753033494       -1.30579581804178
C            9.77409798026880       -2.72519994827665       -2.02438361965690
C            9.94166968205199       -2.92337043089210       -3.38795373615189
C            9.22537377722773       -2.20615584989510       -4.32814717791579
C            8.32058922894151       -1.25045637930967       -3.90309223254103
C            8.13440207752896       -1.03268200550716       -2.55436398694270
C            8.84299616770699       -1.77079177052636       -1.60160026538916
C            8.08193545034510        0.68446873423287        0.56441798699172
C            7.14015002765392        1.64221264318542        0.94731362051018
O            7.68642083023239        2.80321856799712        1.39293874488030
C            6.92672020565103        3.81067674187044        1.88567067391842
C            7.58932921479960        4.91234357009788        2.41398606753525
C            6.84894750922107        5.96042237343910        2.93273548100727
C            5.46626751462261        5.93245473221019        2.92800879880241
C            4.81007193787821        4.83172068771090        2.38610916709856
C            5.52561272056741        3.74645163000481        1.85717828446305
O            3.45854557213826        4.84458614446344        2.39423607171502
C           -0.96622540911139        1.90344391728926       -0.91439022850773
C           -0.44211964683672        2.86049965198678       -1.78937775787040
C           -1.27145958285221        3.61517203138408       -2.58087580308391
C           -2.65504810671943        3.42320889381266       -2.53558800829306
C           -3.22093610750200        2.44082519434251       -1.70315209023157
C           -2.33215430982838        1.71651715736213       -0.89390948405531
B           -4.75682093430626        2.26859675116604       -1.76454528259275
C           -5.73206152024768        1.24228940764731       -1.13380600611532
C           -5.38785239187496        0.08666113851658       -0.41840402314816
C           -6.32562746242033       -0.75873472569031        0.12762589339788
C           -7.68318859846754       -0.47473196663575       -0.02263119493646
N           -8.66014961300702       -1.33408360117742        0.54678006545446
C           -8.94733717002807       -1.21825703922461        1.89694652805122
C           -8.29145385201075       -0.24925038936499        2.66200120598870
C           -8.55210743979527       -0.11308514167631        4.00911042306733
C           -9.47872006244338       -0.93949954384334        4.61833809801898
C          -10.13948738638583       -1.88836988372493        3.86024881510924
C           -9.89682048326814       -2.04756689498230        2.50293510415034
C          -10.66828544601528       -3.09570788169862        1.72357141515844
C          -10.37857409559234       -4.47886358110570        2.33474284557632
C          -12.17058704815895       -2.77367343128748        1.82171484828151
C          -10.26950146806731       -3.12050604703851        0.26007868244487
C          -10.87605808271053       -4.02735686742940       -0.59804612106334
C          -10.54143116807379       -4.10862277817522       -1.93703957049462
C           -9.56484686864684       -3.26933569511406       -2.44168454420324
C           -8.94661062188080       -2.35808504657727       -1.61192429028113
C           -9.29548889434382       -2.26267995974598       -0.26156771090706
C           -8.07120237664362        0.63852679275511       -0.73976993427544
C           -7.11035955800226        1.48119781543910       -1.30366038599499
O           -7.63394504203806        2.51475501894747       -2.01225578883345
C           -6.85261217262212        3.38372160513130       -2.69717366364470
C           -7.49184411569765        4.34431754862573       -3.47209565465782
C           -6.72942349070016        5.24753278025901       -4.19221079326590
C           -5.34760241713609        5.21330334334720       -4.14895146040459
C           -4.71513903387235        4.25590174333865       -3.36201644574907
C           -5.45318620769800        3.31934802494888       -2.62182004628801
O           -3.36382619382437        4.25792691415193       -3.34331762739019
H            1.26985196662316        0.56894966363566       -1.76333594730038
H           -0.10660276831008       -0.50157956463312       -1.51501987513802
H            1.29064207529329       -0.62181219396666       -0.44956429109535
H            0.08019098601844       -0.13030689821404        1.70201738620822
H           -1.31680880116653       -0.46463804862694        0.68330591118368
H           -1.27537780904188        0.99446512496148        1.68950823537169
H           -0.56716502734419        3.36593805127183        1.23327201170192
H            0.97238920876716        4.96859372188858        2.30330080923529
H            2.76482083021151        0.98506375248723        0.06753140803818
H            4.34236722945399       -0.15624362129932        0.41826818796790
H            5.99211241720944       -1.83671374906854       -0.24067356722763
H            8.27505216557545       -1.25897102567384        2.33918535835745
H            9.48066354120295       -2.43021648629299        4.11148290558980
H           11.22619501330077       -4.09355674719985        3.52754012704281
H           11.70506533062973       -4.56675590474663        1.18290346020763
H           10.55527495365889       -5.32147277964932       -2.28197574422707
H            9.27080474302768       -5.23203008349445       -1.07626691762896
H           10.91662723650239       -5.63670174180565       -0.58815773377032
H           12.73109918025693       -3.79015280658758       -0.62849287448015
H           12.37163107468848       -3.48296369577619       -2.32485011959544
H           12.28906577643435       -2.16560466640683       -1.15490052535715
H           10.65362823905287       -3.65758092132606       -3.73377521946615
H            9.37910038520961       -2.38759277460455       -5.38099176107647
H            7.75949029998948       -0.66956563219880       -4.62003014671123
H            7.43457097268845       -0.27771799963639       -2.23052885726913
H            9.13161895536347        0.92622570008585        0.63047649487074
H            8.66725871465117        4.93126249467933        2.41710640565360
H            7.36045055695833        6.81528548188958        3.34842467492164
H            4.88732636610532        6.74829713258785        3.33007624550604
H            0.62516731977148        3.02237583657415       -1.82739897433521
H           -0.87859512677591        4.37176324705340       -3.24250629366321
H           -2.75436707065507        0.99552210193169       -0.21605983364062
H           -4.34535537481804       -0.16268027634613       -0.30651538184992
H           -6.02789657304191       -1.64132849414348        0.67374919570926
H           -7.57347236744951        0.40449519914205        2.19095829600625
H           -8.03153403127809        0.64143008917400        4.58005462191549
H           -9.69085607545853       -0.84400433143767        5.67234359907852
H          -10.86690837559745       -2.52047356227903        4.34695800554858
H           -9.31588781957188       -4.70159252486713        2.25792519216576
H          -10.65958190996450       -4.50637613804327        3.38392249455500
H          -10.93014031947539       -5.25696944262453        1.81439170927642
H          -12.49939682860480       -2.76584684319639        2.85724904867297
H          -12.36711766049681       -1.79326648878702        1.39174177130037
H          -12.76137303308329       -3.50913185867884        1.28264284769166
H          -11.63333365774556       -4.69499142371354       -0.21543203724404
H          -11.03479507225735       -4.82451125626465       -2.57667832590284
H           -9.28008853501132       -3.32297453433739       -3.48201175515958
H           -8.17973639442841       -1.71181382701620       -2.01048988434484
H           -9.11642621395038        0.86360966850775       -0.88618536686672
H           -8.56918532248182        4.36769940030069       -3.50494653134947
H           -7.22265868435549        5.99188169434056       -4.79873516442666
H           -4.75116326471411        5.91618475854900       -4.70809828239573

          :  Hamiltonian                  GFN2-xTB          :
         :: gradient norm              0.000058610146 Eh/a0 ::
         :: HOMO-LUMO gap              1.731134132566 eV    ::
         :: SCC energy              -202.414507534105 Eh    ::
         :: -> dispersion             -0.184996029612 Eh    ::
         :: repulsion energy           3.389382007343 Eh    ::

    * Orbital Energies and Occupations

         #    Occupation            Energy/Eh            Energy/eV
      -------------------------------------------------------------
         1        2.0000           -0.7350073             -20.0006
       ...           ...                  ...                  ...
       172        2.0000           -0.3984978             -10.8437
       173        2.0000           -0.3971864             -10.8080
       174        2.0000           -0.3941953             -10.7266
       175        2.0000           -0.3940372             -10.7223
       176        2.0000           -0.3934005             -10.7050
       177        2.0000           -0.3930879             -10.6965
       178        2.0000           -0.3910892             -10.6421
       179        2.0000           -0.3885587             -10.5732
       180        2.0000           -0.3884044             -10.5690
       181        2.0000           -0.3731229             -10.1532
       182        2.0000           -0.3707641             -10.0890
       183        2.0000           -0.3423316              -9.3153
       184        2.0000           -0.3420725              -9.3083 (HOMO)
       185                         -0.2784545              -7.5771 (LUMO)
       186                         -0.2773342              -7.5466
       187                         -0.2397554              -6.5241
       188                         -0.2395467              -6.5184
       189                         -0.2348507              -6.3906
       190                         -0.2335664              -6.3557
       191                         -0.2313376              -6.2950
       192                         -0.2299908              -6.2584
       193                         -0.2199302              -5.9846
       194                         -0.2197102              -5.9786
       195                         -0.2188697              -5.9557
       ...                                ...                  ...
       360                          0.6966206              18.9560
      -------------------------------------------------------------
                  HL-Gap            0.0636180 Eh            1.7311 eV

     #   Z          covCN         q      C6AA      α(0)
     1   6 C        3.763    -0.104    22.528     6.766
     2   6 C        3.909     0.017    20.225     6.392
     3   6 C        3.762    -0.104    22.528     6.766
     4   6 C        2.975     0.002    27.973     8.676
     5   6 C        2.926    -0.031    28.772     8.797
     6   6 C        2.913    -0.054    29.340     8.882
     7   6 C        2.877     0.136    25.026     8.201
     8   6 C        2.882    -0.093    30.323     9.028
     9   6 C        2.928    -0.044    29.091     8.845
    10   5 B        2.724     0.210    18.236     7.156
    11   6 C        2.882    -0.092    30.316     9.027
    12   6 C        2.924    -0.033    28.819     8.804
    13   6 C        2.916    -0.050    29.241     8.867
    14   6 C        2.928     0.073    26.359     8.420
    15   7 N        2.755    -0.070    22.593     7.060
    16   6 C        2.928     0.058    26.692     8.473
    17   6 C        2.924    -0.059    29.470     8.902
    18   6 C        2.920    -0.033    28.826     8.804
    19   6 C        2.917    -0.045    29.122     8.849
    20   6 C        2.928    -0.036    28.906     8.817
    21   6 C        2.979    -0.014    28.365     8.736
    22   6 C        3.909     0.021    20.157     6.381
    23   6 C        3.761    -0.103    22.511     6.764
    24   6 C        3.761    -0.103    22.509     6.763
    25   6 C        2.979    -0.014    28.365     8.736
    26   6 C        2.928    -0.036    28.906     8.817
    27   6 C        2.917    -0.045    29.125     8.850
    28   6 C        2.920    -0.033    28.832     8.805
    29   6 C        2.924    -0.059    29.476     8.903
    30   6 C        2.929     0.058    26.689     8.472
    31   6 C        2.919    -0.063    29.574     8.918
    32   6 C        2.876     0.140    24.940     8.187
    33   8 O        1.712    -0.219    17.637     5.670
    34   6 C        2.875     0.139    24.958     8.190
    35   6 C        2.913    -0.066    29.655     8.930
    36   6 C        2.923    -0.026    28.650     8.778
    37   6 C        2.913    -0.066    29.655     8.930
    38   6 C        2.875     0.140    24.939     8.186
    39   6 C        2.888    -0.120    31.057     9.137
    40   8 O        1.711    -0.220    17.658     5.674
    41   6 C        2.975     0.002    27.972     8.675
    42   6 C        2.926    -0.031    28.773     8.797
    43   6 C        2.913    -0.054    29.340     8.882
    44   6 C        2.877     0.136    25.026     8.201
    45   6 C        2.882    -0.093    30.321     9.027
    46   6 C        2.928    -0.044    29.089     8.845
    47   5 B        2.724     0.210    18.236     7.156
    48   6 C        2.882    -0.092    30.311     9.026
    49   6 C        2.924    -0.033    28.816     8.803
    50   6 C        2.916    -0.050    29.238     8.867
    51   6 C        2.928     0.074    26.352     8.419
    52   7 N        2.755    -0.070    22.603     7.061
    53   6 C        2.929     0.059    26.687     8.472
    54   6 C        2.924    -0.059    29.476     8.903
    55   6 C        2.920    -0.033    28.831     8.805
    56   6 C        2.917    -0.045    29.127     8.850
    57   6 C        2.928    -0.036    28.905     8.817
    58   6 C        2.979    -0.014    28.367     8.737
    59   6 C        3.909     0.021    20.157     6.381
    60   6 C        3.761    -0.103    22.510     6.763
    61   6 C        3.761    -0.103    22.510     6.763
    62   6 C        2.979    -0.014    28.368     8.737
    63   6 C        2.928    -0.036    28.905     8.817
    64   6 C        2.917    -0.045    29.125     8.850
    65   6 C        2.920    -0.033    28.827     8.805
    66   6 C        2.924    -0.059    29.472     8.903
    67   6 C        2.928     0.058    26.690     8.472
    68   6 C        2.919    -0.063    29.568     8.917
    69   6 C        2.876     0.140    24.939     8.187
    70   8 O        1.712    -0.219    17.633     5.670
    71   6 C        2.875     0.139    24.958     8.190
    72   6 C        2.913    -0.066    29.655     8.930
    73   6 C        2.923    -0.026    28.649     8.777
    74   6 C        2.913    -0.066    29.655     8.930
    75   6 C        2.875     0.140    24.938     8.186
    76   6 C        2.888    -0.120    31.057     9.137
    77   8 O        1.711    -0.220    17.655     5.673
    78   1 H        0.925     0.039     2.460     2.453
    79   1 H        0.925     0.038     2.481     2.463
    80   1 H        0.925     0.040     2.447     2.446
    81   1 H        0.925     0.038     2.481     2.463
    82   1 H        0.925     0.040     2.448     2.447
    83   1 H        0.925     0.039     2.460     2.453
    84   1 H        0.926     0.035     2.512     2.479
    85   1 H        0.926     0.045     2.379     2.412
    86   1 H        0.926     0.044     2.393     2.419
    87   1 H        0.926     0.043     2.410     2.428
    88   1 H        0.926     0.041     2.439     2.442
    89   1 H        0.926     0.023     2.681     2.560
    90   1 H        0.926     0.026     2.641     2.541
    91   1 H        0.926     0.025     2.658     2.550
    92   1 H        0.926     0.029     2.601     2.522
    93   1 H        0.925     0.039     2.467     2.456
    94   1 H        0.925     0.031     2.575     2.509
    95   1 H        0.925     0.039     2.466     2.456
    96   1 H        0.925     0.039     2.466     2.456
    97   1 H        0.925     0.039     2.468     2.457
    98   1 H        0.925     0.031     2.568     2.506
    99   1 H        0.926     0.029     2.600     2.522
   100   1 H        0.926     0.025     2.659     2.550
   101   1 H        0.926     0.026     2.644     2.543
   102   1 H        0.926     0.024     2.676     2.558
   103   1 H        0.926     0.054     2.265     2.353
   104   1 H        0.926     0.049     2.334     2.389
   105   1 H        0.926     0.045     2.387     2.416
   106   1 H        0.926     0.049     2.337     2.391
   107   1 H        0.926     0.035     2.512     2.478
   108   1 H        0.926     0.045     2.378     2.412
   109   1 H        0.926     0.044     2.394     2.419
   110   1 H        0.926     0.043     2.409     2.427
   111   1 H        0.926     0.041     2.438     2.442
   112   1 H        0.926     0.023     2.683     2.561
   113   1 H        0.926     0.026     2.645     2.543
   114   1 H        0.926     0.025     2.661     2.551
   115   1 H        0.926     0.029     2.602     2.522
   116   1 H        0.925     0.031     2.576     2.510
   117   1 H        0.925     0.039     2.467     2.456
   118   1 H        0.925     0.039     2.467     2.456
   119   1 H        0.925     0.039     2.468     2.457
   120   1 H        0.925     0.031     2.568     2.506
   121   1 H        0.925     0.039     2.467     2.456
   122   1 H        0.926     0.029     2.602     2.522
   123   1 H        0.926     0.025     2.660     2.550
   124   1 H        0.926     0.026     2.643     2.542
   125   1 H        0.926     0.023     2.687     2.563
   126   1 H        0.926     0.055     2.263     2.353
   127   1 H        0.926     0.049     2.333     2.389
   128   1 H        0.926     0.045     2.387     2.416
   129   1 H        0.926     0.049     2.336     2.390

molecular dipole:
                 x           y           z       tot (Debye)
 q only:        0.017      -0.055       0.008
   full:        0.020       0.131      -0.014       0.338

 projected vibrational frequencies (cm⁻¹)
eigval :       -0.00    -0.00     0.00     0.00     0.00     0.00
eigval :        3.35     3.93     5.09     7.67     9.76    17.17
eigval :       17.59    20.47    21.52    25.79    32.15    40.19
eigval :       46.21    58.11    62.75    72.41    76.36    77.17
eigval :       83.61    96.77    98.14   100.10   100.63   110.86
eigval :      118.68   119.91   128.99   129.25   137.46   141.99
eigval :      149.23   155.87   158.67   190.34   190.50   200.15
eigval :      200.39   218.54   218.88   223.09   224.04   225.47
eigval :      228.92   238.64   239.58   240.86   242.47   257.35
eigval :      259.46   266.57   273.89   281.35   293.23   296.92
eigval :      298.37   308.19   313.93   316.10   321.51   323.43
eigval :      330.62   331.18   331.95   345.07   345.53   351.51
eigval :      360.67   376.06   376.72   380.86   386.02   387.80
eigval :      390.30   393.31   396.93   409.69   411.56   414.10
eigval :      424.94   428.27   432.42   435.84   448.05   450.78
eigval :      451.24   453.95   462.08   467.83   469.83   491.21
eigval :      491.49   497.21   515.36   515.42   523.47   526.97
eigval :      531.87   534.11   536.49   545.90   546.65   547.46
eigval :      547.49   552.51   554.75   575.41   584.08   585.61
eigval :      587.83   588.58   593.82   608.16   609.80   622.49
eigval :      625.89   642.76   642.99   647.00   647.44   651.71
eigval :      658.87   677.51   677.76   682.42   682.59   687.56
eigval :      688.09   692.13   693.44   693.63   699.56   703.78
eigval :      717.95   718.60   725.15   733.35   745.27   772.57
eigval :      776.31   776.45   777.65   777.77   800.20   800.23
eigval :      806.50   814.27   815.35   826.66   826.94   830.57
eigval :      830.77   834.23   837.29   858.38   863.20   864.86
eigval :      865.27   865.59   865.99   870.93   870.96   873.78
eigval :      874.91   875.66   876.32   901.02   901.22   911.35
eigval :      912.21   912.61   912.77   913.47   913.61   916.93
eigval :      917.09   920.63   920.74   920.76   920.87   921.39
eigval :      921.41   923.17   925.30   925.39   938.47   938.51
eigval :      952.74   957.06   957.08   961.65   975.31   999.03
eigval :      999.37  1013.29  1014.34  1014.37  1055.29  1055.75
eigval :     1077.48  1077.51  1081.18  1081.73  1090.19  1090.57
eigval :     1098.07  1098.32  1113.06  1113.27  1118.79  1119.59
eigval :     1119.83  1126.86  1134.44  1136.13  1140.87  1140.96
eigval :     1152.20  1154.21  1160.47  1160.52  1165.31  1169.99
eigval :     1170.08  1171.67  1176.47  1180.28  1180.41  1187.55
eigval :     1187.72  1187.83  1188.02  1206.45  1206.50  1215.77
eigval :     1217.72  1222.70  1223.42  1228.17  1228.98  1244.23
eigval :     1245.48  1247.23  1249.22  1249.89  1250.23  1251.30
eigval :     1252.88  1268.84  1268.94  1272.61  1273.22  1282.16
eigval :     1284.95  1291.32  1292.29  1295.17  1295.25  1310.87
eigval :     1311.33  1326.05  1326.26  1333.09  1333.24  1336.88
eigval :     1337.24  1338.95  1341.20  1344.36  1344.55  1345.22
eigval :     1346.11  1388.28  1388.63  1397.28  1402.64  1402.68
eigval :     1409.94  1412.29  1415.54  1420.65  1420.70  1423.06
eigval :     1424.35  1430.30  1430.56  1437.28  1437.41  1444.71
eigval :     1445.01  1453.15  1454.58  1467.82  1468.29  1481.54
eigval :     1481.93  1490.24  1490.29  1491.19  1491.21  1497.00
eigval :     1497.96  1498.16  1500.70  1500.76  1502.84  1505.57
eigval :     1505.63  1509.27  1512.74  1530.79  1531.13  1542.65
eigval :     1544.57  1564.08  1564.60  1575.61  1575.66  1580.55
eigval :     1580.80  1588.47  1589.00  1591.82  1592.03  1593.49
eigval :     1593.53  1599.82  1602.89  1603.65  1603.76  3022.16
eigval :     3025.53  3026.46  3026.53  3028.75  3028.76  3028.88
eigval :     3035.99  3038.77  3038.82  3041.29  3041.52  3041.62
eigval :     3041.69  3047.76  3047.81  3051.78  3051.91  3076.78
eigval :     3076.90  3076.98  3077.15  3080.55  3081.57  3081.69
eigval :     3081.85  3081.91  3082.11  3088.73  3089.03  3089.63
eigval :     3089.74  3092.84  3093.22  3093.29  3093.72  3098.80
eigval :     3098.99  3099.24  3099.86  3100.31  3100.96  3102.86
eigval :     3103.03  3107.84  3107.91  3111.36  3111.56  3111.63
eigval :     3112.36  3136.22  3136.65

   temp. (K)  partition function   enthalpy   heat capacity  entropy
                                   cal/mol     cal/K/mol   cal/K/mol   J/K/mol
 298.15  VIB  0.227E+32            38011.909    239.420    238.434
         ROT  0.566E+09              888.752      2.981     43.033
         INT  0.129E+41            38900.661    242.401    281.467
         TR   0.304E+29             1481.254      4.968     46.545
         TOT                       40381.9153   247.3692   328.0121  1372.4025

       T/K    H(0)-H(T)+PV         H(T)/Eh          T*S/Eh         G(T)/Eh
   ------------------------------------------------------------------------
    298.15    0.643527E-01    0.106833E+01    0.155849E+00    0.912480E+00
   ------------------------------------------------------------------------

         :::::::::::::::::::::::::::::::::::::::::::::::::::::
         ::                  THERMODYNAMIC                  ::
         :::::::::::::::::::::::::::::::::::::::::::::::::::::
         :: total free energy        -198.112645486314 Eh   ::
         ::.................................................::
         :: total energy             -199.025125526760 Eh   ::
         :: zero point energy           1.003976482859 Eh   ::
         :: G(RRHO) w/o ZPVE           -0.091496442413 Eh   ::
         :: G(RRHO) contrib.            0.912480040447 Eh   ::
         :::::::::::::::::::::::::::::::::::::::::::::::::::::

           -------------------------------------------------
          | TOTAL ENERGY             -199.025125526760 Eh   |
          | TOTAL ENTHALPY           -197.956796365703 Eh   |
          | TOTAL FREE ENERGY        -198.112645486314 Eh   |
          | GRADIENT NORM               0.000058587520 Eh/α |
          | HOMO-LUMO GAP               1.731133636979 eV   |
           -------------------------------------------------

 * finished run on 2025/07/18 at 08:19:28.062
