   * xtb version 6.7.1 (edcfbbe) compiled by 'albert@albert-system' on 2024-07-22

   ID    Z sym.   atoms
    1    6 C      1-9, 11-14, 16-32, 34-39, 41-46, 48-51, 53-69, 71-76
    2    5 B      10, 47
    3    7 N      15, 52
    4    8 O      33, 40, 70, 77
    5    1 H      78-129

          program call               : xtb data2507/gas/Me2ACBO/Me2ACBO_gas_S0_crest.xyz --gfn 2 --ohess vtight --parallel 40 --molden --ceasefiles --namespace data2507/gas/Me2ACBO/Me2ACBO_gas_S0_finalOpt
          :  Hamiltonian                  GFN2-xTB          :
 * total energy  :  -199.0370137 Eh     change       -0.1315138E-07 Eh
 * total energy  :  -199.0370160 Eh     change       -0.2371343E-05 Eh
 * total energy  :  -199.0370195 Eh     change       -0.3458841E-05 Eh
 * total energy  :  -199.0370246 Eh     change       -0.5101077E-05 Eh
 * total energy  :  -199.0370278 Eh     change       -0.3211124E-05 Eh
 * total energy  :  -199.0370306 Eh     change       -0.2755818E-05 Eh
 * total energy  :  -199.0370339 Eh     change       -0.3354861E-05 Eh
 * total energy  :  -199.0370381 Eh     change       -0.4177180E-05 Eh
 * total energy  :  -199.0370429 Eh     change       -0.4787500E-05 Eh
 * total energy  :  -199.0370482 Eh     change       -0.5330690E-05 Eh
 * total energy  :  -199.0371070 Eh     change       -0.2596335E-06 Eh
 * total energy  :  -199.0371071 Eh     change       -0.1569223E-06 Eh
 * total energy  :  -199.0371072 Eh     change       -0.1194781E-06 Eh
 * total energy  :  -199.0371074 Eh     change       -0.1210290E-06 Eh
 * total energy  :  -199.0371075 Eh     change       -0.1346199E-06 Eh
 * total energy  :  -199.0371076 Eh     change       -0.1521230E-06 Eh
 * total energy  :  -199.0371078 Eh     change       -0.1506130E-06 Eh
 * total energy  :  -199.0371079 Eh     change       -0.1458205E-06 Eh
 * total energy  :  -199.0371079 Eh     change       -0.1978123E-08 Eh
   *** GEOMETRY OPTIMIZATION CONVERGED AFTER 44 ITERATIONS ***

 final structure:
================
129
 xtb: 6.7.1 (edcfbbe)
C           -7.27033803194410        2.00736770311622       -2.09078907944541
C           -5.89085520143156        1.37562755774886       -1.85271890792793
C           -5.20074968392114        1.24030202154884       -3.22261815126776
C           -5.07929662647084        2.25312928177708       -0.90798197098621
C           -5.70757270479795        2.91734196523061        0.14961228027963
C           -5.00872607396230        3.76984300277728        0.97238025575194
C           -3.63828422051150        3.95693517144219        0.79219155862118
C           -2.94379159261592        3.20876380043772       -0.17484039680887
C           -3.70770843789715        2.39928177861734       -1.02591655852415
B           -1.41141912791510        3.37708681524111       -0.20686866333640
C           -0.26649852057497        2.55266419145784       -0.83595081527792
C           -0.35402129983706        1.23918631047720       -1.31827865141695
C            0.74279588214526        0.55345050366936       -1.78642874503913
C            1.99005766358702        1.18193815720555       -1.83757292257467
N            3.11569685487209        0.48019563288066       -2.33350051434132
C            4.15206677185489        0.13300530668129       -1.47328344670194
C            4.12727923024259        0.54718264666069       -0.13929615214104
C            5.14205134259346        0.21793503469085        0.73314507815987
C            6.20116879448834       -0.55411061307844        0.29585325427122
C            6.21963704010438       -0.98572130454312       -1.01658909166064
C            5.21740594919835       -0.65672819922539       -1.91920833351589
C            5.30768288397565       -1.17185511580112       -3.34299948714109
C            5.26909368064727       -2.71042664530994       -3.32012863863911
C            6.63013849860718       -0.68102781794644       -3.96090246031996
C            4.15969472753492       -0.67183022020646       -4.19732745972255
C            4.11617720521448       -1.00705428579154       -5.54402079786009
C            3.11403167712389       -0.55553068463488       -6.38185519764364
C            2.13201267955159        0.27381974934655       -5.87125313808579
C            2.14778559001864        0.61574378321911       -4.53585613502087
C            3.13900628792721        0.12993323525682       -3.67686254246807
C            2.11496801526018        2.48218108184936       -1.38433952375254
C            1.01232913149815        3.14444552379106       -0.84290045802031
O            1.29616329872852        4.36810359911366       -0.31789352221393
C            0.40775888570986        5.01822509223688        0.47518655189298
C            0.85510093734426        6.13261441729521        1.17522913741030
C           -0.02262101459655        6.79549400220553        2.01670304744974
C           -1.33313965013919        6.37804482012719        2.16690501325910
C           -1.78188133590089        5.27766372288969        1.44342350472395
C           -0.91846224482488        4.57856684817086        0.58782996835094
O           -3.06979210899573        4.89431769439185        1.60234731539922
C           -5.98636120948848       -0.03212374050129       -1.27573830504171
C           -7.11491217866364       -0.83681989264801       -1.43113237808263
C           -7.10239945956388       -2.15595274919594       -1.03053366740848
C           -5.95458303693607       -2.71321014978517       -0.46735595488175
C           -4.82366535708546       -1.91322116987341       -0.23231669319900
C           -4.87875036738687       -0.58661553345147       -0.66202421381875
B           -3.58801015877056       -2.59521790077917        0.38594010914402
C           -2.25423269814261       -2.04924687128954        0.90739894457344
C           -1.95066544255005       -0.72562795899337        1.25349813252698
C           -0.69866073824168       -0.32200721270036        1.64510384324826
C            0.37067436662190       -1.23276306499523        1.65669586149726
N            1.66719067468701       -0.86811241382569        1.97053402347143
C            2.03979189984467        0.30933864630774        2.64595687370124
C            1.67046935958083        1.56867461248745        2.18722955116026
C            2.08782624980811        2.70548123023978        2.85446673301320
C            2.90721782142909        2.59089823099009        3.96162770642174
C            3.32288686067213        1.34074153144194        4.38829044050100
C            2.90063059043333        0.18810956647491        3.74519360886471
C            3.31997639688854       -1.21231064591019        4.15551915513625
C            4.49848880463414       -1.21430924644122        5.12865937868735
C            2.12821598588613       -1.90725513889414        4.84521211862244
C            3.63349555817724       -1.94549181682722        2.86419238497230
C            4.72928575938023       -2.77219651217299        2.67072244800417
C            4.92528319533465       -3.41745444688835        1.46252570030453
C            4.03507986779714       -3.23093225377099        0.41966868834283
C            2.94751104153732       -2.39840310571385        0.58659925128273
C            2.73730494963598       -1.77019728910150        1.80844166774452
C            0.07220446183058       -2.57498977550793        1.42432856818227
C           -1.21337555024005       -2.98116526639808        1.08995188615494
O           -1.36546086970048       -4.33233513965049        0.97197394552726
C           -2.57578299661233       -4.89721294581977        0.73652216193711
C           -2.67306250378740       -6.28313126928919        0.79595154955889
C           -3.89584333430213       -6.88310019102193        0.54819912715022
C           -5.01688956982178       -6.13775037606138        0.22538306785929
C           -4.91047613343598       -4.75316215114337        0.14861270724191
C           -3.69311989466896       -4.11309933694565        0.41987817384544
O           -6.01808446389279       -4.04903106040367       -0.19627496150111
H           -7.92330979606548        1.88799545606083       -1.23058187506182
H           -7.75551846608968        1.55061544241194       -2.95003479882680
H           -7.15543966840374        3.06972584372842       -2.29666939302075
H           -4.98577719368605        2.22239397949055       -3.63872547813714
H           -5.85669506697070        0.70761974358448       -3.90807488677357
H           -4.27715988818778        0.67265042494985       -3.15007290902756
H           -6.76291020563495        2.78636295040751        0.32487077010694
H           -5.50786820670124        4.31993269537212        1.75532541535206
H           -3.17568536530768        1.89595095220198       -1.81676745507684
H           -1.30772701113746        0.73629483812450       -1.27807947354586
H            0.65039954692672       -0.46846343907039       -2.12290739148366
H            3.30123697265508        1.13253022999549        0.22777196734897
H            5.09363580287956        0.56450527448352        1.75481142170943
H            7.00098271271847       -0.82446072107205        0.96790487609331
H            7.04477254597489       -1.60043700453194       -1.34318194179099
H            4.30877740723770       -3.04844110597021       -2.93525383568855
H            6.05605265226501       -3.10866267760738       -2.68527984790969
H            5.39774553333428       -3.11523664574128       -4.32052947707361
H            6.65486919902660        0.40707338503290       -3.96158376260008
H            7.48295357875410       -1.04289657840563       -3.39378589003817
H            6.73475423413755       -1.02642745886051       -4.98550130700179
H            4.88599722053786       -1.64076128225599       -5.95771210959344
H            3.10844320479083       -0.83850891751528       -7.42338001217160
H            1.35292599384210        0.65987982119405       -6.51165475522985
H            1.38563684908948        1.27574451365007       -4.15160328748256
H            3.06964697131216        2.98497943675578       -1.40236927299882
H            1.87789911401939        6.45594452394003        1.06441855341416
H            0.32482002183335        7.65503571204196        2.56977905569072
H           -2.01355538105238        6.89546203881685        2.82392065802278
H           -8.00957511238842       -0.44778612102210       -1.89060809409194
H           -7.96662544425412       -2.78590265763152       -1.17742774654327
H           -3.99463938181127        0.01488199099606       -0.52730870821558
H           -2.74388338206845        0.00718250347544        1.23723417985524
H           -0.55719604366871        0.69852333007023        1.95552990210487
H            1.08384674171624        1.66129845861448        1.28788445440330
H            1.78543435207240        3.67878708325055        2.49820155323875
H            3.23913786585474        3.47446351836577        4.48559842603819
H            3.98360921178387        1.27808474700170        5.23770842736937
H            5.36870705001019       -0.73118638073038        4.68979668185421
H            4.23026709835672       -0.69807120375042        6.04716765693367
H            4.75840742634462       -2.23525731464428        5.39707662642960
H            1.86414363888560       -1.37152617418817        5.75487566288084
H            1.25377195639366       -1.93837076634633        4.20127516164726
H            2.39740636083480       -2.92868029338583        5.10633205245413
H            5.44245917169850       -2.92717163554758        3.46410253009334
H            5.78029285004476       -4.06398350109933        1.33418411578386
H            4.19553196756878       -3.72466779511925       -0.52601998421757
H            2.25669615964945       -2.22280632045556       -0.22423376089766
H            0.82722992447343       -3.33755739378147        1.53361254313197
H           -1.80119416795349       -6.86914685657423        1.03927588379760
H           -3.97592197354716       -7.95853796391129        0.60221265961714
H           -5.96397443254361       -6.61168751268958        0.02253524677803

          :  Hamiltonian                  GFN2-xTB          :
         :: gradient norm              0.000026817798 Eh/a0 ::
         :: HOMO-LUMO gap              1.815635503488 eV    ::
         :: SCC energy              -202.427400078841 Eh    ::
         :: -> dispersion             -0.212517875189 Eh    ::
         :: repulsion energy           3.390292140516 Eh    ::

    * Orbital Energies and Occupations

         #    Occupation            Energy/Eh            Energy/eV
      -------------------------------------------------------------
         1        2.0000           -0.7330167             -19.9464
       ...           ...                  ...                  ...
       172        2.0000           -0.3965608             -10.7910
       173        2.0000           -0.3959477             -10.7743
       174        2.0000           -0.3939661             -10.7204
       175        2.0000           -0.3925690             -10.6823
       176        2.0000           -0.3895267             -10.5996
       177        2.0000           -0.3869218             -10.5287
       178        2.0000           -0.3861679             -10.5082
       179        2.0000           -0.3837891             -10.4434
       180        2.0000           -0.3802722             -10.3477
       181        2.0000           -0.3703132             -10.0767
       182        2.0000           -0.3629274              -9.8758
       183        2.0000           -0.3497147              -9.5162
       184        2.0000           -0.3423316              -9.3153 (HOMO)
       185                         -0.2756082              -7.4997 (LUMO)
       186                         -0.2638535              -7.1798
       187                         -0.2380628              -6.4780
       188                         -0.2325218              -6.3272
       189                         -0.2297101              -6.2507
       190                         -0.2282230              -6.2103
       191                         -0.2260936              -6.1523
       192                         -0.2250202              -6.1231
       193                         -0.2214956              -6.0272
       194                         -0.2202091              -5.9922
       195                         -0.2194281              -5.9709
       ...                                ...                  ...
       360                          0.7147809              19.4502
      -------------------------------------------------------------
                  HL-Gap            0.0667234 Eh            1.8156 eV

     #   Z          covCN         q      C6AA      α(0)
     1   6 C        3.760    -0.105    22.560     6.771
     2   6 C        3.907     0.018    20.220     6.391
     3   6 C        3.764    -0.104    22.523     6.765
     4   6 C        2.968     0.003    27.948     8.671
     5   6 C        2.927    -0.033    28.828     8.805
     6   6 C        2.913    -0.055    29.370     8.887
     7   6 C        2.877     0.136    25.037     8.203
     8   6 C        2.884    -0.094    30.359     9.033
     9   6 C        2.929    -0.041    29.024     8.835
    10   5 B        2.727     0.214    18.173     7.142
    11   6 C        2.884    -0.094    30.355     9.033
    12   6 C        2.922    -0.032    28.791     8.799
    13   6 C        2.917    -0.049    29.205     8.862
    14   6 C        2.926     0.073    26.379     8.423
    15   7 N        2.753    -0.068    22.553     7.053
    16   6 C        2.925     0.059    26.688     8.472
    17   6 C        2.925    -0.060    29.495     8.906
    18   6 C        2.920    -0.032    28.788     8.799
    19   6 C        2.918    -0.043    29.078     8.843
    20   6 C        2.929    -0.037    28.909     8.818
    21   6 C        2.980    -0.014    28.354     8.735
    22   6 C        3.909     0.022    20.152     6.381
    23   6 C        3.761    -0.101    22.466     6.757
    24   6 C        3.761    -0.104    22.528     6.766
    25   6 C        2.980    -0.014    28.352     8.734
    26   6 C        2.928    -0.037    28.909     8.817
    27   6 C        2.917    -0.045    29.111     8.848
    28   6 C        2.920    -0.033    28.834     8.806
    29   6 C        2.925    -0.059    29.454     8.900
    30   6 C        2.929     0.058    26.694     8.473
    31   6 C        2.918    -0.065    29.606     8.923
    32   6 C        2.876     0.141    24.933     8.186
    33   8 O        1.711    -0.225    17.723     5.684
    34   6 C        2.875     0.140    24.945     8.188
    35   6 C        2.912    -0.067    29.663     8.931
    36   6 C        2.923    -0.027    28.669     8.781
    37   6 C        2.912    -0.066    29.648     8.929
    38   6 C        2.875     0.141    24.931     8.185
    39   6 C        2.890    -0.121    31.080     9.140
    40   8 O        1.711    -0.224    17.713     5.682
    41   6 C        2.973     0.001    28.009     8.681
    42   6 C        2.925    -0.036    28.899     8.816
    43   6 C        2.914    -0.056    29.393     8.890
    44   6 C        2.875     0.135    25.048     8.204
    45   6 C        2.885    -0.093    30.325     9.028
    46   6 C        2.932    -0.044    29.101     8.847
    47   5 B        2.728     0.208    18.261     7.159
    48   6 C        2.884    -0.103    30.607     9.070
    49   6 C        2.923    -0.034    28.840     8.807
    50   6 C        2.918    -0.067    29.678     8.933
    51   6 C        2.912     0.070    26.443     8.432
    52   7 N        2.754    -0.068    22.566     7.055
    53   6 C        2.944     0.059    26.685     8.472
    54   6 C        2.921    -0.048    29.193     8.860
    55   6 C        2.919    -0.033    28.827     8.804
    56   6 C        2.919    -0.038    28.935     8.821
    57   6 C        2.923    -0.039    28.966     8.826
    58   6 C        2.988    -0.007    28.184     8.708
    59   6 C        3.911     0.023    20.123     6.376
    60   6 C        3.759    -0.106    22.566     6.772
    61   6 C        3.762    -0.100    22.448     6.754
    62   6 C        2.988    -0.008    28.199     8.711
    63   6 C        2.923    -0.038    28.942     8.822
    64   6 C        2.920    -0.036    28.906     8.817
    65   6 C        2.920    -0.031    28.780     8.797
    66   6 C        2.921    -0.042    29.038     8.837
    67   6 C        2.953     0.057    26.711     8.477
    68   6 C        2.923    -0.084    30.091     8.996
    69   6 C        2.875     0.138    24.996     8.196
    70   8 O        1.711    -0.229    17.793     5.695
    71   6 C        2.872     0.139    24.960     8.190
    72   6 C        2.912    -0.068    29.686     8.934
    73   6 C        2.923    -0.028    28.708     8.787
    74   6 C        2.913    -0.068    29.684     8.934
    75   6 C        2.873     0.139    24.960     8.190
    76   6 C        2.891    -0.121    31.077     9.140
    77   8 O        1.710    -0.229    17.791     5.695
    78   1 H        0.925     0.038     2.479     2.462
    79   1 H        0.925     0.039     2.464     2.455
    80   1 H        0.925     0.037     2.486     2.466
    81   1 H        0.925     0.040     2.451     2.448
    82   1 H        0.925     0.038     2.480     2.462
    83   1 H        0.925     0.037     2.482     2.464
    84   1 H        0.926     0.041     2.436     2.441
    85   1 H        0.926     0.044     2.393     2.419
    86   1 H        0.926     0.043     2.408     2.427
    87   1 H        0.926     0.043     2.411     2.428
    88   1 H        0.926     0.037     2.486     2.466
    89   1 H        0.926     0.029     2.601     2.522
    90   1 H        0.926     0.022     2.710     2.574
    91   1 H        0.926     0.024     2.673     2.557
    92   1 H        0.926     0.030     2.589     2.516
    93   1 H        0.925     0.030     2.582     2.513
    94   1 H        0.925     0.038     2.475     2.460
    95   1 H        0.925     0.038     2.469     2.457
    96   1 H        0.925     0.032     2.564     2.504
    97   1 H        0.925     0.039     2.461     2.453
    98   1 H        0.925     0.039     2.462     2.454
    99   1 H        0.926     0.029     2.594     2.519
   100   1 H        0.926     0.026     2.650     2.546
   101   1 H        0.926     0.027     2.633     2.538
   102   1 H        0.926     0.026     2.650     2.546
   103   1 H        0.926     0.054     2.269     2.356
   104   1 H        0.926     0.047     2.354     2.399
   105   1 H        0.926     0.044     2.402     2.424
   106   1 H        0.926     0.048     2.347     2.395
   107   1 H        0.926     0.039     2.458     2.452
   108   1 H        0.926     0.042     2.422     2.434
   109   1 H        0.926     0.039     2.463     2.454
   110   1 H        0.926     0.034     2.523     2.484
   111   1 H        0.926     0.033     2.546     2.495
   112   1 H        0.926     0.034     2.525     2.485
   113   1 H        0.926     0.031     2.571     2.508
   114   1 H        0.926     0.032     2.563     2.504
   115   1 H        0.926     0.039     2.467     2.456
   116   1 H        0.925     0.038     2.477     2.461
   117   1 H        0.925     0.039     2.456     2.451
   118   1 H        0.925     0.040     2.444     2.445
   119   1 H        0.925     0.037     2.484     2.465
   120   1 H        0.925     0.038     2.477     2.461
   121   1 H        0.925     0.038     2.469     2.457
   122   1 H        0.926     0.038     2.471     2.458
   123   1 H        0.926     0.032     2.560     2.502
   124   1 H        0.926     0.035     2.522     2.484
   125   1 H        0.926     0.034     2.534     2.489
   126   1 H        0.926     0.044     2.396     2.421
   127   1 H        0.926     0.045     2.386     2.416
   128   1 H        0.926     0.041     2.439     2.442
   129   1 H        0.926     0.045     2.383     2.414

molecular dipole:
                 x           y           z       tot (Debye)
 q only:        0.297       0.350       0.187
   full:        0.251       0.381       0.246       1.318

 projected vibrational frequencies (cm⁻¹)
eigval :       -0.00    -0.00     0.00     0.00     0.00     0.00
eigval :        9.62    16.57    21.14    21.67    27.51    29.70
eigval :       37.70    39.52    40.98    48.35    50.18    59.34
eigval :       60.20    68.47    75.95    77.54    78.89    84.70
eigval :       87.36   101.38   107.90   114.13   118.96   128.15
eigval :      133.49   136.49   141.24   142.99   151.08   161.11
eigval :      168.61   182.70   187.41   192.53   197.67   201.15
eigval :      208.87   216.63   217.90   221.67   228.89   231.97
eigval :      234.02   238.39   242.15   247.06   259.71   264.83
eigval :      269.76   275.67   285.10   289.36   291.72   300.59
eigval :      303.39   308.59   315.93   319.50   324.60   334.14
eigval :      336.18   341.07   348.12   348.75   358.44   360.83
eigval :      371.08   377.94   381.05   382.69   384.15   388.48
eigval :      397.52   406.91   410.74   411.33   414.60   422.25
eigval :      427.02   432.77   439.38   442.37   455.13   455.70
eigval :      459.07   461.34   464.09   468.91   469.33   491.38
eigval :      494.60   499.24   502.58   516.13   521.87   529.23
eigval :      533.29   535.98   539.47   548.20   550.04   551.67
eigval :      553.99   561.49   570.28   574.83   580.87   585.61
eigval :      588.00   590.19   593.12   599.96   603.88   608.36
eigval :      617.61   623.88   639.63   641.79   645.96   649.28
eigval :      665.99   676.88   678.63   683.47   684.90   686.11
eigval :      692.99   694.44   695.16   698.12   703.73   713.42
eigval :      716.50   722.37   724.28   731.14   743.89   772.12
eigval :      776.61   778.04   779.88   784.96   798.44   800.12
eigval :      803.65   811.02   813.77   821.90   826.08   827.80
eigval :      829.93   834.85   838.63   857.09   861.85   864.62
eigval :      867.98   868.14   869.49   871.74   883.49   884.33
eigval :      888.72   891.77   898.14   903.19   905.77   907.32
eigval :      913.08   913.24   914.03   914.48   915.35   916.07
eigval :      916.70   919.96   920.30   921.22   921.40   921.62
eigval :      924.30   926.68   927.12   938.60   943.59   949.36
eigval :      954.24   957.11   960.32   966.95   977.28   997.38
eigval :      998.08  1010.00  1014.36  1015.72  1051.99  1053.21
eigval :     1074.77  1077.53  1079.17  1080.55  1088.43  1090.22
eigval :     1096.18  1096.65  1102.48  1111.21  1112.68  1116.05
eigval :     1121.75  1132.73  1135.06  1139.51  1141.66  1144.73
eigval :     1152.34  1155.44  1160.50  1170.04  1170.85  1171.37
eigval :     1172.02  1176.16  1177.68  1181.18  1182.53  1188.27
eigval :     1189.40  1191.45  1198.04  1210.25  1211.65  1218.43
eigval :     1220.66  1223.04  1224.88  1233.58  1235.34  1241.63
eigval :     1245.06  1248.75  1250.42  1251.71  1252.23  1254.59
eigval :     1262.26  1269.37  1270.36  1270.94  1274.73  1277.09
eigval :     1287.48  1288.22  1291.94  1295.98  1296.73  1307.80
eigval :     1310.91  1322.79  1324.63  1328.59  1330.46  1330.58
eigval :     1332.16  1335.88  1336.41  1338.84  1342.68  1342.69
eigval :     1348.07  1388.90  1397.80  1399.10  1401.53  1403.35
eigval :     1407.35  1416.34  1416.53  1418.51  1420.10  1423.64
eigval :     1425.08  1429.75  1431.08  1437.09  1441.38  1442.96
eigval :     1445.00  1455.77  1456.71  1458.13  1466.31  1473.12
eigval :     1479.20  1488.32  1489.54  1490.59  1491.26  1493.99
eigval :     1496.21  1496.85  1500.81  1504.31  1506.36  1508.28
eigval :     1513.21  1523.62  1525.07  1527.26  1528.59  1542.21
eigval :     1546.89  1564.59  1566.30  1575.84  1576.12  1577.30
eigval :     1577.75  1585.78  1586.58  1589.26  1591.17  1591.85
eigval :     1594.33  1594.77  1598.37  1602.66  1604.37  3024.50
eigval :     3025.38  3025.94  3027.21  3028.39  3028.51  3029.35
eigval :     3030.54  3033.75  3036.67  3036.90  3042.43  3044.71
eigval :     3045.50  3045.52  3046.58  3053.31  3055.44  3077.77
eigval :     3078.18  3082.68  3082.89  3082.98  3083.34  3083.49
eigval :     3085.28  3086.39  3087.57  3088.69  3089.46  3093.31
eigval :     3093.51  3094.52  3096.15  3101.46  3101.65  3102.06
eigval :     3103.05  3104.38  3105.72  3106.24  3106.71  3108.25
eigval :     3109.60  3110.55  3111.15  3111.77  3113.50  3115.13
eigval :     3118.36  3128.37  3132.89

   temp. (K)  partition function   enthalpy   heat capacity  entropy
                                   cal/mol     cal/K/mol   cal/K/mol   J/K/mol
 298.15  VIB  0.147E+27            37176.694    241.258    225.630
         ROT  0.212E+09              888.752      2.981     41.078
         INT  0.311E+35            38065.446    244.239    266.708
         TR   0.304E+29             1481.254      4.968     46.545
         TOT                       39546.6999   249.2074   313.2527  1310.6492

       T/K    H(0)-H(T)+PV         H(T)/Eh          T*S/Eh         G(T)/Eh
   ------------------------------------------------------------------------
    298.15    0.630217E-01    0.106938E+01    0.148836E+00    0.920545E+00
   ------------------------------------------------------------------------

         :::::::::::::::::::::::::::::::::::::::::::::::::::::
         ::                  THERMODYNAMIC                  ::
         :::::::::::::::::::::::::::::::::::::::::::::::::::::
         :: total free energy        -198.116562689307 Eh   ::
         ::.................................................::
         :: total energy             -199.037107938334 Eh   ::
         :: zero point energy           1.006360026264 Eh   ::
         :: G(RRHO) w/o ZPVE           -0.085814777237 Eh   ::
         :: G(RRHO) contrib.            0.920545249027 Eh   ::
         :::::::::::::::::::::::::::::::::::::::::::::::::::::

           -------------------------------------------------
          | TOTAL ENERGY             -199.037107938334 Eh   |
          | TOTAL ENTHALPY           -197.967726234279 Eh   |
          | TOTAL FREE ENERGY        -198.116562689307 Eh   |
          | GRADIENT NORM               0.000026815663 Eh/α |
          | HOMO-LUMO GAP               1.815635953932 eV   |
           -------------------------------------------------

 * finished run on 2025/07/18 at 08:31:31.196
