   * xtb version 6.7.1 (edcfbbe) compiled by 'albert@albert-system' on 2024-07-22

   ID    Z sym.   atoms
    1    6 C      1-9, 11-14, 16-32, 34-39, 41-46, 48-51, 53-69, 71-76
    2    5 B      10, 47
    3    7 N      15, 52
    4    8 O      33, 40, 70, 77
    5    1 H      78-129

          program call               : xtb data2507/gas/Me2ACBO/Me2ACBO_gas_S0_finalOpt.xtbopt.xyz --gfn 2 --spinpol --tblite --uhf 2 --ohess vtight --parallel 40 --molden --ceasefiles --namespace data2507/gas/Me2ACBO/Me2ACBO_gas_T1_preOpt
 * total energy  :  -198.9504911 Eh     change       -0.1293557E-07 Eh
 * total energy  :  -198.9512228 Eh     change       -0.7316682E-03 Eh
 * total energy  :  -198.9514029 Eh     change       -0.1800805E-03 Eh
 * total energy  :  -198.9514202 Eh     change       -0.1727092E-04 Eh
 * total energy  :  -198.9514355 Eh     change       -0.1531135E-04 Eh
 * total energy  :  -198.9514418 Eh     change       -0.6386308E-05 Eh
 * total energy  :  -198.9514591 Eh     change       -0.1720327E-04 Eh
 * total energy  :  -198.9514641 Eh     change       -0.5001468E-05 Eh
 * total energy  :  -198.9514710 Eh     change       -0.6926281E-05 Eh
 * total energy  :  -198.9514741 Eh     change       -0.3158779E-05 Eh
 * total energy  :  -198.9514860 Eh     change       -0.2118566E-05 Eh
 * total energy  :  -198.9514880 Eh     change       -0.2046213E-05 Eh
 * total energy  :  -198.9514894 Eh     change       -0.1335151E-05 Eh
 * total energy  :  -198.9514901 Eh     change       -0.7967498E-06 Eh
 * total energy  :  -198.9514908 Eh     change       -0.6139947E-06 Eh
 * total energy  :  -198.9514917 Eh     change       -0.9038161E-06 Eh
 * total energy  :  -198.9514925 Eh     change       -0.8279249E-06 Eh
 * total energy  :  -198.9514925 Eh     change        0.1268424E-07 Eh
 * total energy  :  -198.9514925 Eh     change       -0.5480672E-08 Eh
   *** GEOMETRY OPTIMIZATION CONVERGED AFTER 22 ITERATIONS ***

 final structure:
================
129
 xtb: 6.7.1 (edcfbbe)
C           -7.27571777654407        2.00766452636374       -2.08771624251783
C           -5.89563812401890        1.37587003973954       -1.85221415728316
C           -5.20429193323156        1.25227212338922       -3.22314931332724
C           -5.08528735216999        2.24627025515974       -0.89958320187152
C           -5.71636356523178        2.91097462581634        0.15377684359538
C           -5.01105735491743        3.76634344584570        0.97603057675468
C           -3.64202256799210        3.94539287046143        0.79908406271583
C           -2.93968049072671        3.18831033905283       -0.16155019261262
C           -3.70874024972374        2.38568878788040       -1.01374855923197
B           -1.40862081180607        3.36047129375029       -0.19894168050834
C           -0.26622911539177        2.53885246571309       -0.81593224134509
C           -0.34678132829358        1.21771861113700       -1.29680586633187
C            0.75103497230236        0.53323422443200       -1.76756772748613
C            1.99496235413502        1.16173430586889       -1.81707785505828
N            3.12576099660081        0.46124276359268       -2.32001215391449
C            4.15281461495674        0.10446206575107       -1.46490656476674
C            4.12229218059769        0.51099020078448       -0.12494940326474
C            5.13998718368212        0.18622745976177        0.74317324204533
C            6.20355459194127       -0.58068698515021        0.30143420710512
C            6.22668470925154       -1.00902568863309       -1.01275469583645
C            5.22583142175659       -0.67846830412123       -1.91525540230055
C            5.31677247154143       -1.18045384070309       -3.34178133545048
C            5.27111065871328       -2.71963556436806       -3.33206203096252
C            6.64354765818930       -0.69142717005879       -3.95322638008613
C            4.17452999826634       -0.66771871580598       -4.19330943123605
C            4.12863186765012       -0.98888104414682       -5.54297003635229
C            3.12695447153306       -0.52254816016456       -6.37382481659131
C            2.14646763332940        0.30696663914192       -5.85474602619143
C            2.16157370373651        0.63349814096715       -4.51735157233036
C            3.15414459242061        0.13379848711942       -3.66311231700585
C            2.12202307651474        2.46837985019353       -1.35415216968851
C            1.02149478024265        3.12755380677287       -0.82236274878868
O            1.30316970222421        4.35998282972628       -0.30519582668702
C            0.40501554106339        5.01284532481302        0.48706098364635
C            0.85385879168765        6.12537179489525        1.18858514699203
C           -0.02450073280484        6.79612653915291        2.02723898910764
C           -1.33680840594403        6.37512955539768        2.16861960158229
C           -1.77992588104280        5.27175284892386        1.44592147468677
C           -0.91840902281293        4.56956428321975        0.59163943746654
O           -3.07255571915946        4.88786419968050        1.60683877024627
C           -5.99090915466389       -0.03678324371862       -1.29090123435567
C           -7.11867019098992       -0.84135002384651       -1.45897881757300
C           -7.10054944475347       -2.16776435277776       -1.07027224131257
C           -5.95445063625097       -2.72339473550589       -0.50632154980177
C           -4.82093880299789       -1.92147817851626       -0.25335187420902
C           -4.88115627192315       -0.59197685448065       -0.67703568969918
B           -3.59571328340000       -2.60375835071994        0.37089713363565
C           -2.26911172840730       -2.05909201571043        0.90733634605736
C           -1.97503602294464       -0.73046639972120        1.26572351025557
C           -0.72634480689142       -0.32164460914673        1.66408589384867
C            0.34542609174025       -1.23025208117675        1.68370793286282
N            1.64213771948198       -0.86727646469680        2.00555535387692
C            2.02371249684232        0.31858552056660        2.65613556944782
C            1.63677808548597        1.57265178286498        2.19264326191648
C            2.06204795360777        2.71644544013737        2.84115510309521
C            2.90221506422063        2.61590692784723        3.93521129853770
C            3.33765754755038        1.37194863861325        4.36243545049927
C            2.91524657815307        0.21171055483936        3.73464252915257
C            3.35915062532437       -1.18178237899419        4.14069861572806
C            4.56576271325959       -1.16699876025781        5.07886630584059
C            2.19483761895243       -1.88472325660118        4.86887098279271
C            3.64207073303732       -1.91847807755827        2.84537565470146
C            4.73303834444820       -2.74240196142499        2.62485393410516
C            4.89798316608143       -3.39318425022969        1.41328295400708
C            3.97560889655754       -3.21817958874122        0.39538184005522
C            2.88711268364756       -2.39429097896588        0.58922025575733
C            2.71030370815015       -1.75643723066224        1.81455332845999
C            0.05098211237775       -2.58532229793310        1.46195991512505
C           -1.22395278124532       -2.99356884683494        1.11718894335388
O           -1.38092433752778       -4.34591928349077        1.01251800989959
C           -2.59635299219617       -4.90980643213716        0.75876904656354
C           -2.69501605963463       -6.29379550147522        0.82474630804407
C           -3.91403457619503       -6.90097134802994        0.55266339895040
C           -5.02425835405801       -6.15194500829138        0.20107041396455
C           -4.91258387272593       -4.76590044231035        0.12268016795507
C           -3.70118634622648       -4.12182605932275        0.41513398635405
O           -6.01301924109361       -4.06263743900613       -0.24957278458129
H           -7.92882926259475        1.88098071014026       -1.22868781142080
H           -7.75972661358524        1.55708391103706       -2.95112207006528
H           -7.16116935999011        3.07174707060589       -2.28445366603469
H           -4.98802991544417        2.23871766383603       -3.62805900255297
H           -5.85976648743210        0.72653842459876       -3.91472322471436
H           -4.28067198477133        0.68439517060501       -3.15407966843974
H           -6.77214108860008        2.78551333890560        0.32910870452721
H           -5.51090506554341        4.32235812217384        1.75463951803431
H           -3.17813203859807        1.87862925728742       -1.80322625046429
H           -1.29955071480363        0.71352800892214       -1.25862704750635
H            0.65807601728538       -0.48917981403339       -2.10524427811011
H            3.29206999513953        1.09299366501819        0.23749031816369
H            5.09396573212749        0.53028358593605        1.76541698878117
H            7.00532458846591       -0.84737690508412        0.97228832005133
H            7.05484051146187       -1.61901499809353       -1.33973545849184
H            4.30659759768990       -3.05727470935338       -2.95779570356047
H            6.05171647486183       -3.12557842326831       -2.69449160804447
H            5.40620228507029       -3.11558555477865       -4.33489387767033
H            6.67746241500420        0.39620800035679       -3.93952687544322
H            7.49295078662884       -1.06856149766924       -3.39135035606807
H            6.74447034759884       -1.02437494348701       -4.98205963270261
H            4.89459968853083       -1.62164386139548       -5.96463526146852
H            3.11956122004622       -0.79393906180202       -7.41819741963961
H            1.37065667120946        0.70222365945915       -6.49265286229986
H            1.40369499120151        1.29014238227733       -4.12115220008841
H            3.07723604685690        2.97014265815153       -1.37547323247216
H            1.87745347743400        6.44794383713500        1.07737128342518
H            0.32098288061215        7.65706068074131        2.57884171243673
H           -2.02161768728655        6.89142480323550        2.82261746867386
H           -8.01301247830011       -0.45170000861516       -1.91768316672017
H           -7.96102971969662       -2.80022845911875       -1.22857816510357
H           -4.00174873014486        0.01426533009405       -0.53572491404170
H           -2.77175222271696       -0.00309459638609        1.24370962343408
H           -0.59090210892298        0.70179517208121        1.96615883918541
H            1.03752024896750        1.65605034285712        1.30105472822597
H            1.74789893160800        3.68405153401748        2.48128953597088
H            3.23678567554946        3.50557413947994        4.44642901748304
H            4.01539540023354        1.32045592790705        5.19900695351236
H            5.41803142502588       -0.67712602252449        4.61303108809900
H            4.31878822229545       -0.64890038382503        6.00201915681950
H            4.84368320022941       -2.18371963095306        5.34483698425475
H            1.95278973760605       -1.34612613986659        5.78268708439928
H            1.30200446810919       -1.92763079914674        4.25128646753811
H            2.48160128743343       -2.90183883820201        5.12766107455789
H            5.46829958993370       -2.89187969128374        3.39869453489559
H            5.75206124483041       -4.03603433627857        1.26397640903718
H            4.11157953691676       -3.71746083960398       -0.55120516898783
H            2.17100204563717       -2.22662612316454       -0.20077514739424
H            0.80601354802947       -3.34379177279498        1.59643436713057
H           -1.82702127646328       -6.87889949411501        1.08502079665069
H           -3.99491398614224       -7.97557494251634        0.61132899713786
H           -5.96994415528938       -6.62249307214118       -0.01682854465494

 projected vibrational frequencies (cm⁻¹)
eigval :       -0.00    -0.00    -0.00    -0.00     0.00     0.00
eigval :        8.94    16.67    20.50    21.46    27.32    29.91
eigval :       37.81    38.62    40.93    47.94    50.39    59.45
eigval :       60.18    67.91    74.38    76.52    78.46    83.12
eigval :       86.71   100.28   106.90   111.22   119.33   128.12
eigval :      132.62   136.11   139.66   141.29   149.63   159.53
eigval :      166.88   181.92   186.63   193.08   198.02   202.10
eigval :      209.76   214.13   217.56   219.96   229.12   231.82
eigval :      232.19   237.76   242.59   245.97   257.66   260.26
eigval :      264.59   273.78   283.67   287.59   289.39   299.67
eigval :      302.81   306.46   314.86   320.00   323.65   330.72
eigval :      333.93   338.33   346.42   347.56   354.67   358.55
eigval :      366.42   371.51   374.27   378.28   381.08   383.73
eigval :      395.59   402.51   408.52   409.70   412.80   419.87
eigval :      423.73   429.33   431.93   434.28   452.76   454.11
eigval :      457.19   457.74   459.73   462.77   463.59   490.16
eigval :      496.95   499.79   505.74   507.44   510.59   520.88
eigval :      527.09   532.62   537.17   544.14   545.79   546.97
eigval :      551.01   559.83   563.54   571.46   573.19   576.40
eigval :      582.09   585.13   585.35   592.38   598.09   605.28
eigval :      613.92   618.13   629.82   636.09   640.22   644.33
eigval :      661.56   666.77   670.76   674.81   679.95   686.08
eigval :      686.93   689.90   690.57   697.09   698.97   704.39
eigval :      707.63   715.97   721.41   726.50   737.99   767.34
eigval :      773.55   776.56   778.09   782.35   786.04   787.11
eigval :      797.80   803.64   810.89   812.48   812.88   815.69
eigval :      826.08   827.63   831.35   847.41   851.61   855.55
eigval :      858.59   864.20   865.10   870.54   870.69   878.63
eigval :      880.42   884.96   887.63   897.89   898.56   899.57
eigval :      899.63   902.04   902.30   903.47   906.25   908.59
eigval :      910.69   913.03   914.36   915.17   917.82   918.54
eigval :      922.55   923.89   927.68   937.78   942.92   947.17
eigval :      950.04   957.63   958.84   966.74   974.46   986.95
eigval :      989.94  1009.56  1013.74  1015.04  1040.21  1041.96
eigval :     1060.06  1073.73  1074.63  1076.62  1084.63  1086.44
eigval :     1088.90  1089.09  1099.81  1106.68  1108.44  1110.87
eigval :     1117.26  1125.08  1130.73  1134.10  1137.84  1139.78
eigval :     1149.91  1152.35  1155.01  1162.14  1165.91  1167.42
eigval :     1168.39  1170.97  1172.96  1179.07  1179.98  1185.60
eigval :     1186.33  1189.21  1194.32  1197.75  1203.51  1210.07
eigval :     1211.37  1215.62  1217.57  1224.68  1230.82  1234.12
eigval :     1238.06  1240.00  1241.44  1243.89  1244.21  1245.78
eigval :     1247.85  1248.06  1259.12  1261.56  1262.99  1269.49
eigval :     1272.01  1275.29  1280.36  1283.67  1292.87  1295.19
eigval :     1304.98  1313.95  1315.86  1319.59  1321.66  1323.55
eigval :     1328.17  1330.28  1331.19  1335.01  1336.26  1343.00
eigval :     1345.46  1377.81  1384.41  1388.97  1397.61  1399.12
eigval :     1400.81  1401.90  1413.10  1415.02  1415.74  1415.99
eigval :     1417.14  1417.84  1419.25  1427.31  1431.57  1432.29
eigval :     1435.18  1440.66  1442.01  1449.47  1452.86  1454.56
eigval :     1461.25  1465.21  1473.44  1479.56  1487.09  1488.80
eigval :     1489.17  1489.34  1492.42  1494.44  1496.58  1499.18
eigval :     1503.67  1504.47  1506.89  1507.82  1510.98  1516.77
eigval :     1519.54  1523.93  1527.59  1534.92  1543.64  1545.71
eigval :     1549.31  1560.99  1561.42  1563.35  1569.22  1574.50
eigval :     1575.77  1576.69  1582.89  1586.76  1593.82  3022.02
eigval :     3026.13  3026.65  3027.86  3028.25  3029.98  3031.42
eigval :     3032.77  3033.99  3034.66  3040.18  3043.74  3045.77
eigval :     3046.35  3047.47  3048.21  3054.80  3056.16  3072.67
eigval :     3083.00  3083.67  3085.61  3086.33  3087.52  3087.56
eigval :     3087.79  3088.54  3088.81  3088.95  3090.42  3095.21
eigval :     3097.45  3098.28  3099.35  3099.56  3099.86  3100.47
eigval :     3101.65  3102.42  3104.60  3104.79  3105.59  3107.37
eigval :     3109.17  3111.23  3111.46  3112.01  3112.27  3118.10
eigval :     3119.99  3129.99  3136.95

   temp. (K)  partition function   enthalpy   heat capacity  entropy
                                   cal/mol     cal/K/mol   cal/K/mol   J/K/mol
 298.15  VIB  0.245E+27            37457.609    243.065    227.376
         ROT  0.212E+09              888.752      2.981     41.078
         INT  0.518E+35            38346.361    246.046    268.454
         TR   0.304E+29             1481.254      4.968     46.545
         TOT                       39827.6151   251.0138   314.9985  1317.9539

       T/K    H(0)-H(T)+PV         H(T)/Eh          T*S/Eh         G(T)/Eh
   ------------------------------------------------------------------------
    298.15    0.634693E-01    0.106497E+01    0.149666E+00    0.915307E+00
   ------------------------------------------------------------------------

         :::::::::::::::::::::::::::::::::::::::::::::::::::::
         ::                  THERMODYNAMIC                  ::
         :::::::::::::::::::::::::::::::::::::::::::::::::::::
         :: total free energy        -198.036185050236 Eh   ::
         ::.................................................::
         :: total energy             -198.951492479711 Eh   ::
         :: zero point energy           1.001504051171 Eh   ::
         :: G(RRHO) w/o ZPVE           -0.086196621695 Eh   ::
         :: G(RRHO) contrib.            0.915307429476 Eh   ::
         :::::::::::::::::::::::::::::::::::::::::::::::::::::

           -------------------------------------------------
          | TOTAL ENERGY             -198.951492479711 Eh   |
          | TOTAL ENTHALPY           -197.886519083835 Eh   |
          | TOTAL FREE ENERGY        -198.036185050236 Eh   |
          | GRADIENT NORM               0.000055332455 Eh/α |
           -------------------------------------------------

 * finished run on 2025/07/18 at 08:32:08.659
