   * xtb version 6.7.1 (edcfbbe) compiled by 'albert@albert-system' on 2024-07-22

   ID    Z sym.   atoms
    1    6 C      1-34
    2    1 H      35-56

          program call               : xtb data2507/toluene/ADN/ADN_toluene_S0_finalOpt.xtbopt.xyz --gfn 2 --uhf 2 --gbsa toluene --ohess vtight --parallel 40 --molden --ceasefiles --namespace data2507/toluene/ADN/ADN_toluene_T1_preOpt
      * Solvation model:               GBSA
        Solvent                        toluene
        Solvent mass                       9.2140E+01 g/mol
          :  Hamiltonian                  GFN2-xTB          :
 * total energy  :   -83.9827442 Eh     change       -0.2933632E-08 Eh
 * total energy  :   -83.9887385 Eh     change       -0.5994300E-02 Eh
 * total energy  :   -83.9901257 Eh     change       -0.1387234E-02 Eh
 * total energy  :   -83.9902599 Eh     change       -0.1341294E-03 Eh
 * total energy  :   -83.9903910 Eh     change       -0.1311468E-03 Eh
 * total energy  :   -83.9904657 Eh     change       -0.7471134E-04 Eh
 * total energy  :   -83.9905481 Eh     change       -0.8241061E-04 Eh
 * total energy  :   -83.9906479 Eh     change       -0.9975356E-04 Eh
 * total energy  :   -83.9907484 Eh     change       -0.1004898E-03 Eh
 * total energy  :   -83.9908399 Eh     change       -0.9155802E-04 Eh
 * total energy  :   -83.9927442 Eh     change       -0.3353291E-06 Eh
 * total energy  :   -83.9927445 Eh     change       -0.3107891E-06 Eh
 * total energy  :   -83.9927449 Eh     change       -0.3209702E-06 Eh
 * total energy  :   -83.9927452 Eh     change       -0.3693231E-06 Eh
 * total energy  :   -83.9927457 Eh     change       -0.4535889E-06 Eh
 * total energy  :   -83.9927462 Eh     change       -0.5097915E-06 Eh
 * total energy  :   -83.9927466 Eh     change       -0.4184563E-06 Eh
 * total energy  :   -83.9927468 Eh     change       -0.2129370E-06 Eh
 * total energy  :   -83.9927469 Eh     change       -0.7745112E-07 Eh
   *** GEOMETRY OPTIMIZATION CONVERGED AFTER 41 ITERATIONS ***

 final structure:
================
56
 xtb: 6.7.1 (edcfbbe)
C           -7.86268740321276        0.47947436053021        0.10905828338318
C           -7.28240821723653        1.18811412275812        1.17237261945069
C           -5.92549238961461        1.19446799350368        1.34103017186847
C           -5.08453748702482        0.48908968303331        0.45136772200100
C           -3.68617527758131        0.48586114356981        0.59334123448946
C           -2.87006023607281       -0.21801920710758       -0.27369294485313
C           -1.41981382745248       -0.21188158239484       -0.12838690048767
C           -0.71138678428310       -1.44853483077385       -0.02445868418413
C           -1.37963745981165       -2.67531120583295        0.04246078289457
C           -0.68535090810213       -3.88281531471129        0.05956652051933
C            0.69230275674856       -3.88201377964723        0.00120991946954
C            1.38439378440357       -2.67312906458650       -0.00021418357667
C            0.71393163577419       -1.44670500864048        0.04822856132965
C            1.42019880736020       -0.20739645588472        0.13334430918408
C            2.87048467517000       -0.20923133896076        0.27866213661484
C            3.47716525656280       -0.92034403466911        1.34507760193674
C            4.82871384410837       -0.91253268353274        1.51781996992065
C            5.67577843877191       -0.21690083393509        0.62434228524387
C            7.07511925528659       -0.19742986962565        0.77097799354437
C            7.86240514843987        0.48526691956406       -0.11806607432134
C            7.28100037932959        1.17734244943525       -1.19162618531257
C            5.92396561216338        1.18030462182594       -1.35942518648836
C            5.08405718017453        0.48822892876128       -0.45840074561205
C            3.68563074837081        0.48153070725816       -0.59973483279344
C            0.70725415752026        1.03080567367550        0.08456526798857
C            1.35476586937774        2.26000193989951        0.24362283089718
C            0.67105961648720        3.46701448084621        0.11769674026521
C           -0.67664433693315        3.46348031043179       -0.17320989531764
C           -1.35832248807674        2.25342840302972       -0.27929147271016
C           -0.70887567424643        1.02812556363849       -0.09959685295932
C           -3.47569289797245       -0.94664502611096       -1.32879823004630
C           -4.82714159125874       -0.94249140102136       -1.50236952148877
C           -5.67516216751211       -0.23329014341604       -0.62054397190212
C           -7.07438306487670       -0.21664676300325       -0.76859749360251
H           -8.93653787225267        0.48664286247478       -0.01032566922636
H           -7.91901410857538        1.72962007312970        1.85754461146795
H           -5.47391286389419        1.74130083620125        2.15699926218762
H           -3.24658580947366        1.02072692301618        1.42400004928204
H           -2.45796639905246       -2.69101325583292        0.08438859715177
H           -1.23375483353619       -4.81235303492677        0.10247250526260
H            1.24238891477278       -4.81110518813590       -0.02749414608028
H            2.46275003905617       -2.68751788567267       -0.04203388204788
H            2.84016421085134       -1.43812751823427        2.04790469377756
H            5.27492800741379       -1.43745538389832        2.35117376671622
H            7.51922353030337       -0.73377097084007        1.59806589070605
H            8.93636255416134        0.49458878982871        0.00021462210896
H            7.91685093312523        1.70863966520095       -1.88542830536848
H            5.47146404275399        1.71431143247630       -2.18333760218861
H            3.24541372219061        1.00247467460867       -1.43888357897901
H            2.40858002779509        2.27815008698883        0.47598987820247
H            1.20600842575008        4.39763735240892        0.23727948627233
H           -1.21312512845865        4.39107943177710       -0.30839467386743
H           -2.41214292048032        2.26603617049813       -0.51199276434854
H           -2.83791992408498       -1.47502866602092       -2.02295997343678
H           -5.27253396790742       -1.48083567209627       -2.32755502002201
H           -7.51756134184065       -0.76579350329998       -1.58774995645418

          :  Hamiltonian                  GFN2-xTB          :
         :: gradient norm              0.000032458463 Eh/a0 ::
         :: HOMO-LUMO gap              0.809619137718 eV    ::
         :: SCC energy               -85.635194401047 Eh    ::
         :: -> dispersion             -0.077180779238 Eh    ::
         :: -> Gsolv                  -0.033595114565 Eh    ::
         :: repulsion energy           1.642447493484 Eh    ::

    * Orbital Energies and Occupations

         #    Occupation            Energy/Eh            Energy/eV
      -------------------------------------------------------------
         1        2.0000           -0.6522362             -17.7482
       ...           ...                  ...                  ...
        68        2.0000           -0.4187753             -11.3955
        69        2.0000           -0.4156937             -11.3116
        70        2.0000           -0.4140572             -11.2671
        71        2.0000           -0.4124766             -11.2241
        72        2.0000           -0.4059982             -11.0478
        73        2.0000           -0.4005425             -10.8993
        74        2.0000           -0.3998395             -10.8802
        75        2.0000           -0.3962521             -10.7826
        76        2.0000           -0.3954931             -10.7619
        77        2.0000           -0.3783262             -10.2948
        78        2.0000           -0.3770555             -10.2602
        79        1.0000           -0.3487709              -9.4905
        80        1.0000           -0.2887147              -7.8563 (HOMO)
        81        0.0000           -0.2589617              -7.0467 (LUMO)
        82                         -0.2574399              -7.0053
        83                         -0.2290922              -6.2339
        84                         -0.2288053              -6.2261
        85                         -0.2268128              -6.1719
        86                         -0.2223214              -6.0497
        87                         -0.1911907              -5.2026
        88                         -0.1892474              -5.1497
        89                         -0.1781854              -4.8487
        90                         -0.1742109              -4.7405
        91                         -0.1446485              -3.9361
       ...                                ...                  ...
       158                          0.7144668              19.4416
      -------------------------------------------------------------
                  HL-Gap            0.0297530 Eh            0.8096 eV

     #   Z          covCN         q      C6AA      α(0)
     1   6 C        2.916    -0.032    28.800     8.800
     2   6 C        2.915    -0.031    28.776     8.796
     3   6 C        2.918    -0.037    28.923     8.819
     4   6 C        2.984     0.011    27.765     8.643
     5   6 C        2.923    -0.041    29.016     8.834
     6   6 C        2.970     0.014    27.705     8.634
     7   6 C        2.973    -0.010    28.263     8.720
     8   6 C        2.977     0.008    27.835     8.654
     9   6 C        2.921    -0.038    28.953     8.824
    10   6 C        2.913    -0.032    28.804     8.801
    11   6 C        2.913    -0.032    28.804     8.801
    12   6 C        2.921    -0.038    28.953     8.824
    13   6 C        2.977     0.008    27.835     8.654
    14   6 C        2.973    -0.010    28.263     8.720
    15   6 C        2.970     0.014    27.705     8.634
    16   6 C        2.919    -0.033    28.813     8.802
    17   6 C        2.915    -0.038    28.939     8.821
    18   6 C        2.986     0.010    27.789     8.647
    19   6 C        2.917    -0.036    28.908     8.817
    20   6 C        2.916    -0.032    28.800     8.800
    21   6 C        2.915    -0.031    28.776     8.796
    22   6 C        2.918    -0.037    28.923     8.819
    23   6 C        2.984     0.011    27.765     8.643
    24   6 C        2.923    -0.041    29.016     8.834
    25   6 C        2.976     0.008    27.837     8.654
    26   6 C        2.921    -0.038    28.949     8.823
    27   6 C        2.913    -0.032    28.793     8.799
    28   6 C        2.913    -0.032    28.793     8.799
    29   6 C        2.921    -0.038    28.950     8.823
    30   6 C        2.976     0.008    27.837     8.654
    31   6 C        2.919    -0.033    28.813     8.802
    32   6 C        2.915    -0.038    28.939     8.821
    33   6 C        2.986     0.010    27.789     8.647
    34   6 C        2.917    -0.036    28.908     8.817
    35   1 H        0.926     0.030     2.587     2.515
    36   1 H        0.926     0.030     2.585     2.514
    37   1 H        0.926     0.031     2.571     2.507
    38   1 H        0.925     0.033     2.547     2.496
    39   1 H        0.926     0.033     2.538     2.491
    40   1 H        0.926     0.030     2.593     2.518
    41   1 H        0.926     0.030     2.593     2.518
    42   1 H        0.926     0.033     2.538     2.491
    43   1 H        0.926     0.033     2.544     2.494
    44   1 H        0.925     0.033     2.547     2.496
    45   1 H        0.926     0.031     2.571     2.507
    46   1 H        0.926     0.030     2.587     2.515
    47   1 H        0.926     0.030     2.585     2.514
    48   1 H        0.926     0.031     2.571     2.507
    49   1 H        0.925     0.033     2.547     2.496
    50   1 H        0.926     0.034     2.527     2.486
    51   1 H        0.926     0.030     2.583     2.513
    52   1 H        0.926     0.030     2.583     2.513
    53   1 H        0.926     0.034     2.527     2.486
    54   1 H        0.926     0.033     2.543     2.494
    55   1 H        0.925     0.033     2.547     2.496
    56   1 H        0.926     0.031     2.571     2.507

molecular dipole:
                 x           y           z       tot (Debye)
 q only:        0.000      -0.001      -0.000
   full:        0.000       0.001      -0.000       0.003

 projected vibrational frequencies (cm⁻¹)
eigval :       -0.00    -0.00    -0.00    -0.00     0.00     0.00
eigval :       11.13    24.98    41.05    42.69    48.42    55.85
eigval :       80.09   116.74   139.57   141.72   145.81   167.81
eigval :      171.54   185.09   188.98   199.84   233.86   286.80
eigval :      300.39   339.85   341.78   344.69   358.64   373.51
eigval :      390.87   393.32   403.86   418.41   426.00   450.17
eigval :      451.67   469.11   476.77   494.72   494.77   496.41
eigval :      525.83   555.76   562.17   565.55   577.32   589.46
eigval :      592.01   609.76   627.14   640.82   651.28   671.37
eigval :      691.25   716.56   721.41   722.07   744.80   754.84
eigval :      755.37   760.21   781.97   794.02   804.78   823.87
eigval :      828.79   835.31   841.43   847.65   866.05   872.78
eigval :      877.15   882.64   884.33   885.49   887.10   894.29
eigval :      898.88   903.72   906.29   914.00   914.79   926.19
eigval :      926.40   929.22   931.32   944.52   982.72  1000.58
eigval :     1078.33  1078.56  1100.90  1104.27  1113.33  1120.22
eigval :     1140.28  1141.75  1171.43  1171.84  1176.46  1178.46
eigval :     1178.81  1179.39  1179.71  1182.17  1218.70  1222.85
eigval :     1227.51  1227.80  1233.28  1252.29  1259.22  1260.65
eigval :     1277.28  1289.30  1298.97  1318.47  1327.37  1332.58
eigval :     1358.60  1361.75  1369.89  1370.66  1375.40  1389.19
eigval :     1391.07  1407.68  1419.64  1421.24  1423.76  1441.14
eigval :     1441.97  1477.59  1486.19  1490.19  1491.00  1520.68
eigval :     1527.13  1537.84  1539.45  1555.22  1580.16  1582.21
eigval :     1599.90  1599.90  3062.26  3062.62  3063.83  3063.91
eigval :     3065.31  3065.35  3068.15  3068.43  3072.04  3072.18
eigval :     3074.14  3074.22  3078.76  3078.96  3080.60  3080.88
eigval :     3085.37  3085.57  3091.63  3092.33  3094.86  3096.42

   temp. (K)  partition function   enthalpy   heat capacity  entropy
                                   cal/mol     cal/K/mol   cal/K/mol   J/K/mol
 298.15  VIB  0.123E+11            14432.985     97.672     86.753
         ROT  0.137E+08              888.752      2.981     35.635
         INT  0.168E+18            15321.738    100.653    122.388
         TR   0.864E+28             1481.254      4.968     44.050
         TOT                       16802.9916   105.6213   166.4376   696.3749

       T/K    H(0)-H(T)+PV         H(T)/Eh          T*S/Eh         G(T)/Eh
   ------------------------------------------------------------------------
    298.15    0.267773E-01    0.458280E+00    0.790799E-01    0.379200E+00
   ------------------------------------------------------------------------

         :::::::::::::::::::::::::::::::::::::::::::::::::::::
         ::                  THERMODYNAMIC                  ::
         :::::::::::::::::::::::::::::::::::::::::::::::::::::
         :: total free energy         -83.613547240610 Eh   ::
         ::.................................................::
         :: total energy              -83.992746912576 Eh   ::
         :: zero point energy           0.431502273929 Eh   ::
         :: G(RRHO) w/o ZPVE           -0.052302601964 Eh   ::
         :: G(RRHO) contrib.            0.379199671965 Eh   ::
         :::::::::::::::::::::::::::::::::::::::::::::::::::::

           -------------------------------------------------
          | TOTAL ENERGY              -83.992746912576 Eh   |
          | TOTAL ENTHALPY            -83.534467367061 Eh   |
          | TOTAL FREE ENERGY         -83.613547240610 Eh   |
          | GRADIENT NORM               0.000032460878 Eh/α |
          | HOMO-LUMO GAP               0.809620781518 eV   |
           -------------------------------------------------

 * finished run on 2025/09/09 at 22:18:38.186
