   * xtb version 6.7.1 (edcfbbe) compiled by 'albert@albert-system' on 2024-07-22

   ID    Z sym.   atoms
    1    6 C      1-34
    2    1 H      35-56

          program call               : xtb data2507/toluene/ADN/ADN_toluene_T1_crest.xyz --gfn 2 --uhf 2 --gbsa toluene --ohess vtight --parallel 40 --molden --ceasefiles --namespace data2507/toluene/ADN/ADN_toluene_T1_finalOpt
      * Solvation model:               GBSA
        Solvent                        toluene
        Solvent mass                       9.2140E+01 g/mol
          :  Hamiltonian                  GFN2-xTB          :
 * total energy  :   -83.9926692 Eh     change       -0.6977530E-09 Eh
 * total energy  :   -83.9926911 Eh     change       -0.2183699E-04 Eh
 * total energy  :   -83.9926969 Eh     change       -0.5867326E-05 Eh
 * total energy  :   -83.9927012 Eh     change       -0.4276994E-05 Eh
 * total energy  :   -83.9927047 Eh     change       -0.3501812E-05 Eh
 * total energy  :   -83.9927094 Eh     change       -0.4663174E-05 Eh
 * total energy  :   -83.9927159 Eh     change       -0.6521330E-05 Eh
 * total energy  :   -83.9927225 Eh     change       -0.6576574E-05 Eh
 * total energy  :   -83.9927271 Eh     change       -0.4597931E-05 Eh
 * total energy  :   -83.9927298 Eh     change       -0.2749923E-05 Eh
 * total energy  :   -83.9927377 Eh     change       -0.2565439E-05 Eh
 * total energy  :   -83.9927407 Eh     change       -0.3033280E-05 Eh
 * total energy  :   -83.9927435 Eh     change       -0.2831397E-05 Eh
 * total energy  :   -83.9927454 Eh     change       -0.1887640E-05 Eh
 * total energy  :   -83.9927465 Eh     change       -0.1049922E-05 Eh
 * total energy  :   -83.9927472 Eh     change       -0.7109892E-06 Eh
 * total energy  :   -83.9927478 Eh     change       -0.6466100E-06 Eh
 * total energy  :   -83.9927486 Eh     change       -0.7486260E-06 Eh
 * total energy  :   -83.9927486 Eh     change       -0.4716924E-08 Eh
   *** GEOMETRY OPTIMIZATION CONVERGED AFTER 22 ITERATIONS ***

 final structure:
================
56
 xtb: 6.7.1 (edcfbbe)
C           -7.86134146669206        0.48735344643182        0.13119579864120
C           -7.27621762259541        1.19468317620707        1.19273020637190
C           -5.91862881190743        1.19987584108565        1.35585107559784
C           -5.08185181350601        0.49470773419252        0.46206630869338
C           -3.68302291308514        0.49017351115518        0.59846233640578
C           -2.87068987627067       -0.21290890165589       -0.27296579618130
C           -1.42020916905235       -0.20800527936562       -0.13226585734006
C           -0.71132466979653       -1.44516850393778       -0.03780150513025
C           -1.37894753907539       -2.67268600356539        0.02258442031873
C           -0.68436141459910       -3.88000820349890        0.02710227890626
C            0.69306489189602       -3.87823964305286       -0.03768429404574
C            1.38470219392078       -2.66920234888962       -0.03134881079828
C            0.71418013766192       -1.44341564165017        0.03117131665556
C            1.42029933708404       -0.20459633147061        0.12758925204321
C            2.87023821124027       -0.20749056418010        0.27232565005591
C            3.47820577938492       -0.93695737169012        1.32571544295028
C            4.82989349112685       -0.93281937663102        1.49687721604739
C            5.67622641193437       -0.22172869698599        0.61487418841653
C            7.07568733492076       -0.20568880312793        0.76001379189067
C            7.86224178218054        0.49299454767784       -0.11726065153363
C            7.27974150994068        1.20497606009245       -1.17710261601576
C            5.92248562700767        1.21163995084278       -1.34310690775737
C            5.08335335724616        0.50325895112108       -0.45406211152107
C            3.68488400486005        0.49897677297249       -0.59432842822667
C            0.70655745896430        1.03368801419650        0.09018597772679
C            1.35252128715968        2.26188281197450        0.26279003291597
C            0.66857816143197        3.46946825522013        0.14427370295903
C           -0.67782349502701        3.46760596431007       -0.15290799029014
C           -1.35860202085628        2.25812565091936       -0.26985643430056
C           -0.70924107089140        1.03184451715418       -0.09635644851870
C           -3.48113919063393       -0.93919503542608       -1.32697949344000
C           -4.83331204455933       -0.93433664550525       -1.49468647164499
C           -5.67734268095940       -0.22607539625221       -0.60824487547554
C           -7.07713450056908       -0.20848642522523       -0.75038489721128
H           -8.93566949114025        0.49538221036661        0.01626325482164
H           -7.90961892071417        1.73621385589832        1.88085341867625
H           -5.46324043937337        1.74575018491384        2.17035050369783
H           -3.23975111079371        1.02326071463428        1.42830793960845
H           -2.45706307750883       -2.68909202368472        0.06918367285572
H           -1.23223907086134       -4.81006833987351        0.06508830777422
H            1.24330654370747       -4.80684767322689       -0.07699946546660
H            2.46283913687005       -2.68305987406099       -0.07830124331841
H            2.84191690840937       -1.46625764995647        2.02053679305420
H            5.27686877729837       -1.47263415441194        2.32025472855896
H            7.52052266185492       -0.75738290823260        1.57656250950988
H            8.93634657369973        0.49963288334987       -0.00015566229097
H            7.91490304408441        1.74884681368295       -1.86175171487345
H            5.46922139973397        1.76102199991620       -2.15643519407647
H            3.24400811045557        1.03424023473626       -1.42404293625127
H            2.40524669318772        2.27879960970561        0.50013939613719
H            1.20237798843142        4.39939268342442        0.27399978366669
H           -1.21403922276117        4.39597505500125       -0.28381102344854
H           -2.41154581074262        2.27189235368957       -0.50648083296445
H           -2.84654119962333       -1.46624191233871       -2.02507182777123
H           -5.28243389080091       -1.47130279048881       -2.31875805119710
H           -7.52406487629845       -0.75664562898670       -1.56816271086676

          :  Hamiltonian                  GFN2-xTB          :
         :: gradient norm              0.000055586532 Eh/a0 ::
         :: HOMO-LUMO gap              0.811612561667 eV    ::
         :: SCC energy               -85.635138898932 Eh    ::
         :: -> dispersion             -0.077194779097 Eh    ::
         :: -> Gsolv                  -0.033576625803 Eh    ::
         :: repulsion energy           1.642390319892 Eh    ::

    * Orbital Energies and Occupations

         #    Occupation            Energy/Eh            Energy/eV
      -------------------------------------------------------------
         1        2.0000           -0.6522287             -17.7480
       ...           ...                  ...                  ...
        68        2.0000           -0.4187704             -11.3953
        69        2.0000           -0.4156968             -11.3117
        70        2.0000           -0.4140498             -11.2669
        71        2.0000           -0.4124476             -11.2233
        72        2.0000           -0.4060765             -11.0499
        73        2.0000           -0.4005114             -10.8985
        74        2.0000           -0.3998195             -10.8796
        75        2.0000           -0.3961922             -10.7809
        76        2.0000           -0.3954782             -10.7615
        77        2.0000           -0.3783222             -10.2947
        78        2.0000           -0.3770467             -10.2600
        79        1.0000           -0.3487096              -9.4889
        80        1.0000           -0.2887743              -7.8579 (HOMO)
        81        0.0000           -0.2589481              -7.0463 (LUMO)
        82                         -0.2573969              -7.0041
        83                         -0.2290850              -6.2337
        84                         -0.2288142              -6.2264
        85                         -0.2268435              -6.1727
        86                         -0.2223172              -6.0496
        87                         -0.1912063              -5.2030
        88                         -0.1892465              -5.1497
        89                         -0.1781503              -4.8477
        90                         -0.1742093              -4.7405
        91                         -0.1446065              -3.9349
       ...                                ...                  ...
       158                          0.7144741              19.4418
      -------------------------------------------------------------
                  HL-Gap            0.0298262 Eh            0.8116 eV

     #   Z          covCN         q      C6AA      α(0)
     1   6 C        2.916    -0.032    28.801     8.800
     2   6 C        2.915    -0.031    28.776     8.796
     3   6 C        2.918    -0.037    28.923     8.819
     4   6 C        2.984     0.011    27.765     8.643
     5   6 C        2.923    -0.041    29.016     8.834
     6   6 C        2.970     0.014    27.706     8.634
     7   6 C        2.973    -0.010    28.264     8.720
     8   6 C        2.977     0.008    27.835     8.654
     9   6 C        2.921    -0.038    28.954     8.824
    10   6 C        2.913    -0.032    28.804     8.801
    11   6 C        2.913    -0.032    28.805     8.801
    12   6 C        2.921    -0.038    28.953     8.824
    13   6 C        2.977     0.008    27.835     8.654
    14   6 C        2.973    -0.010    28.264     8.720
    15   6 C        2.970     0.014    27.706     8.634
    16   6 C        2.919    -0.033    28.813     8.802
    17   6 C        2.915    -0.038    28.940     8.821
    18   6 C        2.986     0.010    27.789     8.647
    19   6 C        2.917    -0.037    28.908     8.817
    20   6 C        2.916    -0.032    28.801     8.800
    21   6 C        2.915    -0.031    28.776     8.797
    22   6 C        2.918    -0.037    28.923     8.819
    23   6 C        2.984     0.011    27.765     8.643
    24   6 C        2.923    -0.041    29.017     8.834
    25   6 C        2.976     0.008    27.837     8.654
    26   6 C        2.921    -0.038    28.949     8.823
    27   6 C        2.913    -0.032    28.793     8.799
    28   6 C        2.913    -0.032    28.793     8.799
    29   6 C        2.921    -0.038    28.949     8.823
    30   6 C        2.976     0.008    27.837     8.654
    31   6 C        2.919    -0.033    28.814     8.802
    32   6 C        2.915    -0.038    28.939     8.821
    33   6 C        2.986     0.010    27.789     8.647
    34   6 C        2.917    -0.036    28.908     8.817
    35   1 H        0.926     0.030     2.587     2.515
    36   1 H        0.926     0.030     2.585     2.514
    37   1 H        0.926     0.031     2.571     2.507
    38   1 H        0.925     0.033     2.547     2.496
    39   1 H        0.926     0.034     2.537     2.491
    40   1 H        0.926     0.030     2.593     2.518
    41   1 H        0.926     0.030     2.593     2.518
    42   1 H        0.926     0.034     2.537     2.491
    43   1 H        0.926     0.033     2.543     2.494
    44   1 H        0.925     0.033     2.547     2.496
    45   1 H        0.926     0.031     2.571     2.507
    46   1 H        0.926     0.030     2.588     2.516
    47   1 H        0.926     0.030     2.586     2.515
    48   1 H        0.926     0.031     2.571     2.508
    49   1 H        0.925     0.033     2.546     2.495
    50   1 H        0.926     0.034     2.525     2.485
    51   1 H        0.926     0.030     2.583     2.513
    52   1 H        0.926     0.030     2.583     2.513
    53   1 H        0.926     0.034     2.527     2.486
    54   1 H        0.926     0.033     2.543     2.494
    55   1 H        0.925     0.033     2.547     2.496
    56   1 H        0.926     0.031     2.571     2.507

molecular dipole:
                 x           y           z       tot (Debye)
 q only:       -0.001      -0.001      -0.000
   full:       -0.001       0.001      -0.000       0.004

 projected vibrational frequencies (cm⁻¹)
eigval :       -0.00    -0.00     0.00     0.00     0.00     0.00
eigval :       14.07    25.48    40.95    43.75    49.57    56.73
eigval :       82.68   117.47   139.82   142.27   146.28   168.09
eigval :      172.48   185.23   190.21   201.43   235.91   286.93
eigval :      300.40   340.16   342.06   346.67   358.84   373.72
eigval :      390.84   393.89   404.82   419.70   426.43   450.19
eigval :      451.80   470.27   477.00   494.99   495.26   496.56
eigval :      525.89   555.92   562.34   566.21   577.45   589.52
eigval :      592.10   609.81   627.40   640.89   651.62   672.09
eigval :      691.46   716.82   721.25   721.85   745.20   755.06
eigval :      755.75   760.56   782.57   794.27   804.75   823.89
eigval :      830.19   837.23   841.63   849.39   866.80   872.74
eigval :      877.22   883.17   884.68   885.56   887.94   894.58
eigval :      899.28   904.32   906.20   914.07   914.28   926.45
eigval :      926.50   931.56   932.45   944.64   982.69  1000.54
eigval :     1078.36  1078.52  1101.14  1104.42  1113.46  1120.23
eigval :     1141.27  1142.84  1173.06  1174.36  1177.29  1178.46
eigval :     1178.87  1179.26  1179.96  1181.94  1218.79  1223.20
eigval :     1228.31  1228.83  1233.61  1252.28  1259.22  1260.60
eigval :     1277.67  1289.63  1299.33  1319.28  1327.92  1332.98
eigval :     1358.68  1361.54  1369.85  1370.56  1375.59  1389.14
eigval :     1391.03  1407.80  1419.69  1421.38  1424.13  1441.45
eigval :     1442.08  1477.53  1486.53  1490.24  1491.19  1520.94
eigval :     1527.12  1537.65  1539.30  1555.14  1580.07  1582.14
eigval :     1599.79  1599.87  3062.70  3062.83  3063.87  3063.89
eigval :     3065.42  3065.51  3068.47  3068.64  3072.07  3072.22
eigval :     3074.16  3074.18  3079.72  3080.59  3080.59  3081.07
eigval :     3085.40  3085.61  3091.52  3092.49  3094.85  3096.48

   temp. (K)  partition function   enthalpy   heat capacity  entropy
                                   cal/mol     cal/K/mol   cal/K/mol   J/K/mol
 298.15  VIB  0.854E+10            14403.652     97.686     86.322
         ROT  0.137E+08              888.752      2.981     35.635
         INT  0.117E+18            15292.404    100.667    121.957
         TR   0.864E+28             1481.254      4.968     44.050
         TOT                       16773.6578   105.6349   166.0067   694.5722

       T/K    H(0)-H(T)+PV         H(T)/Eh          T*S/Eh         G(T)/Eh
   ------------------------------------------------------------------------
    298.15    0.267305E-01    0.458374E+00    0.788752E-01    0.379499E+00
   ------------------------------------------------------------------------

         :::::::::::::::::::::::::::::::::::::::::::::::::::::
         ::                  THERMODYNAMIC                  ::
         :::::::::::::::::::::::::::::::::::::::::::::::::::::
         :: total free energy         -83.613249869241 Eh   ::
         ::.................................................::
         :: total energy              -83.992748584917 Eh   ::
         :: zero point energy           0.431643349539 Eh   ::
         :: G(RRHO) w/o ZPVE           -0.052144633863 Eh   ::
         :: G(RRHO) contrib.            0.379498715676 Eh   ::
         :::::::::::::::::::::::::::::::::::::::::::::::::::::

           -------------------------------------------------
          | TOTAL ENERGY              -83.992748584917 Eh   |
          | TOTAL ENTHALPY            -83.534374710217 Eh   |
          | TOTAL FREE ENERGY         -83.613249869241 Eh   |
          | GRADIENT NORM               0.000055582594 Eh/α |
          | HOMO-LUMO GAP               0.811612150981 eV   |
           -------------------------------------------------

 * finished run on 2025/09/09 at 22:20:47.626
