   * xtb version 6.7.1 (edcfbbe) compiled by 'albert@albert-system' on 2024-07-22

   ID    Z sym.   atoms
    1    6 C      1-34
    2    1 H      35-56

          program call               : xtb data2507/toluene/ADN/ADN_toluene_S0_crest.xyz --gfn 2 --gbsa toluene --ohess vtight --parallel 40 --molden --ceasefiles --namespace data2507/toluene/ADN/ADN_toluene_S0_finalOpt
      * Solvation model:               GBSA
        Solvent                        toluene
        Solvent mass                       9.2140E+01 g/mol
          :  Hamiltonian                  GFN2-xTB          :
 * total energy  :   -84.0609660 Eh     change       -0.3754081E-09 Eh
 * total energy  :   -84.0609867 Eh     change       -0.2061988E-04 Eh
 * total energy  :   -84.0609936 Eh     change       -0.6943112E-05 Eh
 * total energy  :   -84.0610002 Eh     change       -0.6574987E-05 Eh
 * total energy  :   -84.0610052 Eh     change       -0.5049669E-05 Eh
 * total energy  :   -84.0610113 Eh     change       -0.6050736E-05 Eh
 * total energy  :   -84.0610185 Eh     change       -0.7177608E-05 Eh
 * total energy  :   -84.0610246 Eh     change       -0.6181955E-05 Eh
 * total energy  :   -84.0610297 Eh     change       -0.5076972E-05 Eh
 * total energy  :   -84.0610348 Eh     change       -0.5076956E-05 Eh
 * total energy  :   -84.0610695 Eh     change       -0.1040482E-04 Eh
 * total energy  :   -84.0610778 Eh     change       -0.8375142E-05 Eh
 * total energy  :   -84.0610839 Eh     change       -0.6035647E-05 Eh
 * total energy  :   -84.0610883 Eh     change       -0.4453047E-05 Eh
 * total energy  :   -84.0610914 Eh     change       -0.3109994E-05 Eh
 * total energy  :   -84.0610935 Eh     change       -0.2100894E-05 Eh
 * total energy  :   -84.0610946 Eh     change       -0.1013611E-05 Eh
 * total energy  :   -84.0610951 Eh     change       -0.5193259E-06 Eh
 * total energy  :   -84.0610951 Eh     change       -0.6867381E-08 Eh
   *** GEOMETRY OPTIMIZATION CONVERGED AFTER 22 ITERATIONS ***

 final structure:
================
56
 xtb: 6.7.1 (edcfbbe)
C           -7.88188986786368        0.23271505629529        0.12377081738003
C           -7.34796313503532        0.60531789297729        1.36814960496821
C           -5.99536047957068        0.61525734822992        1.56469183173135
C           -5.11305621952628        0.25288321439078        0.52446513271434
C           -3.71381271697691        0.25660443585855        0.69523003894796
C           -2.87152688297204       -0.10103353972147       -0.32778736944748
C           -1.40263096911022       -0.09583095040263       -0.14676276639433
C           -0.71088314637995       -1.31145278724254       -0.05072780604900
C           -1.38725166462422       -2.55976789461773       -0.08581041721290
C           -0.70507225727752       -3.73492899849621       -0.00810799674569
C            0.70009113629308       -3.73500201182146        0.10629364224423
C            1.38469903979959       -2.55987218791092        0.15955196059460
C            0.71088416859302       -1.31104774833628        0.10066996810496
C            1.40452065518906       -0.09456412599605        0.17162002617811
C            2.87482722177035       -0.09725183970647        0.33968995253171
C            3.43535743565236       -0.47075967106735        1.58038764687948
C            4.78861196987881       -0.47621933719118        1.76109949889043
C            5.66162343102440       -0.11437529149403        0.71274250390341
C            7.06366983428181       -0.11078003196037        0.86672365453470
C            7.87919188217154        0.24663075950668       -0.17069954851106
C            7.33002957641340        0.61638317563355       -1.40931025184767
C            5.97523432083073        0.62274924483798       -1.59022390336164
C            5.10594169418143        0.25977347680035       -0.53926277648776
C            3.70488800189459        0.26001089198502       -0.69368201908696
C            0.71141268778301        1.12148417687918        0.08849716431157
C            1.37948840317421        2.37123367688229        0.18433701486193
C            0.69904977915699        3.54583666284253        0.08653229659223
C           -0.69569636269886        3.54466329843379       -0.11846134089009
C           -1.37657485043091        2.36899829645380       -0.19803164149555
C           -0.70881623491655        1.12070253776817       -0.08271407065861
C           -3.41666093294762       -0.47821576064691       -1.57418041953256
C           -4.76760665550976       -0.48653713556106       -1.77084182372543
C           -5.65337227339370       -0.12451891858422       -0.73328968517639
C           -7.05352908555634       -0.12421681970937       -0.90361008445046
H           -8.95374296895288        0.23090982125634       -0.01359796825123
H           -8.01739053440029        0.88420638466200        2.16936456569786
H           -5.57954383365169        0.90217358213570        2.52051652620083
H           -3.30469376093634        0.54376643827013        1.65435088890256
H           -2.46383059739733       -2.55952544698533       -0.17463902205474
H           -1.23423251362779       -4.67659162379720       -0.03581475563408
H            1.22746587095016       -4.67690862276453        0.15314880775913
H            2.46133431708279       -2.56042999580717        0.24722142668667
H            2.77173954636149       -0.74696938094448        2.38758604761880
H            5.21153016496759       -0.75978163152318        2.71485948411458
H            7.48148720533194       -0.39649235269889        1.82211070279913
H            8.95257826323632        0.24751987669038       -0.04577780786141
H            7.98951913595229        0.89612886681992       -2.21842893018966
H            5.54764265342429        0.90741432057410       -2.54153282735966
H            3.28415051078977        0.54414213846324       -1.64870261068072
H            2.44833925859077        2.37276956094274        0.33986282958974
H            1.22254173560022        4.48807623229687        0.16166035655328
H           -1.21869114532776        4.48591863299213       -0.20797218788661
H           -2.44563854898140        2.36817519847773       -0.35236256724162
H           -2.74240926627439       -0.75516319022150       -2.37228857122035
H           -5.17885743159733       -0.77271299887481       -2.72888881391895
H           -7.45958455573861       -0.41206888518386       -1.86341375151817

          :  Hamiltonian                  GFN2-xTB          :
         :: gradient norm              0.000064912080 Eh/a0 ::
         :: HOMO-LUMO gap              2.127396205417 eV    ::
         :: SCC energy               -85.722507747077 Eh    ::
         :: -> dispersion             -0.076894506500 Eh    ::
         :: -> Gsolv                  -0.034082956831 Eh    ::
         :: repulsion energy           1.661412660046 Eh    ::

    * Orbital Energies and Occupations

         #    Occupation            Energy/Eh            Energy/eV
      -------------------------------------------------------------
         1        2.0000           -0.6537012             -17.7881
       ...           ...                  ...                  ...
        67        2.0000           -0.4233134             -11.5189
        68        2.0000           -0.4183370             -11.3835
        69        2.0000           -0.4154223             -11.3042
        70        2.0000           -0.4142835             -11.2732
        71        2.0000           -0.4137994             -11.2601
        72        2.0000           -0.4051688             -11.0252
        73        2.0000           -0.4002685             -10.8919
        74        2.0000           -0.3980511             -10.8315
        75        2.0000           -0.3974820             -10.8160
        76        2.0000           -0.3954753             -10.7614
        77        2.0000           -0.3783579             -10.2956
        78        2.0000           -0.3773652             -10.2686
        79        2.0000           -0.3571621              -9.7189 (HOMO)
        80                         -0.2789817              -7.5915 (LUMO)
        81                         -0.2591518              -7.0519
        82                         -0.2585815              -7.0364
        83                         -0.2301462              -6.2626
        84                         -0.2283811              -6.2146
        85                         -0.2280880              -6.2066
        86                         -0.2193269              -5.9682
        87                         -0.1893773              -5.1532
        88                         -0.1888599              -5.1391
        89                         -0.1759457              -4.7877
        90                         -0.1717152              -4.6726
       ...                                ...                  ...
       158                          0.7160497              19.4847
      -------------------------------------------------------------
                  HL-Gap            0.0781804 Eh            2.1274 eV

     #   Z          covCN         q      C6AA      α(0)
     1   6 C        2.916    -0.032    28.790     8.799
     2   6 C        2.916    -0.031    28.775     8.796
     3   6 C        2.918    -0.036    28.904     8.816
     4   6 C        2.986     0.011    27.766     8.644
     5   6 C        2.923    -0.040    29.000     8.831
     6   6 C        2.973     0.014    27.688     8.631
     7   6 C        2.977    -0.007    28.179     8.707
     8   6 C        2.984     0.005    27.898     8.664
     9   6 C        2.917    -0.035    28.862     8.810
    10   6 C        2.914    -0.031    28.777     8.797
    11   6 C        2.914    -0.031    28.777     8.797
    12   6 C        2.917    -0.035    28.864     8.810
    13   6 C        2.984     0.005    27.898     8.664
    14   6 C        2.977    -0.007    28.180     8.708
    15   6 C        2.973     0.014    27.689     8.631
    16   6 C        2.919    -0.033    28.820     8.803
    17   6 C        2.916    -0.037    28.919     8.818
    18   6 C        2.987     0.010    27.797     8.649
    19   6 C        2.918    -0.036    28.898     8.815
    20   6 C        2.916    -0.032    28.790     8.799
    21   6 C        2.916    -0.031    28.775     8.796
    22   6 C        2.918    -0.036    28.904     8.816
    23   6 C        2.985     0.011    27.766     8.644
    24   6 C        2.923    -0.040    28.998     8.831
    25   6 C        2.983     0.005    27.898     8.664
    26   6 C        2.917    -0.035    28.872     8.811
    27   6 C        2.914    -0.031    28.777     8.797
    28   6 C        2.914    -0.031    28.777     8.797
    29   6 C        2.917    -0.035    28.872     8.811
    30   6 C        2.983     0.005    27.898     8.664
    31   6 C        2.919    -0.033    28.819     8.803
    32   6 C        2.916    -0.037    28.917     8.818
    33   6 C        2.987     0.010    27.797     8.649
    34   6 C        2.918    -0.036    28.898     8.815
    35   1 H        0.926     0.030     2.581     2.512
    36   1 H        0.926     0.030     2.579     2.511
    37   1 H        0.926     0.031     2.566     2.505
    38   1 H        0.925     0.030     2.582     2.513
    39   1 H        0.926     0.031     2.575     2.509
    40   1 H        0.926     0.030     2.592     2.518
    41   1 H        0.926     0.030     2.592     2.517
    42   1 H        0.926     0.031     2.571     2.508
    43   1 H        0.926     0.030     2.580     2.512
    44   1 H        0.926     0.033     2.545     2.495
    45   1 H        0.926     0.032     2.563     2.504
    46   1 H        0.926     0.030     2.581     2.512
    47   1 H        0.926     0.030     2.579     2.512
    48   1 H        0.926     0.031     2.566     2.505
    49   1 H        0.925     0.030     2.582     2.513
    50   1 H        0.926     0.031     2.573     2.509
    51   1 H        0.926     0.030     2.593     2.518
    52   1 H        0.926     0.030     2.593     2.518
    53   1 H        0.926     0.031     2.575     2.509
    54   1 H        0.926     0.030     2.583     2.513
    55   1 H        0.926     0.033     2.545     2.495
    56   1 H        0.926     0.032     2.563     2.504

molecular dipole:
                 x           y           z       tot (Debye)
 q only:        0.001      -0.014      -0.000
   full:        0.001      -0.015      -0.001       0.038

 projected vibrational frequencies (cm⁻¹)
eigval :       -0.00    -0.00     0.00     0.00     0.00     0.00
eigval :       14.63    15.80    26.11    31.35    46.34    61.27
eigval :       77.55   114.97   130.35   132.38   149.77   162.92
eigval :      165.16   173.80   183.18   204.22   217.67   286.23
eigval :      298.99   342.69   343.05   357.49   363.10   366.25
eigval :      397.19   403.44   406.77   445.65   447.10   450.97
eigval :      451.22   460.49   476.15   495.77   496.26   501.88
eigval :      530.30   556.10   562.11   579.56   583.16   593.34
eigval :      602.02   626.78   631.22   648.49   657.07   688.68
eigval :      692.58   723.01   724.51   738.62   755.17   757.82
eigval :      773.96   776.07   785.74   796.55   808.51   828.85
eigval :      831.57   833.66   871.62   872.22   874.97   876.64
eigval :      880.79   881.76   885.40   888.88   898.36   913.96
eigval :      914.50   918.41   919.96   922.30   923.42   928.16
eigval :      928.68   929.16   929.24   931.50   982.63  1002.96
eigval :     1077.88  1078.17  1079.81  1080.86  1130.90  1133.90
eigval :     1141.70  1145.27  1170.40  1172.48  1178.17  1178.57
eigval :     1179.12  1180.23  1185.73  1192.76  1225.21  1226.39
eigval :     1226.75  1229.17  1234.72  1257.33  1257.58  1258.36
eigval :     1262.96  1314.90  1329.05  1330.13  1344.56  1348.74
eigval :     1366.89  1381.53  1382.57  1396.11  1396.45  1416.35
eigval :     1424.92  1425.12  1428.04  1438.96  1451.47  1467.82
eigval :     1486.46  1499.71  1500.29  1525.38  1529.56  1541.01
eigval :     1559.78  1560.00  1605.14  1605.61  1607.27  1609.56
eigval :     1609.67  1621.61  3063.25  3063.36  3063.80  3063.82
eigval :     3065.58  3065.61  3067.51  3067.67  3068.71  3068.77
eigval :     3073.66  3073.80  3075.05  3075.38  3078.37  3078.85
eigval :     3084.37  3085.10  3085.16  3085.54  3089.41  3091.31

   temp. (K)  partition function   enthalpy   heat capacity  entropy
                                   cal/mol     cal/K/mol   cal/K/mol   J/K/mol
 298.15  VIB  0.323E+11            14405.123     96.284     86.990
         ROT  0.271E+08              888.752      2.981     36.990
         INT  0.874E+18            15293.875     99.265    123.981
         TR   0.864E+28             1481.254      4.968     44.050
         TOT                       16775.1290   104.2328   168.0305   703.0395

       T/K    H(0)-H(T)+PV         H(T)/Eh          T*S/Eh         G(T)/Eh
   ------------------------------------------------------------------------
    298.15    0.267329E-01    0.460683E+00    0.798367E-01    0.380847E+00
   ------------------------------------------------------------------------

         :::::::::::::::::::::::::::::::::::::::::::::::::::::
         ::                  THERMODYNAMIC                  ::
         :::::::::::::::::::::::::::::::::::::::::::::::::::::
         :: total free energy         -83.680248511583 Eh   ::
         ::.................................................::
         :: total energy              -84.061095088927 Eh   ::
         :: zero point energy           0.433950404405 Eh   ::
         :: G(RRHO) w/o ZPVE           -0.053103827062 Eh   ::
         :: G(RRHO) contrib.            0.380846577343 Eh   ::
         :::::::::::::::::::::::::::::::::::::::::::::::::::::

           -------------------------------------------------
          | TOTAL ENERGY              -84.061095088927 Eh   |
          | TOTAL ENTHALPY            -83.600411814862 Eh   |
          | TOTAL FREE ENERGY         -83.680248511583 Eh   |
          | GRADIENT NORM               0.000064900501 Eh/α |
          | HOMO-LUMO GAP               2.127396176100 eV   |
           -------------------------------------------------

 * finished run on 2025/09/09 at 22:18:34.691
