   * xtb version 6.7.1 (edcfbbe) compiled by 'albert@albert-system' on 2024-07-22

   ID    Z sym.   atoms
    1    6 C      1-34
    2    1 H      35-56

          program call               : xtb data2507/toluene/ADN/ADN.xyz --gfn 2 --gbsa toluene --ohess vtight --parallel 40 --molden --ceasefiles --namespace data2507/toluene/ADN/ADN_toluene_S0_preOpt
      * Solvation model:               GBSA
        Solvent                        toluene
        Solvent mass                       9.2140E+01 g/mol
          :  Hamiltonian                  GFN2-xTB          :
 * total energy  :   -84.0443799 Eh     change       -0.1774367E-09 Eh
 * total energy  :   -84.0573659 Eh     change       -0.1298599E-01 Eh
 * total energy  :   -84.0604228 Eh     change       -0.3056916E-02 Eh
 * total energy  :   -84.0606494 Eh     change       -0.2265828E-03 Eh
 * total energy  :   -84.0607307 Eh     change       -0.8131571E-04 Eh
 * total energy  :   -84.0607384 Eh     change       -0.7655172E-05 Eh
 * total energy  :   -84.0607359 Eh     change        0.2478672E-05 Eh
 * total energy  :   -84.0607408 Eh     change       -0.4912718E-05 Eh
 * total energy  :   -84.0607438 Eh     change       -0.2936761E-05 Eh
 * total energy  :   -84.0607453 Eh     change       -0.1558244E-05 Eh
 * total energy  :   -84.0607492 Eh     change       -0.6407042E-06 Eh
 * total energy  :   -84.0607497 Eh     change       -0.5073655E-06 Eh
 * total energy  :   -84.0607501 Eh     change       -0.3988591E-06 Eh
 * total energy  :   -84.0607505 Eh     change       -0.3188530E-06 Eh
 * total energy  :   -84.0607507 Eh     change       -0.2636624E-06 Eh
 * total energy  :   -84.0607509 Eh     change       -0.2150866E-06 Eh
 * total energy  :   -84.0607511 Eh     change       -0.1663476E-06 Eh
 * total energy  :   -84.0607512 Eh     change       -0.1392718E-06 Eh
 * total energy  :   -84.0607512 Eh     change       -0.1668184E-08 Eh
   *** GEOMETRY OPTIMIZATION CONVERGED AFTER 22 ITERATIONS ***

 final structure:
================
56
 xtb: 6.7.1 (edcfbbe)
C           -7.88698085085152       -0.00196321471922        0.13571043477898
C           -7.36363067073696       -0.00411441897141        1.43895929879384
C           -6.01179089883478       -0.00388114645767        1.64069114892193
C           -5.11990080622653       -0.00146334257103        0.54699781253550
C           -3.72102236787293       -0.00130670473458        0.72244000670319
C           -2.87122737449085        0.00102608589105       -0.35436139764782
C           -1.40076550102165        0.00093882963592       -0.16787763622520
C           -0.70993509447510       -1.21465768550123       -0.08530825018112
C           -1.38274045051378       -2.46269029810412       -0.16637336144084
C           -0.70033168640351       -3.63736676707170       -0.08472189235546
C            0.69983905389168       -3.63748677707770        0.08436427496691
C            1.38241096166924       -2.46292510380020        0.16630359293884
C            0.70977361383576       -1.21477932785011        0.08559205469678
C            1.40078571408512        0.00069633514121        0.16840472130263
C            2.87128183837132        0.00054172089948        0.35461590543737
C            3.40428028472969        0.00150031936102        1.66105198899028
C            4.75487375078403        0.00121774747144        1.86187423248539
C            5.64945597770054       -0.00001234808563        0.77019617148184
C            7.04938734351027       -0.00039677144170        0.94369946923264
C            7.88691606755117       -0.00159482525332       -0.13667764792897
C            7.36325010635664       -0.00244225231883       -1.43980150156531
C            6.01136164165283       -0.00210692910709       -1.64120288024441
C            5.11973966513697       -0.00090202822304       -0.54728913037025
C            3.72082076064012       -0.00061181607367       -0.72239135915717
C            0.70994833071194        1.21628743179886        0.08589343560595
C            1.38277430436601        2.46431734642278        0.16682533365368
C            0.70035330515486        3.63899295648774        0.08526768871505
C           -0.69984847716126        3.63911353742350       -0.08358121591386
C           -1.38242420971017        2.46455391389125       -0.16551456204205
C           -0.70976035326351        1.21640956363407       -0.08500073697885
C           -3.40391354912791        0.00338473990566       -1.66092477094095
C           -4.75445637336798        0.00324245671110       -1.86207483792170
C           -5.64929994587251        0.00077633215043       -0.77061349009803
C           -7.04918831800804        0.00045104395956       -0.94445985975238
H           -8.95838631798231       -0.00220146867457       -0.00467706404725
H           -8.04094559891328       -0.00597162291637        2.28099595009620
H           -5.60400958469581       -0.00554603499177        2.64194467875733
H           -3.31901437088602       -0.00311000500748        1.72649930127747
H           -2.45554648925352       -2.46016256630057       -0.29492444928075
H           -1.22527909609738       -4.57967158094261       -0.14792513550328
H            1.22465684227892       -4.57988092081800        0.14731105707743
H            2.45522234284678       -2.46057318850582        0.29481926795700
H            2.72146503815504        0.00241732271512        2.49897949899393
H            5.15880551856016        0.00191286751031        2.86471621584667
H            7.44763435200650        0.00027297396254        1.94887822170082
H            8.95835545194525       -0.00188340590027        0.00344844418535
H            8.04035875965114       -0.00336439738131       -2.28200570539169
H            5.60333407990701       -0.00276194039759       -2.64235728079722
H            3.31857091748780       -0.00134468806232       -1.72635535301828
H            2.45560363638639        2.46177490327588        0.29520177674536
H            1.22530895994603        4.58129878375611        0.14838346365399
H           -1.22468260497304        4.58150940907953       -0.14636520057972
H           -2.45525893910820        2.46218827178896       -0.29385017626193
H           -2.72089381135843        0.00522818248763       -2.49868363309531
H           -5.15814611957762        0.00497985194110       -2.86501282499466
H           -7.44718675853462        0.00214164995863       -1.94973609379788

          :  Hamiltonian                  GFN2-xTB          :
         :: gradient norm              0.000027923248 Eh/a0 ::
         :: HOMO-LUMO gap              2.189033123424 eV    ::
         :: SCC energy               -85.723216310972 Eh    ::
         :: -> dispersion             -0.076703858417 Eh    ::
         :: -> Gsolv                  -0.034228570739 Eh    ::
         :: repulsion energy           1.662465064705 Eh    ::

    * Orbital Energies and Occupations

         #    Occupation            Energy/Eh            Energy/eV
      -------------------------------------------------------------
         1        2.0000           -0.6540164             -17.7967
       ...           ...                  ...                  ...
        67        2.0000           -0.4241851             -11.5427
        68        2.0000           -0.4182135             -11.3802
        69        2.0000           -0.4151970             -11.2981
        70        2.0000           -0.4143815             -11.2759
        71        2.0000           -0.4141057             -11.2684
        72        2.0000           -0.4052224             -11.0267
        73        2.0000           -0.4003182             -10.8932
        74        2.0000           -0.3982489             -10.8369
        75        2.0000           -0.3977030             -10.8220
        76        2.0000           -0.3954002             -10.7594
        77        2.0000           -0.3780041             -10.2860
        78        2.0000           -0.3772696             -10.2660
        79        2.0000           -0.3583317              -9.7507 (HOMO)
        80                         -0.2778863              -7.5617 (LUMO)
        81                         -0.2592739              -7.0552
        82                         -0.2592311              -7.0540
        83                         -0.2303000              -6.2668
        84                         -0.2282113              -6.2099
        85                         -0.2280569              -6.2057
        86                         -0.2195861              -5.9752
        87                         -0.1887719              -5.1367
        88                         -0.1887524              -5.1362
        89                         -0.1762445              -4.7959
        90                         -0.1719944              -4.6802
       ...                                ...                  ...
       158                          0.7148135              19.4511
      -------------------------------------------------------------
                  HL-Gap            0.0804455 Eh            2.1890 eV

     #   Z          covCN         q      C6AA      α(0)
     1   6 C        2.916    -0.032    28.791     8.799
     2   6 C        2.916    -0.031    28.774     8.796
     3   6 C        2.918    -0.036    28.904     8.816
     4   6 C        2.986     0.011    27.763     8.643
     5   6 C        2.923    -0.040    29.004     8.832
     6   6 C        2.973     0.015    27.679     8.630
     7   6 C        2.978    -0.006    28.175     8.707
     8   6 C        2.984     0.005    27.898     8.664
     9   6 C        2.917    -0.034    28.852     8.808
    10   6 C        2.914    -0.031    28.771     8.796
    11   6 C        2.914    -0.031    28.771     8.796
    12   6 C        2.917    -0.034    28.852     8.808
    13   6 C        2.984     0.005    27.898     8.664
    14   6 C        2.978    -0.006    28.175     8.707
    15   6 C        2.973     0.015    27.679     8.630
    16   6 C        2.919    -0.033    28.821     8.804
    17   6 C        2.916    -0.037    28.911     8.817
    18   6 C        2.987     0.009    27.800     8.649
    19   6 C        2.918    -0.036    28.897     8.815
    20   6 C        2.916    -0.032    28.791     8.799
    21   6 C        2.916    -0.031    28.774     8.796
    22   6 C        2.918    -0.036    28.904     8.816
    23   6 C        2.986     0.011    27.763     8.643
    24   6 C        2.923    -0.040    29.004     8.832
    25   6 C        2.984     0.005    27.898     8.664
    26   6 C        2.917    -0.034    28.852     8.808
    27   6 C        2.914    -0.031    28.771     8.796
    28   6 C        2.914    -0.031    28.771     8.796
    29   6 C        2.917    -0.034    28.852     8.808
    30   6 C        2.984     0.005    27.898     8.664
    31   6 C        2.919    -0.033    28.821     8.804
    32   6 C        2.916    -0.037    28.910     8.817
    33   6 C        2.987     0.009    27.800     8.649
    34   6 C        2.918    -0.036    28.897     8.815
    35   1 H        0.926     0.030     2.580     2.512
    36   1 H        0.926     0.031     2.579     2.511
    37   1 H        0.926     0.031     2.566     2.505
    38   1 H        0.925     0.029     2.594     2.518
    39   1 H        0.926     0.030     2.587     2.515
    40   1 H        0.926     0.030     2.587     2.515
    41   1 H        0.926     0.030     2.587     2.515
    42   1 H        0.926     0.030     2.587     2.515
    43   1 H        0.926     0.030     2.593     2.518
    44   1 H        0.926     0.033     2.542     2.493
    45   1 H        0.926     0.032     2.562     2.503
    46   1 H        0.926     0.030     2.580     2.512
    47   1 H        0.926     0.031     2.579     2.511
    48   1 H        0.926     0.031     2.566     2.505
    49   1 H        0.925     0.029     2.594     2.518
    50   1 H        0.926     0.030     2.587     2.515
    51   1 H        0.926     0.030     2.587     2.515
    52   1 H        0.926     0.030     2.587     2.515
    53   1 H        0.926     0.030     2.587     2.515
    54   1 H        0.926     0.030     2.593     2.518
    55   1 H        0.926     0.033     2.542     2.493
    56   1 H        0.926     0.032     2.562     2.503

molecular dipole:
                 x           y           z       tot (Debye)
 q only:        0.000       0.000      -0.000
   full:        0.000       0.000      -0.000       0.000

 projected vibrational frequencies (cm⁻¹)
eigval :       -0.00    -0.00    -0.00    -0.00     0.00     0.00
eigval :      -17.46   -13.84    14.36    25.07    41.87    59.54
eigval :       75.77   103.43   125.03   127.78   147.14   158.56
eigval :      158.95   166.79   180.47   202.70   215.56   283.00
eigval :      296.98   342.39   342.77   356.14   361.57   363.16
eigval :      396.69   403.64   405.93   444.24   445.11   449.26
eigval :      452.09   457.63   475.29   495.66   496.83   499.77
eigval :      529.75   555.78   560.72   580.22   581.93   592.57
eigval :      603.10   623.81   631.91   648.80   656.86   688.91
eigval :      691.93   722.42   724.00   739.30   753.78   757.29
eigval :      773.11   775.70   786.32   796.56   808.50   828.72
eigval :      830.27   832.59   873.45   873.46   874.26   876.12
eigval :      880.75   880.89   885.19   888.73   898.20   913.42
eigval :      913.61   918.43   918.87   921.21   921.30   926.73
eigval :      926.94   927.76   927.82   931.68   982.66  1002.87
eigval :     1076.92  1077.18  1077.25  1078.18  1130.27  1133.94
eigval :     1140.29  1144.64  1169.32  1170.71  1176.13  1176.88
eigval :     1178.03  1178.26  1184.87  1191.49  1224.99  1225.45
eigval :     1225.50  1226.22  1233.55  1256.16  1257.48  1257.52
eigval :     1263.56  1316.29  1327.27  1327.99  1344.48  1348.66
eigval :     1366.82  1381.13  1383.60  1395.48  1395.76  1417.47
eigval :     1424.60  1425.12  1428.46  1439.79  1450.85  1470.02
eigval :     1488.12  1499.47  1500.05  1525.07  1532.83  1542.74
eigval :     1559.71  1560.00  1606.66  1606.85  1607.48  1609.80
eigval :     1609.88  1622.24  3063.04  3063.06  3063.50  3063.53
eigval :     3065.09  3065.16  3066.85  3066.94  3068.09  3068.10
eigval :     3073.26  3073.27  3073.63  3073.69  3077.89  3078.09
eigval :     3081.63  3081.81  3084.87  3084.98  3087.53  3089.37

   temp. (K)  partition function   enthalpy   heat capacity  entropy
                                   cal/mol     cal/K/mol   cal/K/mol   J/K/mol
 298.15  VIB  0.100E+12            14511.618     96.148     88.340
         ROT  0.135E+08              888.752      2.981     35.609
         INT  0.135E+19            15400.370     99.129    123.949
         TR   0.864E+28             1481.254      4.968     44.050
         TOT                       16881.6241   104.0974   167.9983   702.9051

       T/K    H(0)-H(T)+PV         H(T)/Eh          T*S/Eh         G(T)/Eh
   ------------------------------------------------------------------------
    298.15    0.269026E-01    0.460494E+00    0.798214E-01    0.380672E+00
   ------------------------------------------------------------------------

         :::::::::::::::::::::::::::::::::::::::::::::::::::::
         ::                  THERMODYNAMIC                  ::
         :::::::::::::::::::::::::::::::::::::::::::::::::::::
         :: total free energy         -83.680079071945 Eh   ::
         ::.................................................::
         :: total energy              -84.060751244938 Eh   ::
         :: zero point energy           0.433591024501 Eh   ::
         :: G(RRHO) w/o ZPVE           -0.052918851508 Eh   ::
         :: G(RRHO) contrib.            0.380672172993 Eh   ::
         :::::::::::::::::::::::::::::::::::::::::::::::::::::

           -------------------------------------------------
          | TOTAL ENERGY              -84.060751244938 Eh   |
          | TOTAL ENTHALPY            -83.600257640039 Eh   |
          | TOTAL FREE ENERGY         -83.680079071945 Eh   |
          | GRADIENT NORM               0.000027920553 Eh/α |
          | HOMO-LUMO GAP               2.189033120721 eV   |
           -------------------------------------------------

 * finished run on 2025/09/09 at 22:16:29.823
