   * xtb version 6.7.1 (edcfbbe) compiled by 'albert@albert-system' on 2024-07-22

   ID    Z sym.   atoms
    1    8 O      1, 28
    2    6 C      2-8, 10-15, 17-27, 30-35
    3    7 N      9, 29
    4   16 S      16
    5    1 H      36-53

          program call               : xtb data2507/toluene/PTZ-NAI/PTZ-NAI_toluene_S0_finalOpt.xtbopt.xyz --gfn 2 --uhf 2 --gbsa toluene --ohess vtight --parallel 40 --molden --ceasefiles --namespace data2507/toluene/PTZ-NAI/PTZ-NAI_toluene_T1_preOpt
      * Solvation model:               GBSA
        Solvent                        toluene
        Solvent mass                       9.2140E+01 g/mol
          :  Hamiltonian                  GFN2-xTB          :
 * total energy  :   -90.6787880 Eh     change       -0.2030617E-08 Eh
 * total energy  :   -90.6829159 Eh     change       -0.4127905E-02 Eh
 * total energy  :   -90.6839687 Eh     change       -0.1052806E-02 Eh
 * total energy  :   -90.6840940 Eh     change       -0.1253655E-03 Eh
 * total energy  :   -90.6842199 Eh     change       -0.1258959E-03 Eh
 * total energy  :   -90.6842945 Eh     change       -0.7454491E-04 Eh
 * total energy  :   -90.6843734 Eh     change       -0.7888769E-04 Eh
 * total energy  :   -90.6844612 Eh     change       -0.8787297E-04 Eh
 * total energy  :   -90.6845303 Eh     change       -0.6905245E-04 Eh
 * total energy  :   -90.6845679 Eh     change       -0.3759509E-04 Eh
 * total energy  :   -90.6849398 Eh     change       -0.6741580E-05 Eh
 * total energy  :   -90.6849445 Eh     change       -0.4754698E-05 Eh
 * total energy  :   -90.6849480 Eh     change       -0.3454153E-05 Eh
 * total energy  :   -90.6849503 Eh     change       -0.2365239E-05 Eh
 * total energy  :   -90.6849516 Eh     change       -0.1285794E-05 Eh
 * total energy  :   -90.6849524 Eh     change       -0.7230635E-06 Eh
 * total energy  :   -90.6849527 Eh     change       -0.3801611E-06 Eh
 * total energy  :   -90.6849529 Eh     change       -0.1591548E-06 Eh
 * total energy  :   -90.6849529 Eh     change       -0.8388966E-08 Eh
   *** GEOMETRY OPTIMIZATION CONVERGED AFTER 36 ITERATIONS ***

 final structure:
================
53
 xtb: 6.7.1 (edcfbbe)
O            4.15276866085921       -1.06280851792571        1.96335479363464
C            3.33925465115922       -0.59932122894882        1.15856274814574
C            1.90525549011548       -0.71126737773309        1.31057435275375
C            1.37413721087756       -1.35635334863336        2.44159143827074
C            0.01147453426945       -1.45778712811869        2.60505756576944
C           -0.85873682596165       -0.93781238676639        1.65408426882458
C           -0.36630775798501       -0.30232912885956        0.50446199110867
C           -1.20195795681837        0.26263800480345       -0.49514948157046
N           -2.61820360704742        0.15024618285182       -0.38841080650458
C           -3.32146838382047        1.28590866398702       -0.04959241390941
C           -2.62348653919659        2.46314363172571        0.27693307949813
C           -3.28485371511007        3.62902454423219        0.58486839512195
C           -4.67705691943745        3.67319825557037        0.59336769920280
C           -5.38763123749276        2.52529947509202        0.32145370239285
C           -4.72756325054034        1.33736601766738        0.01199197158470
S           -5.74542163449766       -0.05921932997689       -0.25129696978244
C           -4.57567598544896       -1.31394784954708       -0.58988805716617
C           -5.09833045592213       -2.58171649159737       -0.84200288225704
C           -4.26838131633656       -3.63088286880738       -1.16772961455317
C           -2.89727324635327       -3.40666529262426       -1.26902804671975
C           -2.37171322225814       -2.15967797343989       -1.02330148394736
C           -3.18952515867795       -1.07781310087209       -0.65071626435855
C           -0.66547192785305        0.93637849953684       -1.59962509311344
C            0.69181162674868        1.03780503438636       -1.75908364638473
C            1.56564190268315        0.48540653879134       -0.79727838762625
C            1.04271971744024       -0.17778799206785        0.33274588585874
C            2.99046436440739        0.61595732594883       -0.97606212869075
O            3.51485035594423        1.19329033492876       -1.93493809887570
N            3.78682394804840        0.05747256073122        0.01929380304151
C            5.20383791897472        0.17456291459874       -0.14415980789717
C            5.85075084650250       -0.58035223245671       -1.11016482477879
C            7.22097322495808       -0.46525314029268       -1.26462737225291
C            7.94318126592694        0.39305975200479       -0.45290758177168
C            7.29293405527407        1.14315971591146        0.51234034844287
C            5.92181394890161        1.03977694843820        0.66670059794010
H            2.06682124396073       -1.75864023218141        3.16513157781520
H           -0.39032510887778       -1.95077342817930        3.47809521585190
H           -1.92343699310852       -1.02943011704534        1.80732529798607
H           -1.54626038580053        2.44164067909106        0.29077833869660
H           -2.71335999754311        4.51099988343959        0.82741300869098
H           -5.19431731428409        4.58932977889777        0.82820274643718
H           -6.46622372009513        2.52210016798501        0.34816676336773
H           -6.16682999083882       -2.71862381900342       -0.77971957063874
H           -4.67841480013092       -4.60971000122202       -1.35691643228879
H           -2.23580471720595       -4.21169618210277       -1.54778336971625
H           -1.31052492786531       -2.00170381709055       -1.11919923660948
H           -1.33711142412392        1.34613423705519       -2.33965801749781
H            1.12790046071092        1.53111677944621       -2.61337446528550
H            5.27678198191581       -1.24727091801236       -1.73740266012223
H            7.72398519845554       -1.05195543092443       -2.01918766671641
H            9.01311548688716        0.47750489947849       -0.57241424360276
H            7.85215738015594        1.81403215897701        1.14778419286618
H            5.40337337759111        1.61909225276376        1.41727684424826

          :  Hamiltonian                  GFN2-xTB          :
         :: gradient norm              0.000134199525 Eh/a0 ::
         :: HOMO-LUMO gap              0.522011846797 eV    ::
         :: SCC energy               -92.195047858839 Eh    ::
         :: -> dispersion             -0.078546303287 Eh    ::
         :: -> Gsolv                  -0.062680061585 Eh    ::
         :: repulsion energy           1.510094953356 Eh    ::

    * Orbital Energies and Occupations

         #    Occupation            Energy/Eh            Energy/eV
      -------------------------------------------------------------
         1        2.0000           -0.7676921             -20.8900
       ...           ...                  ...                  ...
        72        2.0000           -0.4352273             -11.8431
        73        2.0000           -0.4287899             -11.6680
        74        2.0000           -0.4236842             -11.5290
        75        2.0000           -0.4152536             -11.2996
        76        2.0000           -0.4115086             -11.1977
        77        2.0000           -0.4102757             -11.1642
        78        2.0000           -0.4070595             -11.0767
        79        2.0000           -0.3970457             -10.8042
        80        2.0000           -0.3902323             -10.6188
        81        1.9991           -0.3860192             -10.5041
        82        1.9942           -0.3842521             -10.4560
        83        1.0067           -0.3746153             -10.1938
        84        1.0000           -0.2997289              -8.1560 (HOMO)
        85        0.0000           -0.2805453              -7.6340 (LUMO)
        86                         -0.2617082              -7.1214
        87                         -0.2577178              -7.0129
        88                         -0.2405430              -6.5455
        89                         -0.2346534              -6.3852
        90                         -0.2327432              -6.3333
        91                         -0.2306648              -6.2767
        92                         -0.2256802              -6.1411
        93                         -0.2228567              -6.0642
        94                         -0.2107290              -5.7342
        95                         -0.1687397              -4.5916
       ...                                ...                  ...
       163                          0.7119727              19.3738
      -------------------------------------------------------------
                  HL-Gap            0.0191836 Eh            0.5220 eV

     #   Z          covCN         q      C6AA      α(0)
     1   8 O        0.858    -0.514    24.099     6.582
     2   6 C        2.778     0.259    22.634     7.792
     3   6 C        2.978    -0.044    29.092     8.847
     4   6 C        2.918    -0.034    28.857     8.809
     5   6 C        2.912    -0.033    28.811     8.802
     6   6 C        2.917    -0.055    29.362     8.886
     7   6 C        2.977     0.004    27.925     8.668
     8   6 C        2.933     0.012    27.748     8.639
     9   7 N        2.750     0.018    20.933     6.795
    10   6 C        2.947     0.063    26.584     8.456
    11   6 C        2.924    -0.039    28.968     8.826
    12   6 C        2.917    -0.017    28.434     8.744
    13   6 C        2.917    -0.018    28.460     8.748
    14   6 C        2.994    -0.032    28.780     8.800
    15   6 C        2.968     0.028    27.369     8.581
    16  16 S        2.164     0.062   138.543    19.810
    17   6 C        2.968     0.028    27.376     8.582
    18   6 C        2.995    -0.032    28.780     8.800
    19   6 C        2.917    -0.018    28.462     8.748
    20   6 C        2.917    -0.017    28.425     8.743
    21   6 C        2.924    -0.038    28.951     8.824
    22   6 C        2.945     0.063    26.577     8.455
    23   6 C        2.911    -0.042    29.038     8.836
    24   6 C        2.917    -0.038    28.942     8.822
    25   6 C        2.976    -0.046    29.145     8.855
    26   6 C        2.991     0.004    27.921     8.668
    27   6 C        2.777     0.257    22.678     7.800
    28   8 O        0.858    -0.517    24.154     6.589
    29   7 N        2.748    -0.140    24.037     7.282
    30   6 C        2.936     0.098    25.833     8.336
    31   6 C        2.922    -0.031    28.772     8.796
    32   6 C        2.921    -0.029    28.727     8.789
    33   6 C        2.920    -0.032    28.787     8.798
    34   6 C        2.921    -0.029    28.726     8.789
    35   6 C        2.922    -0.031    28.770     8.796
    36   1 H        0.926     0.033     2.550     2.497
    37   1 H        0.926     0.034     2.526     2.485
    38   1 H        0.926     0.027     2.628     2.535
    39   1 H        0.926     0.064     2.147     2.291
    40   1 H        0.926     0.066     2.132     2.283
    41   1 H        0.926     0.071     2.079     2.255
    42   1 H        0.926     0.074     2.047     2.237
    43   1 H        0.926     0.074     2.046     2.237
    44   1 H        0.926     0.070     2.080     2.255
    45   1 H        0.926     0.065     2.141     2.288
    46   1 H        0.926     0.063     2.164     2.301
    47   1 H        0.926     0.043     2.406     2.426
    48   1 H        0.926     0.042     2.417     2.431
    49   1 H        0.926     0.033     2.549     2.497
    50   1 H        0.926     0.045     2.383     2.414
    51   1 H        0.926     0.047     2.356     2.400
    52   1 H        0.926     0.045     2.387     2.416
    53   1 H        0.926     0.032     2.557     2.501

molecular dipole:
                 x           y           z       tot (Debye)
 q only:       -8.506       0.087      -0.526
   full:       -8.293       0.074      -0.493      21.118

 projected vibrational frequencies (cm⁻¹)
eigval :       -0.00     0.00     0.00     0.00     0.00     0.00
eigval :       16.79    18.05    26.80    29.63    45.64    48.60
eigval :       66.50    68.72    99.63   129.11   130.30   134.90
eigval :      145.67   180.55   197.84   203.15   220.06   235.24
eigval :      240.69   268.73   300.75   310.80   339.86   349.06
eigval :      372.15   376.74   387.15   399.08   404.43   412.56
eigval :      421.53   425.92   438.82   470.06   471.43   475.21
eigval :      479.75   490.74   497.28   522.22   540.97   549.00
eigval :      563.99   589.65   598.44   611.83   631.75   638.39
eigval :      657.77   661.03   662.76   663.63   669.21   676.96
eigval :      707.80   722.02   728.17   759.32   763.59   770.57
eigval :      775.63   776.64   805.08   831.32   845.64   848.55
eigval :      869.43   870.17   872.15   887.16   896.32   902.10
eigval :      908.81   911.54   913.64   921.82   924.64   925.82
eigval :      928.21   931.41   985.56  1025.96  1043.61  1051.81
eigval :     1078.52  1093.32  1093.71  1097.15  1114.31  1127.67
eigval :     1134.47  1146.29  1153.04  1160.96  1173.62  1174.03
eigval :     1177.21  1187.47  1188.91  1192.87  1201.99  1228.26
eigval :     1232.09  1239.41  1258.39  1272.21  1276.79  1283.55
eigval :     1307.38  1318.13  1331.50  1338.57  1345.31  1359.46
eigval :     1377.63  1388.92  1401.34  1408.39  1411.06  1415.59
eigval :     1435.10  1441.54  1458.45  1472.23  1499.27  1509.71
eigval :     1525.44  1538.25  1551.40  1561.28  1571.59  1574.28
eigval :     1592.20  1596.78  1612.40  3073.45  3073.67  3074.14
eigval :     3079.54  3080.50  3085.06  3085.21  3094.16  3096.29
eigval :     3098.67  3099.40  3102.88  3103.04  3103.35  3115.01
eigval :     3115.26  3123.34  3126.73

   temp. (K)  partition function   enthalpy   heat capacity  entropy
                                   cal/mol     cal/K/mol   cal/K/mol   J/K/mol
 298.15  VIB  0.240E+12            15411.166     99.491     93.854
         ROT  0.302E+08              888.752      2.981     37.208
         INT  0.724E+19            16299.918    102.472    131.062
         TR   0.988E+28             1481.254      4.968     44.314
         TOT                       17781.1719   107.4402   175.3760   733.7733

       T/K    H(0)-H(T)+PV         H(T)/Eh          T*S/Eh         G(T)/Eh
   ------------------------------------------------------------------------
    298.15    0.283361E-01    0.413417E+00    0.833268E-01    0.330091E+00
   ------------------------------------------------------------------------

         :::::::::::::::::::::::::::::::::::::::::::::::::::::
         ::                  THERMODYNAMIC                  ::
         :::::::::::::::::::::::::::::::::::::::::::::::::::::
         :: total free energy         -90.354862291295 Eh   ::
         ::.................................................::
         :: total energy              -90.684952903925 Eh   ::
         :: zero point energy           0.385081324601 Eh   ::
         :: G(RRHO) w/o ZPVE           -0.054990711972 Eh   ::
         :: G(RRHO) contrib.            0.330090612629 Eh   ::
         :::::::::::::::::::::::::::::::::::::::::::::::::::::

           -------------------------------------------------
          | TOTAL ENERGY              -90.684952903925 Eh   |
          | TOTAL ENTHALPY            -90.271535478298 Eh   |
          | TOTAL FREE ENERGY         -90.354862291295 Eh   |
          | GRADIENT NORM               0.000134256267 Eh/α |
          | HOMO-LUMO GAP               0.522013565028 eV   |
           -------------------------------------------------

 * finished run on 2025/07/20 at 09:26:39.624
