   * xtb version 6.7.1 (edcfbbe) compiled by 'albert@albert-system' on 2024-07-22

   ID    Z sym.   atoms
    1    8 O      1, 28
    2    6 C      2-8, 10-15, 17-27, 30-35
    3    7 N      9, 29
    4   16 S      16
    5    1 H      36-53

          program call               : xtb data2507/toluene/PTZ-NAI/PTZ-NAI_toluene_T1_crest.xyz --gfn 2 --uhf 2 --gbsa toluene --ohess vtight --parallel 40 --molden --ceasefiles --namespace data2507/toluene/PTZ-NAI/PTZ-NAI_toluene_T1_finalOpt
      * Solvation model:               GBSA
        Solvent                        toluene
        Solvent mass                       9.2140E+01 g/mol
          :  Hamiltonian                  GFN2-xTB          :
 * total energy  :   -90.6845791 Eh     change       -0.1161311E-08 Eh
 * total energy  :   -90.6847969 Eh     change       -0.2178477E-03 Eh
 * total energy  :   -90.6848628 Eh     change       -0.6585264E-04 Eh
 * total energy  :   -90.6848711 Eh     change       -0.8320623E-05 Eh
 * total energy  :   -90.6848792 Eh     change       -0.8055697E-05 Eh
 * total energy  :   -90.6848836 Eh     change       -0.4439297E-05 Eh
 * total energy  :   -90.6848892 Eh     change       -0.5546192E-05 Eh
 * total energy  :   -90.6848933 Eh     change       -0.4113912E-05 Eh
 * total energy  :   -90.6848971 Eh     change       -0.3870132E-05 Eh
 * total energy  :   -90.6849021 Eh     change       -0.4943478E-05 Eh
 * total energy  :   -90.6849468 Eh     change       -0.5749812E-06 Eh
 * total energy  :   -90.6849473 Eh     change       -0.4776111E-06 Eh
 * total energy  :   -90.6849476 Eh     change       -0.3134031E-06 Eh
 * total energy  :   -90.6849478 Eh     change       -0.1814278E-06 Eh
 * total energy  :   -90.6849479 Eh     change       -0.1216066E-06 Eh
 * total energy  :   -90.6849480 Eh     change       -0.1110723E-06 Eh
 * total energy  :   -90.6849481 Eh     change       -0.1173456E-06 Eh
 * total energy  :   -90.6849482 Eh     change       -0.1203347E-06 Eh
 * total energy  :   -90.6849483 Eh     change       -0.8374568E-07 Eh
   *** GEOMETRY OPTIMIZATION CONVERGED AFTER 38 ITERATIONS ***

 final structure:
================
53
 xtb: 6.7.1 (edcfbbe)
O            4.19813285648827       -1.10929098438942        1.94341518626476
C            3.37336909508577       -0.63430052255205        1.15711762618794
C            1.94181982149236       -0.73792989819998        1.33650200723230
C            1.42880147221044       -1.38342913021926        2.47566743494352
C            0.06895221235258       -1.47828079998402        2.66461901726525
C           -0.81655950989644       -0.95191406948921        1.73142747448777
C           -0.34264728919935       -0.31616650871817        0.57418204657977
C           -1.19385916538219        0.25464485393010       -0.40879328234929
N           -2.60860470379788        0.14965469781874       -0.27739853226719
C           -3.29880018472949        1.28930070355089        0.07481996195145
C           -2.58726756013241        2.45923500820339        0.39839803193804
C           -3.23534759594484        3.62905045580110        0.71937763542185
C           -4.62697445200130        3.68447515564092        0.74470459302641
C           -5.35014273890323        2.54375522454842        0.47580230332267
C           -4.70356602179923        1.35198314766677        0.15294194335635
S           -5.73573172965547       -0.03460287726887       -0.10770703776883
C           -4.57982478831404       -1.29821662963890       -0.46024704068068
C           -5.11568981884868       -2.56091378193572       -0.71032528129438
C           -4.29789488371259       -3.61634379351897       -1.04628581942854
C           -2.92584928135699       -3.40376287375411       -1.15939207865593
C           -2.38736248940045       -2.16176884922508       -0.91634689753232
C           -3.19239048291972       -1.07361614110476       -0.53448350865464
C           -0.67457737955253        0.92876467133433       -1.52126463533331
C            0.67993872583667        1.02543276810930       -1.70481714662619
C            1.56867002252933        0.46710436486641       -0.76024568173979
C            1.06353345090108       -0.19751957789784        0.37682995338647
C            2.99034415042040        0.59427125574618       -0.96398111045028
O            3.49752120707724        1.17766535269510       -1.92833237535733
N            3.80380810847983        0.02642060215577        0.01295512208389
C            5.21713696253038        0.13740811044843       -0.17877662730008
C            5.96530307453408        0.95191592340916        0.65715365465317
C            7.33282640266478        1.05136394127779        0.47149984304541
C            7.94956919863999        0.35049968463995       -0.55105237302164
C            7.19755688924949       -0.45772752995018       -1.38679075332963
C            5.83116284002178       -0.57035379042138       -1.20067166141176
H            2.13293064599501       -1.79122932640957        3.18493460909230
H           -0.31886985687974       -1.97136589377235        3.54388120261145
H           -1.87864142416660       -1.03861229828159        1.90448682687219
H           -1.51018216582423        2.42879995492602        0.39889047895350
H           -2.65385109372567        4.50529076989831        0.95890489195714
H           -5.13379394013114        4.60375981599853        0.98983054277653
H           -6.42836531830107        2.54927401253209        0.51490531309755
H           -6.18466860468579       -2.68880802421680       -0.63809265001196
H           -4.71799347007368       -4.59120082929096       -1.23377497799959
H           -2.27379135334142       -4.21394548305241       -1.44535517383403
H           -1.32576399801000       -2.01293650711653       -1.02152816236385
H           -1.35771863152993        1.34293126419168       -2.24818456190474
H            1.10259435909695        1.51925831482273       -2.56554076689891
H            5.47356242462297        1.49437416173678        1.45182642988455
H            7.91537091015496        1.68263249440753        1.12633394859723
H            9.01648698773488        0.43347166544579       -0.69574566710736
H            7.67412459713735       -1.00664390099723       -2.18566794352023
H            5.23440477506009       -1.19803266479758       -1.84674444904829

          :  Hamiltonian                  GFN2-xTB          :
         :: gradient norm              0.000071326459 Eh/a0 ::
         :: HOMO-LUMO gap              0.523097424287 eV    ::
         :: SCC energy               -92.194999241386 Eh    ::
         :: -> dispersion             -0.078545723659 Eh    ::
         :: -> Gsolv                  -0.062576650354 Eh    ::
         :: repulsion energy           1.510050932737 Eh    ::

    * Orbital Energies and Occupations

         #    Occupation            Energy/Eh            Energy/eV
      -------------------------------------------------------------
         1        2.0000           -0.7676937             -20.8900
       ...           ...                  ...                  ...
        72        2.0000           -0.4352726             -11.8444
        73        2.0000           -0.4288493             -11.6696
        74        2.0000           -0.4236788             -11.5289
        75        2.0000           -0.4152861             -11.3005
        76        2.0000           -0.4119538             -11.2098
        77        2.0000           -0.4106621             -11.1747
        78        2.0000           -0.4068457             -11.0708
        79        2.0000           -0.3958913             -10.7728
        80        2.0000           -0.3900885             -10.6148
        81        1.9992           -0.3861817             -10.5085
        82        1.9942           -0.3842698             -10.4565
        83        1.0066           -0.3746206             -10.1939
        84        1.0000           -0.2997631              -8.1570 (HOMO)
        85        0.0000           -0.2805400              -7.6339 (LUMO)
        86                         -0.2617071              -7.1214
        87                         -0.2577214              -7.0130
        88                         -0.2410560              -6.5595
        89                         -0.2346583              -6.3854
        90                         -0.2327725              -6.3341
        91                         -0.2307762              -6.2797
        92                         -0.2253570              -6.1323
        93                         -0.2220474              -6.0422
        94                         -0.2107622              -5.7351
        95                         -0.1687386              -4.5916
       ...                                ...                  ...
       163                          0.7118554              19.3706
      -------------------------------------------------------------
                  HL-Gap            0.0192231 Eh            0.5231 eV

     #   Z          covCN         q      C6AA      α(0)
     1   8 O        0.858    -0.514    24.086     6.580
     2   6 C        2.777     0.259    22.635     7.792
     3   6 C        2.977    -0.044    29.091     8.847
     4   6 C        2.918    -0.034    28.857     8.809
     5   6 C        2.912    -0.033    28.811     8.802
     6   6 C        2.917    -0.055    29.361     8.886
     7   6 C        2.977     0.004    27.925     8.668
     8   6 C        2.933     0.012    27.748     8.639
     9   7 N        2.750     0.018    20.934     6.795
    10   6 C        2.947     0.063    26.584     8.457
    11   6 C        2.924    -0.039    28.967     8.826
    12   6 C        2.917    -0.017    28.434     8.744
    13   6 C        2.917    -0.018    28.459     8.748
    14   6 C        2.994    -0.032    28.780     8.800
    15   6 C        2.968     0.028    27.369     8.581
    16  16 S        2.163     0.062   138.542    19.810
    17   6 C        2.968     0.028    27.376     8.582
    18   6 C        2.995    -0.032    28.780     8.800
    19   6 C        2.917    -0.018    28.462     8.748
    20   6 C        2.917    -0.017    28.425     8.743
    21   6 C        2.924    -0.038    28.952     8.824
    22   6 C        2.945     0.064    26.577     8.455
    23   6 C        2.911    -0.042    29.037     8.836
    24   6 C        2.917    -0.038    28.942     8.822
    25   6 C        2.976    -0.046    29.144     8.855
    26   6 C        2.991     0.004    27.921     8.668
    27   6 C        2.777     0.257    22.679     7.800
    28   8 O        0.858    -0.516    24.142     6.588
    29   7 N        2.748    -0.140    24.033     7.281
    30   6 C        2.936     0.097    25.847     8.338
    31   6 C        2.922    -0.031    28.769     8.796
    32   6 C        2.921    -0.029    28.732     8.790
    33   6 C        2.920    -0.032    28.792     8.799
    34   6 C        2.921    -0.029    28.732     8.790
    35   6 C        2.922    -0.031    28.770     8.796
    36   1 H        0.926     0.033     2.549     2.497
    37   1 H        0.926     0.034     2.526     2.485
    38   1 H        0.926     0.027     2.626     2.534
    39   1 H        0.926     0.064     2.147     2.292
    40   1 H        0.926     0.066     2.132     2.284
    41   1 H        0.926     0.071     2.079     2.255
    42   1 H        0.926     0.074     2.047     2.237
    43   1 H        0.926     0.074     2.046     2.237
    44   1 H        0.926     0.070     2.080     2.255
    45   1 H        0.926     0.065     2.141     2.288
    46   1 H        0.926     0.063     2.164     2.300
    47   1 H        0.926     0.043     2.407     2.426
    48   1 H        0.926     0.042     2.416     2.431
    49   1 H        0.926     0.032     2.554     2.499
    50   1 H        0.926     0.044     2.391     2.418
    51   1 H        0.926     0.047     2.360     2.402
    52   1 H        0.926     0.045     2.387     2.416
    53   1 H        0.926     0.033     2.546     2.495

molecular dipole:
                 x           y           z       tot (Debye)
 q only:       -8.525       0.131      -0.379
   full:       -8.311       0.117      -0.347      21.144

 projected vibrational frequencies (cm⁻¹)
eigval :       -0.00    -0.00     0.00     0.00     0.00     0.00
eigval :       17.23    23.58    28.67    32.09    45.08    48.26
eigval :       67.40    68.35    99.64   129.01   129.99   135.44
eigval :      145.64   178.99   196.90   202.65   220.33   235.58
eigval :      242.59   269.32   301.37   310.22   340.28   349.23
eigval :      371.81   377.06   387.60   398.04   404.54   411.82
eigval :      421.21   426.31   438.41   469.41   472.02   475.70
eigval :      480.15   492.45   497.37   521.93   541.31   549.35
eigval :      563.96   589.46   598.26   612.10   631.66   638.61
eigval :      658.08   661.47   663.50   665.38   668.43   677.25
eigval :      707.48   721.20   728.89   760.36   762.42   770.23
eigval :      775.86   777.00   804.41   831.36   845.51   846.96
eigval :      868.45   871.95   872.50   886.21   897.43   902.07
eigval :      908.41   910.76   914.76   924.68   925.63   927.89
eigval :      928.08   931.47   985.63  1025.91  1043.56  1051.80
eigval :     1079.00  1092.85  1093.20  1096.92  1113.67  1127.19
eigval :     1134.14  1146.17  1152.40  1160.70  1173.23  1173.54
eigval :     1177.44  1187.03  1188.89  1191.77  1201.67  1227.98
eigval :     1230.82  1238.08  1258.25  1271.93  1277.21  1283.56
eigval :     1306.58  1318.70  1331.67  1338.66  1345.25  1359.27
eigval :     1377.39  1388.86  1401.29  1408.21  1410.77  1415.57
eigval :     1435.35  1441.18  1458.68  1472.38  1499.25  1509.68
eigval :     1525.47  1538.26  1551.58  1561.24  1571.53  1573.98
eigval :     1592.38  1596.94  1612.41  3073.59  3073.79  3074.32
eigval :     3080.72  3081.11  3084.87  3085.29  3094.49  3096.24
eigval :     3098.48  3099.65  3102.67  3102.87  3103.30  3115.50
eigval :     3115.66  3123.25  3126.63

   temp. (K)  partition function   enthalpy   heat capacity  entropy
                                   cal/mol     cal/K/mol   cal/K/mol   J/K/mol
 298.15  VIB  0.160E+12            15395.987     99.556     93.552
         ROT  0.302E+08              888.752      2.981     37.209
         INT  0.484E+19            16284.739    102.536    130.762
         TR   0.988E+28             1481.254      4.968     44.314
         TOT                       17765.9933   107.5046   175.0758   732.5171

       T/K    H(0)-H(T)+PV         H(T)/Eh          T*S/Eh         G(T)/Eh
   ------------------------------------------------------------------------
    298.15    0.283119E-01    0.413422E+00    0.831842E-01    0.330238E+00
   ------------------------------------------------------------------------

         :::::::::::::::::::::::::::::::::::::::::::::::::::::
         ::                  THERMODYNAMIC                  ::
         :::::::::::::::::::::::::::::::::::::::::::::::::::::
         :: total free energy         -90.354710048119 Eh   ::
         ::.................................................::
         :: total energy              -90.684948304869 Eh   ::
         :: zero point energy           0.385110499992 Eh   ::
         :: G(RRHO) w/o ZPVE           -0.054872243241 Eh   ::
         :: G(RRHO) contrib.            0.330238256750 Eh   ::
         :::::::::::::::::::::::::::::::::::::::::::::::::::::

           -------------------------------------------------
          | TOTAL ENERGY              -90.684948304869 Eh   |
          | TOTAL ENTHALPY            -90.271525892347 Eh   |
          | TOTAL FREE ENERGY         -90.354710048119 Eh   |
          | GRADIENT NORM               0.000070621559 Eh/α |
          | HOMO-LUMO GAP               0.523086607237 eV   |
           -------------------------------------------------

 * finished run on 2025/07/20 at 09:29:31.633
