   * xtb version 6.7.1 (edcfbbe) compiled by 'albert@albert-system' on 2024-07-22

   ID    Z sym.   atoms
    1    8 O      1, 28
    2    6 C      2-8, 10-15, 17-27, 30-35
    3    7 N      9, 29
    4   16 S      16
    5    1 H      36-53

          program call               : xtb data2507/toluene/PTZ-NAI/PTZ-NAI_toluene_S0_crest.xyz --gfn 2 --gbsa toluene --ohess vtight --parallel 40 --molden --ceasefiles --namespace data2507/toluene/PTZ-NAI/PTZ-NAI_toluene_S0_finalOpt
      * Solvation model:               GBSA
        Solvent                        toluene
        Solvent mass                       9.2140E+01 g/mol
          :  Hamiltonian                  GFN2-xTB          :
 * total energy  :   -90.7390405 Eh     change       -0.1662045E-08 Eh
 * total energy  :   -90.7391215 Eh     change       -0.8096486E-04 Eh
 * total energy  :   -90.7391432 Eh     change       -0.2173532E-04 Eh
 * total energy  :   -90.7391465 Eh     change       -0.3272972E-05 Eh
 * total energy  :   -90.7391458 Eh     change        0.7254452E-06 Eh
 * total energy  :   -90.7391486 Eh     change       -0.2786750E-05 Eh
 * total energy  :   -90.7391502 Eh     change       -0.1608244E-05 Eh
 * total energy  :   -90.7391522 Eh     change       -0.2020927E-05 Eh
 * total energy  :   -90.7391544 Eh     change       -0.2217156E-05 Eh
 * total energy  :   -90.7391567 Eh     change       -0.2297004E-05 Eh
 * total energy  :   -90.7391803 Eh     change       -0.3514868E-06 Eh
 * total energy  :   -90.7391806 Eh     change       -0.2346092E-06 Eh
 * total energy  :   -90.7391808 Eh     change       -0.1951560E-06 Eh
 * total energy  :   -90.7391809 Eh     change       -0.1287576E-06 Eh
 * total energy  :   -90.7391810 Eh     change       -0.1119199E-06 Eh
 * total energy  :   -90.7391811 Eh     change       -0.1077451E-06 Eh
 * total energy  :   -90.7391812 Eh     change       -0.1082979E-06 Eh
 * total energy  :   -90.7391813 Eh     change       -0.1219066E-06 Eh
 * total energy  :   -90.7391813 Eh     change       -0.2359457E-08 Eh
   *** GEOMETRY OPTIMIZATION CONVERGED AFTER 44 ITERATIONS ***

 final structure:
================
53
 xtb: 6.7.1 (edcfbbe)
O            4.16401080491910       -1.15254787432321        1.93704377175389
C            3.36967791602670       -0.66158699855268        1.15575528978918
C            1.91230097877852       -0.75885171967258        1.31774627381305
C            1.38965185023525       -1.42275437317683        2.41042365784539
C            0.00751163991987       -1.51693077096106        2.58329425765629
C           -0.84753859362998       -0.96532089844638        1.66327456483012
C           -0.35210521949305       -0.28994324060114        0.52905524649622
C           -1.19885823424693        0.30807066510150       -0.44552701779728
N           -2.60162686377162        0.19222853550833       -0.29601471906424
C           -3.35569123123019        1.33827346041140       -0.02244488538551
C           -2.75598386689877        2.59891391739930        0.00361071024644
C           -3.48628815553990        3.74486714717856        0.26321262920539
C           -4.84570319022844        3.67011414474317        0.50403238221462
C           -5.45215740506222        2.42758184590812        0.52273250511043
C           -4.71878935259638        1.27572480347998        0.28284615868182
S           -5.58923252580160       -0.25364100297440        0.49334458768632
C           -4.48734241827343       -1.38402292681219       -0.30748689791401
C           -4.99793010974208       -2.63339983416153       -0.62518227205727
C           -4.20153064318658       -3.58936190157833       -1.22871733880232
C           -2.89156657837950       -3.27236879787243       -1.53989904851201
C           -2.38590405783871       -2.02043029285012       -1.24087906357291
C           -3.16239862837437       -1.05381209000463       -0.59773641721663
C           -0.65580384654755        0.98291395163250       -1.52092067226024
C            0.72412244654898        1.08467812630221       -1.67560901210544
C            1.57828644246938        0.51437019086313       -0.75016958522184
C            1.05261630363417       -0.17678115340857        0.36202158204966
C            3.02950041260806        0.63424723539222       -0.93047372130032
O            3.54301764353046        1.22801050392623       -1.86172584884536
N            3.81658113230759        0.02998062147926        0.03948973861277
C            5.24159451038413        0.13533305893416       -0.12633883215039
C            5.88046045312991       -0.64847073612259       -1.07329640005630
C            7.25191757271526       -0.54449854848561       -1.22831668738882
C            7.97681695590171        0.33162513243723       -0.43801662542859
C            7.33086505394766        1.11071180083145        0.50717331389846
C            5.95901661755553        1.01755416783629        0.66502554406423
H            2.07168504733783       -1.85969738490763        3.12446276708018
H           -0.38521526290767       -2.02791644271480        3.44856964778279
H           -1.91464748376798       -1.04299503659865        1.80445230790055
H           -1.69531716601564        2.68959208644390       -0.16459152107251
H           -2.98034497980066        4.69817580720403        0.27623744403654
H           -5.42528443309778        4.55917186775714        0.69584804924234
H           -6.50436513862206        2.32993898861558        0.74406434353601
H           -6.02761171213591       -2.84549007329079       -0.37952509396038
H           -4.60487208397558       -4.56276873729254       -1.45890734404911
H           -2.25476770769441       -3.99556346267782       -2.02591448714823
H           -1.36743999570193       -1.78847741218590       -1.51006330760576
H           -1.31119472746720        1.42016943701752       -2.25947758557286
H            1.14735599195803        1.59925567014280       -2.52508465040303
H            5.30461004301010       -1.32891795757894       -1.68341624356251
H            7.75277505835287       -1.15267150284377       -1.96645606907810
H            9.04686985564433        0.40790705693440       -0.55919884248753
H            7.89331295827792        1.79507250747234        1.12428889119036
H            5.44411911303475        1.61964347044324        1.39936032719714

          :  Hamiltonian                  GFN2-xTB          :
         :: gradient norm              0.000050691344 Eh/a0 ::
         :: HOMO-LUMO gap              0.739107553430 eV    ::
         :: SCC energy               -92.262037890755 Eh    ::
         :: -> dispersion             -0.078074549060 Eh    ::
         :: -> Gsolv                  -0.041583384884 Eh    ::
         :: repulsion energy           1.522856554574 Eh    ::

    * Orbital Energies and Occupations

         #    Occupation            Energy/Eh            Energy/eV
      -------------------------------------------------------------
         1        2.0000           -0.7278438             -19.8056
       ...           ...                  ...                  ...
        71        2.0000           -0.4365384             -11.8788
        72        2.0000           -0.4345552             -11.8248
        73        2.0000           -0.4300943             -11.7035
        74        2.0000           -0.4282253             -11.6526
        75        2.0000           -0.4224400             -11.4952
        76        2.0000           -0.4217944             -11.4776
        77        2.0000           -0.4205996             -11.4451
        78        2.0000           -0.4189704             -11.4008
        79        2.0000           -0.4164229             -11.3314
        80        2.0000           -0.4140513             -11.2669
        81        2.0000           -0.4135246             -11.2526
        82        2.0000           -0.3893138             -10.5938
        83        2.0000           -0.3502692              -9.5313 (HOMO)
        84        0.0000           -0.3231075              -8.7922 (LUMO)
        85                         -0.2632043              -7.1622
        86                         -0.2619968              -7.1293
        87                         -0.2501505              -6.8069
        88                         -0.2410786              -6.5601
        89                         -0.2386330              -6.4935
        90                         -0.2361748              -6.4266
        91                         -0.2355914              -6.4108
        92                         -0.2333477              -6.3497
        93                         -0.2111454              -5.7456
        94                         -0.2041893              -5.5563
       ...                                ...                  ...
       163                          0.7107186              19.3396
      -------------------------------------------------------------
                  HL-Gap            0.0271617 Eh            0.7391 eV

     #   Z          covCN         q      C6AA      α(0)
     1   8 O        0.859    -0.436    22.420     6.348
     2   6 C        2.775     0.277    22.316     7.737
     3   6 C        2.976    -0.027    28.671     8.783
     4   6 C        2.922    -0.007    28.192     8.707
     5   6 C        2.914    -0.020    28.518     8.757
     6   6 C        2.917    -0.017    28.424     8.743
     7   6 C        2.984     0.010    27.792     8.648
     8   6 C        2.927     0.073    26.379     8.423
     9   7 N        2.748    -0.063    22.457     7.038
    10   6 C        2.937     0.057    26.726     8.479
    11   6 C        2.927    -0.058    29.444     8.899
    12   6 C        2.919    -0.032    28.806     8.801
    13   6 C        2.918    -0.037    28.924     8.819
    14   6 C        2.990    -0.039    28.961     8.828
    15   6 C        2.971     0.034    27.236     8.560
    16  16 S        2.135    -0.155   147.608    20.448
    17   6 C        2.971     0.035    27.223     8.558
    18   6 C        2.984    -0.039    28.963     8.828
    19   6 C        2.918    -0.036    28.899     8.815
    20   6 C        2.919    -0.032    28.806     8.801
    21   6 C        2.928    -0.056    29.380     8.889
    22   6 C        2.947     0.057    26.725     8.479
    23   6 C        2.915    -0.037    28.913     8.818
    24   6 C        2.920    -0.011    28.284     8.721
    25   6 C        2.975    -0.032    28.789     8.801
    26   6 C        2.993     0.011    27.768     8.644
    27   6 C        2.775     0.277    22.319     7.738
    28   8 O        0.859    -0.438    22.456     6.353
    29   7 N        2.746    -0.115    23.504     7.200
    30   6 C        2.937     0.085    26.103     8.379
    31   6 C        2.921    -0.030    28.747     8.792
    32   6 C        2.922    -0.025    28.633     8.775
    33   6 C        2.920    -0.027    28.677     8.782
    34   6 C        2.922    -0.025    28.632     8.775
    35   6 C        2.921    -0.030    28.744     8.792
    36   1 H        0.926     0.070     2.088     2.260
    37   1 H        0.926     0.066     2.131     2.283
    38   1 H        0.926     0.061     2.185     2.311
    39   1 H        0.926     0.040     2.450     2.448
    40   1 H        0.926     0.043     2.414     2.430
    41   1 H        0.926     0.043     2.408     2.427
    42   1 H        0.926     0.045     2.378     2.411
    43   1 H        0.926     0.047     2.361     2.403
    44   1 H        0.926     0.044     2.390     2.418
    45   1 H        0.926     0.043     2.413     2.429
    46   1 H        0.926     0.035     2.514     2.479
    47   1 H        0.926     0.067     2.122     2.278
    48   1 H        0.926     0.072     2.066     2.248
    49   1 H        0.926     0.040     2.452     2.449
    50   1 H        0.926     0.051     2.302     2.372
    51   1 H        0.926     0.053     2.286     2.365
    52   1 H        0.926     0.051     2.302     2.373
    53   1 H        0.926     0.040     2.453     2.449

molecular dipole:
                 x           y           z       tot (Debye)
 q only:       -1.419      -0.119       0.063
   full:       -1.382      -0.070      -0.043       3.518

 projected vibrational frequencies (cm⁻¹)
eigval :       -0.00    -0.00    -0.00    -0.00     0.00     0.00
eigval :       17.85    19.90    24.17    29.66    37.64    46.87
eigval :       61.76    64.62   105.12   122.50   130.83   135.28
eigval :      144.14   176.73   189.82   203.07   225.95   236.24
eigval :      240.74   272.06   299.92   318.33   326.51   338.84
eigval :      372.96   377.16   387.29   400.86   403.51   413.34
eigval :      416.12   422.44   429.25   463.26   476.87   487.48
eigval :      491.11   491.98   500.34   519.43   545.58   546.38
eigval :      575.94   590.07   609.77   626.16   631.98   637.55
eigval :      649.47   653.01   658.88   676.76   686.06   688.79
eigval :      715.77   727.42   747.48   760.44   771.39   772.41
eigval :      777.26   803.48   833.70   849.58   852.86   864.00
eigval :      868.33   871.50   900.34   902.91   904.18   904.83
eigval :      908.66   917.39   917.93   924.64   926.92   929.45
eigval :      930.97   933.32   986.23  1023.54  1040.77  1048.75
eigval :     1077.88  1099.27  1102.60  1104.94  1114.73  1128.25
eigval :     1139.19  1151.28  1157.15  1175.14  1177.46  1179.04
eigval :     1182.72  1186.58  1190.01  1202.47  1228.20  1237.13
eigval :     1242.72  1246.27  1252.91  1274.84  1284.52  1295.33
eigval :     1303.48  1312.04  1317.50  1326.29  1334.00  1356.63
eigval :     1386.94  1405.53  1407.77  1418.02  1434.49  1442.80
eigval :     1455.07  1467.38  1471.09  1501.09  1539.42  1556.00
eigval :     1564.23  1568.61  1572.91  1585.79  1588.02  1592.51
eigval :     1593.79  1652.94  1673.59  3079.85  3080.39  3086.02
eigval :     3086.63  3087.66  3089.16  3090.12  3091.90  3092.16
eigval :     3092.45  3097.64  3099.89  3101.37  3101.83  3103.35
eigval :     3106.18  3108.00  3114.37

   temp. (K)  partition function   enthalpy   heat capacity  entropy
                                   cal/mol     cal/K/mol   cal/K/mol   J/K/mol
 298.15  VIB  0.311E+12            15381.835     98.541     93.736
         ROT  0.303E+08              888.752      2.981     37.218
         INT  0.942E+19            16270.587    101.522    130.954
         TR   0.988E+28             1481.254      4.968     44.314
         TOT                       17751.8413   106.4900   175.2681   733.3218

       T/K    H(0)-H(T)+PV         H(T)/Eh          T*S/Eh         G(T)/Eh
   ------------------------------------------------------------------------
    298.15    0.282894E-01    0.415310E+00    0.832755E-01    0.332034E+00
   ------------------------------------------------------------------------

         :::::::::::::::::::::::::::::::::::::::::::::::::::::
         ::                  THERMODYNAMIC                  ::
         :::::::::::::::::::::::::::::::::::::::::::::::::::::
         :: total free energy         -90.407147035966 Eh   ::
         ::.................................................::
         :: total energy              -90.739181335072 Eh   ::
         :: zero point energy           0.387020481329 Eh   ::
         :: G(RRHO) w/o ZPVE           -0.054986182223 Eh   ::
         :: G(RRHO) contrib.            0.332034299106 Eh   ::
         :::::::::::::::::::::::::::::::::::::::::::::::::::::

           -------------------------------------------------
          | TOTAL ENERGY              -90.739181335072 Eh   |
          | TOTAL ENTHALPY            -90.323871493953 Eh   |
          | TOTAL FREE ENERGY         -90.407147035966 Eh   |
          | GRADIENT NORM               0.000050697142 Eh/α |
          | HOMO-LUMO GAP               0.739107689441 eV   |
           -------------------------------------------------

 * finished run on 2025/07/20 at 09:26:36.207
