   * xtb version 6.7.1 (edcfbbe) compiled by 'albert@albert-system' on 2024-07-22

   ID    Z sym.   atoms
    1    8 O      1, 28
    2    6 C      2-8, 10-15, 17-27, 30-35
    3    7 N      9, 29
    4   16 S      16
    5    1 H      36-53

          program call               : xtb data2507/toluene/PTZ-NAI/PTZ-NAI.xyz --gfn 2 --gbsa toluene --ohess vtight --parallel 40 --molden --ceasefiles --namespace data2507/toluene/PTZ-NAI/PTZ-NAI_toluene_S0_preOpt
      * Solvation model:               GBSA
        Solvent                        toluene
        Solvent mass                       9.2140E+01 g/mol
          :  Hamiltonian                  GFN2-xTB          :
 * total energy  :   -90.7128792 Eh     change       -0.2220617E-08 Eh
 * total energy  :   -90.7271369 Eh     change       -0.1425761E-01 Eh
 * total energy  :   -90.7318135 Eh     change       -0.4676670E-02 Eh
 * total energy  :   -90.7334347 Eh     change       -0.1621194E-02 Eh
 * total energy  :   -90.7350292 Eh     change       -0.1594464E-02 Eh
 * total energy  :   -90.7358779 Eh     change       -0.8487661E-03 Eh
 * total energy  :   -90.7363356 Eh     change       -0.4576448E-03 Eh
 * total energy  :   -90.7366656 Eh     change       -0.3300259E-03 Eh
 * total energy  :   -90.7369461 Eh     change       -0.2804402E-03 Eh
 * total energy  :   -90.7372175 Eh     change       -0.2714742E-03 Eh
 * total energy  :   -90.7391107 Eh     change       -0.1139508E-05 Eh
 * total energy  :   -90.7391117 Eh     change       -0.9864527E-06 Eh
 * total energy  :   -90.7391122 Eh     change       -0.5180649E-06 Eh
 * total energy  :   -90.7391131 Eh     change       -0.8894292E-06 Eh
 * total energy  :   -90.7391139 Eh     change       -0.7352902E-06 Eh
 * total energy  :   -90.7391142 Eh     change       -0.3504519E-06 Eh
 * total energy  :   -90.7391145 Eh     change       -0.2640513E-06 Eh
 * total energy  :   -90.7391147 Eh     change       -0.2105095E-06 Eh
 * total energy  :   -90.7391147 Eh     change       -0.3244878E-08 Eh
   *** GEOMETRY OPTIMIZATION CONVERGED AFTER 94 ITERATIONS ***

 final structure:
================
53
 xtb: 6.7.1 (edcfbbe)
O            3.96095351080161        0.50328932754236        2.27234003910123
C            3.17253574688153        0.29400236636172        1.36832736095149
C            1.71554803833285        0.27091045802710        1.55777470536513
C            1.18836269722470        0.47299453898187        2.81844008072177
C           -0.19287379093016        0.44342981421205        3.01741051051931
C           -1.04322956246849        0.23313691043501        1.96156204274377
C           -0.54420573004326        0.03975916255192        0.65726195126523
C           -1.38651670749695       -0.18494296028434       -0.46801178165531
N           -2.78829879109842       -0.17080649869661       -0.28186995416972
C           -3.37742048487066        1.08257063987394       -0.07563031804944
C           -2.64405206266856        2.24076253077937       -0.34300642349585
C           -3.17870058045759        3.49828290837038       -0.13094534324198
C           -4.47634879269763        3.63763452266398        0.32798310947229
C           -5.23258787808884        2.50336539656199        0.55988003995928
C           -4.69159955383902        1.24140156363063        0.36681552392540
S           -5.73311085111366       -0.14391953099925        0.72595063489059
C           -4.87846550063403       -1.43176139901058       -0.14198663765636
C           -5.60521416800820       -2.58650629261493       -0.38765760504042
C           -4.99963860036733       -3.69844628014538       -0.94340532290484
C           -3.64705052117912       -3.64972083532380       -1.22640476219402
C           -2.92426123064957       -2.49165301991163       -1.00202971525362
C           -3.52607208497653       -1.34215514896450       -0.48682232822420
C           -0.83648066072025       -0.39694777945616       -1.71720880767130
C            0.54365637132756       -0.39425780399559       -1.89900890935124
C            1.39281696897911       -0.17605027454823       -0.82997424120654
C            0.86088036113492        0.04493994706621        0.45801358896080
C            2.84400647404641       -0.17574949406617       -1.04372150021880
O            3.36185610064212       -0.37926183685295       -2.12731393267913
N            3.62624545624021        0.06443026084866        0.07758261575184
C            5.05097380560581        0.06813269541777       -0.11681862737551
C            5.80732783811729       -0.99512381448550        0.34926020144735
C            7.17879914873788       -0.98654123586719        0.16383102969264
C            7.78600657112826        0.07344522040783       -0.48844156056277
C            7.02258163550343        1.13036127179327       -0.95508112502338
C            5.65133111800355        1.13386065880325       -0.76736962070464
H            1.86660451714483        0.64649419882905        3.64049785968197
H           -0.58915873952686        0.58790629542511        4.01042559375199
H           -2.10954487155423        0.21161024542252        2.12559378635758
H           -1.63730936211677        2.15448007699064       -0.72091667509050
H           -2.57511827288976        4.36908291743966       -0.33620502643448
H           -4.90145950619267        4.61460469121290        0.49568153070453
H           -6.25208926734868        2.57917735858170        0.90656849046201
H           -6.64989793985800       -2.60429394858738       -0.11580050549927
H           -5.57352579562064       -4.59248057691291       -1.12920722033521
H           -3.14096680767559       -4.51548142923365       -1.62549799236389
H           -1.86820919066529       -2.49226031438559       -1.21667411813810
H           -1.48675353109541       -0.54289659087160       -2.56686794280012
H            0.97095548091098       -0.54714257943262       -2.87857433516321
H            5.32236010721049       -1.81664856882294        0.85597201663706
H            7.77153351468713       -1.81194127921798        0.52839468120128
H            8.85581267386736        0.07560724703667       -0.63337350972761
H            7.49330965546121        1.95799445134048       -1.46404165584479
H            5.04570404486255        1.95332081608521       -1.12570089548634

          :  Hamiltonian                  GFN2-xTB          :
         :: gradient norm              0.000055325966 Eh/a0 ::
         :: HOMO-LUMO gap              0.773450335006 eV    ::
         :: SCC energy               -92.261857323555 Eh    ::
         :: -> dispersion             -0.078101606927 Eh    ::
         :: -> Gsolv                  -0.041516243038 Eh    ::
         :: repulsion energy           1.522742638131 Eh    ::

    * Orbital Energies and Occupations

         #    Occupation            Energy/Eh            Energy/eV
      -------------------------------------------------------------
         1        2.0000           -0.7275010             -19.7963
       ...           ...                  ...                  ...
        71        2.0000           -0.4361494             -11.8682
        72        2.0000           -0.4350410             -11.8381
        73        2.0000           -0.4299718             -11.7001
        74        2.0000           -0.4283840             -11.6569
        75        2.0000           -0.4223449             -11.4926
        76        2.0000           -0.4213239             -11.4648
        77        2.0000           -0.4204140             -11.4400
        78        2.0000           -0.4188513             -11.3975
        79        2.0000           -0.4159785             -11.3194
        80        2.0000           -0.4137994             -11.2601
        81        2.0000           -0.4128193             -11.2334
        82        2.0000           -0.3895019             -10.5989
        83        2.0000           -0.3510877              -9.5536 (HOMO)
        84        0.0000           -0.3226640              -8.7801 (LUMO)
        85                         -0.2631808              -7.1615
        86                         -0.2615788              -7.1179
        87                         -0.2503406              -6.8121
        88                         -0.2407446              -6.5510
        89                         -0.2388967              -6.5007
        90                         -0.2356448              -6.4122
        91                         -0.2353105              -6.4031
        92                         -0.2338514              -6.3634
        93                         -0.2124051              -5.7798
        94                         -0.2040510              -5.5525
       ...                                ...                  ...
       163                          0.7109518              19.3460
      -------------------------------------------------------------
                  HL-Gap            0.0284238 Eh            0.7735 eV

     #   Z          covCN         q      C6AA      α(0)
     1   8 O        0.859    -0.437    22.428     6.349
     2   6 C        2.775     0.277    22.318     7.737
     3   6 C        2.976    -0.027    28.676     8.784
     4   6 C        2.922    -0.007    28.196     8.708
     5   6 C        2.914    -0.021    28.523     8.758
     6   6 C        2.917    -0.017    28.430     8.744
     7   6 C        2.984     0.010    27.798     8.648
     8   6 C        2.926     0.072    26.388     8.424
     9   7 N        2.748    -0.062    22.447     7.037
    10   6 C        2.950     0.057    26.728     8.479
    11   6 C        2.928    -0.055    29.363     8.887
    12   6 C        2.919    -0.032    28.802     8.801
    13   6 C        2.918    -0.036    28.889     8.814
    14   6 C        2.981    -0.039    28.959     8.827
    15   6 C        2.971     0.035    27.220     8.558
    16  16 S        2.133    -0.155   147.608    20.448
    17   6 C        2.972     0.034    27.238     8.561
    18   6 C        2.988    -0.039    28.957     8.827
    19   6 C        2.918    -0.037    28.921     8.819
    20   6 C        2.919    -0.032    28.803     8.801
    21   6 C        2.927    -0.058    29.443     8.899
    22   6 C        2.937     0.057    26.727     8.479
    23   6 C        2.915    -0.037    28.932     8.820
    24   6 C        2.920    -0.011    28.289     8.722
    25   6 C        2.975    -0.032    28.798     8.803
    26   6 C        2.994     0.011    27.769     8.644
    27   6 C        2.775     0.277    22.322     7.738
    28   8 O        0.859    -0.439    22.466     6.355
    29   7 N        2.746    -0.115    23.506     7.201
    30   6 C        2.937     0.085    26.107     8.380
    31   6 C        2.921    -0.030    28.744     8.792
    32   6 C        2.922    -0.025    28.636     8.775
    33   6 C        2.920    -0.027    28.681     8.782
    34   6 C        2.922    -0.025    28.637     8.776
    35   6 C        2.921    -0.030    28.744     8.792
    36   1 H        0.926     0.069     2.092     2.262
    37   1 H        0.926     0.066     2.135     2.285
    38   1 H        0.926     0.061     2.186     2.312
    39   1 H        0.926     0.036     2.509     2.477
    40   1 H        0.926     0.043     2.407     2.426
    41   1 H        0.926     0.045     2.384     2.414
    42   1 H        0.926     0.047     2.354     2.399
    43   1 H        0.926     0.046     2.374     2.410
    44   1 H        0.926     0.043     2.405     2.425
    45   1 H        0.926     0.043     2.409     2.427
    46   1 H        0.926     0.041     2.430     2.438
    47   1 H        0.926     0.067     2.121     2.278
    48   1 H        0.926     0.071     2.071     2.251
    49   1 H        0.926     0.040     2.453     2.449
    50   1 H        0.926     0.051     2.305     2.374
    51   1 H        0.926     0.052     2.289     2.366
    52   1 H        0.926     0.051     2.304     2.374
    53   1 H        0.926     0.040     2.451     2.448

molecular dipole:
                 x           y           z       tot (Debye)
 q only:       -1.503       0.045       0.066
   full:       -1.470       0.042      -0.063       3.742

 projected vibrational frequencies (cm⁻¹)
eigval :       -0.00    -0.00    -0.00    -0.00     0.00     0.00
eigval :        2.23    18.68    25.64    35.29    37.93    46.06
eigval :       61.47    64.32   103.15   125.79   130.90   134.88
eigval :      145.22   173.40   188.59   200.57   223.86   237.31
eigval :      241.11   273.45   301.06   317.82   326.43   340.14
eigval :      372.73   375.99   387.94   399.58   403.42   412.63
eigval :      415.75   422.23   429.20   460.72   477.12   487.66
eigval :      489.30   492.63   500.44   519.11   544.77   546.23
eigval :      575.30   589.49   609.98   626.37   631.41   637.66
eigval :      648.25   654.81   659.24   677.17   685.57   688.63
eigval :      715.64   727.65   746.31   760.41   770.39   771.04
eigval :      776.95   802.23   833.81   848.85   852.50   862.14
eigval :      869.02   871.40   898.72   900.56   901.31   904.10
eigval :      907.12   916.59   917.06   925.46   926.56   930.54
eigval :      931.75   934.49   986.10  1023.30  1040.47  1048.88
eigval :     1080.18  1100.94  1101.45  1105.27  1117.22  1129.25
eigval :     1140.46  1151.53  1157.20  1174.76  1175.96  1178.11
eigval :     1184.27  1188.57  1193.08  1202.56  1227.96  1237.12
eigval :     1242.75  1247.03  1253.97  1278.63  1285.06  1294.51
eigval :     1303.03  1311.77  1317.89  1325.60  1333.89  1357.43
eigval :     1386.96  1405.88  1408.19  1417.92  1435.04  1442.73
eigval :     1453.72  1468.88  1470.28  1501.38  1539.62  1555.85
eigval :     1563.70  1568.21  1572.74  1586.01  1587.52  1592.66
eigval :     1594.28  1652.61  1673.08  3080.36  3081.02  3086.69
eigval :     3087.11  3087.67  3090.58  3090.82  3092.15  3092.26
eigval :     3093.40  3099.33  3100.08  3100.24  3101.46  3103.44
eigval :     3106.43  3107.22  3115.13

   temp. (K)  partition function   enthalpy   heat capacity  entropy
                                   cal/mol     cal/K/mol   cal/K/mol   J/K/mol
 298.15  VIB  0.213E+13            15406.336     98.631     95.809
         ROT  0.303E+08              888.752      2.981     37.218
         INT  0.645E+20            16295.089    101.612    133.026
         TR   0.988E+28             1481.254      4.968     44.314
         TOT                       17776.3425   106.5804   177.3407   741.9934

       T/K    H(0)-H(T)+PV         H(T)/Eh          T*S/Eh         G(T)/Eh
   ------------------------------------------------------------------------
    298.15    0.283284E-01    0.415316E+00    0.842603E-01    0.331056E+00
   ------------------------------------------------------------------------

         :::::::::::::::::::::::::::::::::::::::::::::::::::::
         ::                  THERMODYNAMIC                  ::
         :::::::::::::::::::::::::::::::::::::::::::::::::::::
         :: total free energy         -90.408058700100 Eh   ::
         ::.................................................::
         :: total energy              -90.739114684870 Eh   ::
         :: zero point energy           0.386987856793 Eh   ::
         :: G(RRHO) w/o ZPVE           -0.055931872022 Eh   ::
         :: G(RRHO) contrib.            0.331055984770 Eh   ::
         :::::::::::::::::::::::::::::::::::::::::::::::::::::

           -------------------------------------------------
          | TOTAL ENERGY              -90.739114684870 Eh   |
          | TOTAL ENTHALPY            -90.323798423114 Eh   |
          | TOTAL FREE ENERGY         -90.408058700100 Eh   |
          | GRADIENT NORM               0.000055314096 Eh/α |
          | HOMO-LUMO GAP               0.773450264494 eV   |
           -------------------------------------------------

 * finished run on 2025/07/20 at 09:24:26.757
