   * xtb version 6.7.1 (edcfbbe) compiled by 'albert@albert-system' on 2024-07-22

   ID    Z sym.   atoms
    1    6 C      1-11, 13-17, 19, 20, 22-26, 28
    2    7 N      12, 18, 21, 27
    3    1 H      29-40

          program call               : xtb data2507/gas/APPT/APPT_gas_S0_crest.xyz --gfn 2 --ohess vtight --parallel 40 --molden --ceasefiles --namespace data2507/gas/APPT/APPT_gas_S0_finalOpt
          :  Hamiltonian                  GFN2-xTB          :
 * total energy  :   -69.2342049 Eh     change       -0.6569110E-09 Eh
 * total energy  :   -69.2342055 Eh     change       -0.6176331E-06 Eh
 * total energy  :   -69.2342060 Eh     change       -0.5096503E-06 Eh
 * total energy  :   -69.2342065 Eh     change       -0.4690899E-06 Eh
 * total energy  :   -69.2342068 Eh     change       -0.3447335E-06 Eh
 * total energy  :   -69.2342071 Eh     change       -0.2845584E-06 Eh
 * total energy  :   -69.2342073 Eh     change       -0.2452585E-06 Eh
 * total energy  :   -69.2342075 Eh     change       -0.2140534E-06 Eh
 * total energy  :   -69.2342077 Eh     change       -0.2001005E-06 Eh
 * total energy  :   -69.2342079 Eh     change       -0.1977560E-06 Eh
 * total energy  :   -69.2342081 Eh     change       -0.1794003E-06 Eh
 * total energy  :   -69.2342083 Eh     change       -0.1465389E-06 Eh
 * total energy  :   -69.2342084 Eh     change       -0.1066139E-06 Eh
 * total energy  :   -69.2342085 Eh     change       -0.7537871E-07 Eh
   *** GEOMETRY OPTIMIZATION CONVERGED AFTER 14 ITERATIONS ***

 final structure:
================
40
 xtb: 6.7.1 (edcfbbe)
C            4.72217697074470        2.41441070022896       -0.00490999606070
C            3.31449144292144        2.39316247430272       -0.00207369302019
C            2.68297671675923        1.17519872483667       -0.00049676651430
C            3.47034664472617       -0.00020985827885       -0.00154516351302
C            2.68290633968611       -1.17558880391153        0.00000320916001
C            3.31445119348538       -2.39354210579783       -0.00100598431529
C            4.72214437348623       -2.41479275488826       -0.00378867295737
C            5.48494682895552       -1.27143860494979       -0.00555951599571
C            4.86679461824266       -0.00020305873599       -0.00442384985381
C            5.48494847582967        1.27103299210639       -0.00615898398401
C            1.30116701102700       -0.71880729550741        0.00157921789142
N            0.19346444835318       -1.41808800522085        0.00194472167155
C           -0.94923250445788       -0.70610792402116        0.00173360813679
C           -2.19830005586303       -1.42332827773138        0.00060676344951
C           -2.23853117927904       -2.82327109618942        0.00065819536175
C           -3.45987253075230       -3.45613456071284       -0.00144161299419
C           -4.61300723150385       -2.66672154969681       -0.00354313693948
N           -4.59871473260726       -1.35653694661755       -0.00339025106895
C           -3.42385762538878       -0.72453981081902       -0.00132129461090
C           -3.42372038881019        0.72513651135245       -0.00129828212980
N           -4.59842590690853        1.35742505494212       -0.00321854271892
C           -4.61237197134865        2.66761377207853       -0.00332923820106
C           -3.45904250539776        3.45674927832596       -0.00137133691136
C           -2.23786362914778        2.82358416783992        0.00058052279737
C           -2.19801375984827        1.42363066259817        0.00052852930339
C           -0.94912667573914        0.70612330031367        0.00161459375609
N            0.19366146925511        1.41793611997167        0.00156952859307
C            1.30124181812831        0.71848986151093        0.00132176899174
H            5.21754280139253        3.37486922677785       -0.00630864323854
H            2.75633330677344        3.31664376961634       -0.00131520752565
H            2.75634018437012       -3.31705267104037        0.00015495457407
H            5.21750257409618       -3.37525674868175       -0.00471310773589
H            6.56343119909425       -1.33801743601016       -0.00793091693302
H            6.56343331275647        1.33760250643543       -0.00859187965308
H           -1.30696794104864       -3.36863717257940        0.00224284522361
H           -3.53309085133014       -4.53281562217806       -0.00155553590224
H           -5.59535046941923       -3.12182703478386       -0.00545121612282
H           -5.59459325153633        3.12298285011647       -0.00509012635836
H           -3.53199279402662        4.53344835979093       -0.00146757312512
H           -1.30614701467028        3.36868664540716        0.00207983967345

          :  Hamiltonian                  GFN2-xTB          :
         :: gradient norm              0.000015588105 Eh/a0 ::
         :: HOMO-LUMO gap              1.398652151732 eV    ::
         :: SCC energy               -70.465926962816 Eh    ::
         :: -> dispersion             -0.055506132339 Eh    ::
         :: repulsion energy           1.231718508678 Eh    ::

    * Orbital Energies and Occupations

         #    Occupation            Energy/Eh            Energy/eV
      -------------------------------------------------------------
         1        2.0000           -0.6803377             -18.5129
       ...           ...                  ...                  ...
        52        2.0000           -0.4373966             -11.9022
        53        2.0000           -0.4358789             -11.8609
        54        2.0000           -0.4327356             -11.7753
        55        2.0000           -0.4306734             -11.7192
        56        2.0000           -0.4296173             -11.6905
        57        2.0000           -0.4204197             -11.4402
        58        2.0000           -0.4174900             -11.3605
        59        2.0000           -0.4073889             -11.0856
        60        2.0000           -0.3960554             -10.7772
        61        2.0000           -0.3920444             -10.6681
        62        2.0000           -0.3627306              -9.8704
        63        2.0000           -0.3615637              -9.8387
        64        2.0000           -0.3545256              -9.6471 (HOMO)
        65                         -0.3031261              -8.2485 (LUMO)
        66                         -0.2902317              -7.8976
        67                         -0.2670434              -7.2666
        68                         -0.2661043              -7.2411
        69                         -0.2429092              -6.6099
        70                         -0.2224988              -6.0545
        71                         -0.2096043              -5.7036
        72                         -0.1987688              -5.4088
        73                         -0.1877552              -5.1091
        74                         -0.1609165              -4.3788
        75                         -0.1168417              -3.1794
       ...                                ...                  ...
       124                          0.7217437              19.6396
      -------------------------------------------------------------
                  HL-Gap            0.0513995 Eh            1.3987 eV

     #   Z          covCN         q      C6AA      α(0)
     1   6 C        2.919    -0.028    28.695     8.784
     2   6 C        2.913    -0.018    28.461     8.748
     3   6 C        3.030    -0.004    28.101     8.695
     4   6 C        3.144    -0.009    27.975     8.654
     5   6 C        3.030    -0.004    28.101     8.695
     6   6 C        2.913    -0.018    28.461     8.748
     7   6 C        2.919    -0.028    28.695     8.784
     8   6 C        2.918    -0.028    28.712     8.787
     9   6 C        2.977     0.017    27.632     8.623
    10   6 C        2.918    -0.028    28.712     8.787
    11   6 C        3.062     0.082    26.121     8.381
    12   7 N        1.839    -0.236    27.035     7.705
    13   6 C        2.983     0.073    26.358     8.422
    14   6 C        2.983    -0.010    28.269     8.722
    15   6 C        2.928    -0.011    28.298     8.724
    16   6 C        2.912    -0.039    28.967     8.825
    17   6 C        2.907     0.063    26.597     8.456
    18   7 N        1.841    -0.201    26.200     7.586
    19   6 C        2.972     0.083    26.154     8.389
    20   6 C        2.972     0.083    26.154     8.389
    21   7 N        1.841    -0.201    26.200     7.586
    22   6 C        2.907     0.063    26.597     8.456
    23   6 C        2.912    -0.039    28.967     8.825
    24   6 C        2.928    -0.011    28.298     8.724
    25   6 C        2.983    -0.010    28.269     8.722
    26   6 C        2.983     0.073    26.358     8.422
    27   7 N        1.839    -0.236    27.035     7.705
    28   6 C        3.063     0.082    26.121     8.381
    29   1 H        0.926     0.040     2.443     2.444
    30   1 H        0.926     0.049     2.328     2.386
    31   1 H        0.926     0.049     2.328     2.386
    32   1 H        0.926     0.040     2.443     2.444
    33   1 H        0.926     0.040     2.449     2.447
    34   1 H        0.926     0.040     2.449     2.447
    35   1 H        0.926     0.059     2.214     2.327
    36   1 H        0.926     0.040     2.455     2.450
    37   1 H        0.925     0.045     2.384     2.414
    38   1 H        0.925     0.045     2.384     2.414
    39   1 H        0.926     0.040     2.455     2.450
    40   1 H        0.926     0.059     2.214     2.327

molecular dipole:
                 x           y           z       tot (Debye)
 q only:        1.270      -0.000      -0.001
   full:        1.999      -0.000      -0.000       5.080

 projected vibrational frequencies (cm⁻¹)
eigval :       -0.00    -0.00    -0.00     0.00     0.00     0.00
eigval :       28.91    40.34    78.52    95.29    97.65   116.96
eigval :      154.11   164.81   185.85   207.94   225.95   228.20
eigval :      265.28   281.50   356.73   384.06   391.00   396.55
eigval :      398.55   413.34   421.17   426.72   463.59   463.88
eigval :      519.55   520.92   529.56   529.72   563.77   584.64
eigval :      593.54   600.50   606.63   629.03   677.19   677.54
eigval :      687.69   701.08   708.23   734.54   741.10   770.59
eigval :      785.25   790.46   795.47   800.63   810.04   814.61
eigval :      863.43   892.34   897.27   915.64   916.20   922.74
eigval :      927.73   927.82   929.06   945.22   964.91  1039.90
eigval :     1068.53  1071.08  1080.69  1090.19  1101.81  1131.90
eigval :     1132.69  1138.44  1156.28  1178.54  1185.39  1191.81
eigval :     1214.85  1227.01  1232.62  1243.53  1270.80  1281.01
eigval :     1305.79  1321.07  1327.78  1336.79  1360.82  1365.39
eigval :     1373.30  1394.92  1400.65  1417.03  1439.11  1444.43
eigval :     1455.80  1465.12  1483.81  1518.93  1539.54  1561.88
eigval :     1563.50  1569.00  1580.79  1585.31  1609.04  1614.56
eigval :     3052.41  3052.67  3073.25  3074.87  3084.47  3086.21
eigval :     3086.52  3086.70  3098.09  3098.30  3099.76  3100.45

   temp. (K)  partition function   enthalpy   heat capacity  entropy
                                   cal/mol     cal/K/mol   cal/K/mol   J/K/mol
 298.15  VIB  0.148E+07            10204.142     72.140     59.565
         ROT  0.690E+07              888.752      2.981     34.275
         INT  0.102E+14            11092.894     75.121     93.840
         TR   0.651E+28             1481.254      4.968     43.486
         TOT                       12574.1484    80.0887   137.3262   574.5727

       T/K    H(0)-H(T)+PV         H(T)/Eh          T*S/Eh         G(T)/Eh
   ------------------------------------------------------------------------
    298.15    0.200382E-01    0.308515E+00    0.652481E-01    0.243267E+00
   ------------------------------------------------------------------------

         :::::::::::::::::::::::::::::::::::::::::::::::::::::
         ::                  THERMODYNAMIC                  ::
         :::::::::::::::::::::::::::::::::::::::::::::::::::::
         :: total free energy         -68.990941634279 Eh   ::
         ::.................................................::
         :: total energy              -69.234208454138 Eh   ::
         :: zero point energy           0.288476732004 Eh   ::
         :: G(RRHO) w/o ZPVE           -0.045209912144 Eh   ::
         :: G(RRHO) contrib.            0.243266819859 Eh   ::
         :::::::::::::::::::::::::::::::::::::::::::::::::::::

           -------------------------------------------------
          | TOTAL ENERGY              -69.234208454138 Eh   |
          | TOTAL ENTHALPY            -68.925693541158 Eh   |
          | TOTAL FREE ENERGY         -68.990941634279 Eh   |
          | GRADIENT NORM               0.000015579296 Eh/α |
          | HOMO-LUMO GAP               1.398652357758 eV   |
           -------------------------------------------------

 * finished run on 2025/09/13 at 12:58:55.293
