   * xtb version 6.7.1 (edcfbbe) compiled by 'albert@albert-system' on 2024-07-22

   ID    Z sym.   atoms
    1    6 C      1-11, 13-17, 19, 20, 22-26, 28
    2    7 N      12, 18, 21, 27
    3    1 H      29-40

          program call               : xtb data2507/gas/APPT/APPT_gas_S0_finalOpt.xtbopt.xyz --gfn 2 --spinpol --tblite --uhf 2 --ohess vtight --parallel 40 --molden --ceasefiles --namespace data2507/gas/APPT/APPT_gas_T1_preOpt
 * total energy  :   -69.1729644 Eh     change        0.6264145E-09 Eh
 * total energy  :   -69.1758759 Eh     change       -0.2911500E-02 Eh
 * total energy  :   -69.1777895 Eh     change       -0.1913526E-02 Eh
 * total energy  :   -69.1786464 Eh     change       -0.8569130E-03 Eh
 * total energy  :   -69.1781717 Eh     change        0.4746513E-03 Eh
 * total energy  :   -69.1799290 Eh     change       -0.1757285E-02 Eh
 * total energy  :   -69.1801227 Eh     change       -0.1937383E-03 Eh
 * total energy  :   -69.1802244 Eh     change       -0.1016847E-03 Eh
 * total energy  :   -69.1802368 Eh     change       -0.1239837E-04 Eh
 * total energy  :   -69.1802414 Eh     change       -0.4620400E-05 Eh
 * total energy  :   -69.1802419 Eh     change       -0.4171585E-06 Eh
 * total energy  :   -69.1802414 Eh     change        0.4162005E-06 Eh
 * total energy  :   -69.1802419 Eh     change       -0.4705068E-06 Eh
 * total energy  :   -69.1802419 Eh     change        0.3541507E-07 Eh
 * total energy  :   -69.1802419 Eh     change       -0.5511046E-07 Eh
   *** GEOMETRY OPTIMIZATION CONVERGED AFTER 15 ITERATIONS ***

 final structure:
================
40
 xtb: 6.7.1 (edcfbbe)
C            4.72755826613534        2.42223972536728       -0.00409695876200
C            3.33466663520167        2.41305132610085       -0.00263951746431
C            2.69064502647316        1.17731809376228       -0.00174896500709
C            3.47671021991045       -0.00019377779515       -0.00223464430550
C            2.69046392595076       -1.17759837472556       -0.00137719247919
C            3.33432455037283       -2.41342718931935       -0.00183177256547
C            4.72721551271345       -2.42280828590517       -0.00325124997922
C            5.49304820660986       -1.26977069682249       -0.00422896180423
C            4.87622151639418       -0.00029478032160       -0.00373038896809
C            5.49322108585001        1.26909072037042       -0.00467880217007
C            1.33596585184417       -0.76125942110429       -0.00049106871514
N            0.19614670731588       -1.36007461087814       -0.00016474832311
C           -0.96055440867507       -0.72711742864381       -0.00013005687462
C           -2.20233930722429       -1.42453188925748       -0.00039402022141
C           -2.25249574302623       -2.82848543419241       -0.00024809484058
C           -3.47628959972263       -3.45571512576878       -0.00095545910150
C           -4.62897960203105       -2.66814392910390       -0.00180031025038
N           -4.60173358413399       -1.35488230138232       -0.00180615251803
C           -3.43305302729944       -0.72689119605243       -0.00109412756345
C           -3.43294091937230        0.72751914129628       -0.00111420755843
N           -4.60152782793342        1.35568428885884       -0.00176015829368
C           -4.62857347727008        2.66895452612543       -0.00179199328383
C           -3.47575876868982        3.45635051188764       -0.00107482980163
C           -2.25206169813093        2.82894117458922       -0.00043874241290
C           -2.20211177875236        1.42497067759408       -0.00052011381640
C           -0.96045107622817        0.72736902954671       -0.00025514637767
N            0.19637990024312        1.36014654143154       -0.00046798700749
C            1.33606940963347        0.76116920795773       -0.00070197576596
H            5.23189532525499        3.37849385934202       -0.00486344421835
H            2.77456861869754        3.33494440724879       -0.00227479727490
H            2.77410019402311       -3.33524132642906       -0.00115604809498
H            5.23141538014211       -3.37913448035210       -0.00366324058364
H            6.57084847737825       -1.33820521393254       -0.00542406751568
H            6.57103258178257        1.33737112290847       -0.00591479314498
H           -1.32362294375042       -3.38018037759401        0.00037273817049
H           -3.55004681370409       -4.53202759013159       -0.00089826017394
H           -5.61294538044385       -3.11704956420972       -0.00249829493094
H           -5.61246997915124        3.11800917072398       -0.00241266057603
H           -3.54935512745622        4.53267391954113       -0.00104836252104
H           -1.32310786932471        3.38049802907132        0.00009529076812

 projected vibrational frequencies (cm⁻¹)
eigval :       -0.00    -0.00    -0.00     0.00     0.00     0.00
eigval :       33.21    41.06    80.89    93.98    98.94   112.00
eigval :      165.56   166.38   185.87   198.33   223.96   229.07
eigval :      270.16   277.55   301.83   389.54   389.58   393.02
eigval :      403.43   422.89   425.20   441.51   444.49   452.31
eigval :      501.38   513.11   514.17   524.46   547.07   559.12
eigval :      563.46   577.18   586.22   622.15   625.46   655.00
eigval :      658.56   671.59   693.68   695.31   718.94   745.69
eigval :      755.58   780.18   784.54   785.72   795.59   795.81
eigval :      833.68   847.68   856.63   899.93   900.09   903.46
eigval :      909.30   912.76   912.90   914.56   930.58   967.99
eigval :     1021.19  1045.83  1075.23  1091.04  1092.33  1100.77
eigval :     1101.96  1116.80  1121.04  1131.19  1179.40  1182.47
eigval :     1189.13  1218.32  1229.06  1237.06  1259.76  1270.65
eigval :     1271.55  1290.51  1294.45  1323.29  1328.40  1359.59
eigval :     1368.67  1375.57  1381.43  1398.72  1410.51  1412.34
eigval :     1429.68  1438.56  1478.33  1506.17  1509.59  1523.37
eigval :     1529.71  1536.68  1546.23  1557.70  1562.94  1603.97
eigval :     3064.05  3064.32  3069.87  3070.59  3077.36  3077.74
eigval :     3084.32  3087.70  3095.67  3096.00  3097.33  3098.60

   temp. (K)  partition function   enthalpy   heat capacity  entropy
                                   cal/mol     cal/K/mol   cal/K/mol   J/K/mol
 298.15  VIB  0.154E+07            10448.395     74.227     60.744
         ROT  0.694E+07              888.752      2.981     34.287
         INT  0.107E+14            11337.147     77.208     95.030
         TR   0.651E+28             1481.254      4.968     43.486
         TOT                       12818.4013    82.1760   138.5167   579.5540

       T/K    H(0)-H(T)+PV         H(T)/Eh          T*S/Eh         G(T)/Eh
   ------------------------------------------------------------------------
    298.15    0.204274E-01    0.304709E+00    0.658138E-01    0.238895E+00
   ------------------------------------------------------------------------

         :::::::::::::::::::::::::::::::::::::::::::::::::::::
         ::                  THERMODYNAMIC                  ::
         :::::::::::::::::::::::::::::::::::::::::::::::::::::
         :: total free energy         -68.941347188974 Eh   ::
         ::.................................................::
         :: total energy              -69.180241952934 Eh   ::
         :: zero point energy           0.284281105946 Eh   ::
         :: G(RRHO) w/o ZPVE           -0.045386341986 Eh   ::
         :: G(RRHO) contrib.            0.238894763960 Eh   ::
         :::::::::::::::::::::::::::::::::::::::::::::::::::::

           -------------------------------------------------
          | TOTAL ENERGY              -69.180241952934 Eh   |
          | TOTAL ENTHALPY            -68.875533424284 Eh   |
          | TOTAL FREE ENERGY         -68.941347188974 Eh   |
          | GRADIENT NORM               0.000045883777 Eh/α |
           -------------------------------------------------

 * finished run on 2025/09/13 at 12:58:57.639
