   * xtb version 6.7.1 (edcfbbe) compiled by 'albert@albert-system' on 2024-07-22

   ID    Z sym.   atoms
    1    6 C      1-11, 13-17, 19, 20, 22-26, 28
    2    7 N      12, 18, 21, 27
    3    1 H      29-40

          program call               : xtb data2507/gas/APPT/APPT_gas_T1_crest.xyz --gfn 2 --spinpol --tblite --uhf 2 --ohess vtight --parallel 40 --molden --ceasefiles --namespace data2507/gas/APPT/APPT_gas_T1_finalOpt
 * total energy  :   -69.1801863 Eh     change       -0.9150654E-08 Eh
 * total energy  :   -69.1802065 Eh     change       -0.2015518E-04 Eh
 * total energy  :   -69.1802267 Eh     change       -0.2020536E-04 Eh
 * total energy  :   -69.1802295 Eh     change       -0.2825307E-05 Eh
 * total energy  :   -69.1802319 Eh     change       -0.2399384E-05 Eh
 * total energy  :   -69.1802337 Eh     change       -0.1780531E-05 Eh
 * total energy  :   -69.1802357 Eh     change       -0.2078163E-05 Eh
 * total energy  :   -69.1802383 Eh     change       -0.2504170E-05 Eh
 * total energy  :   -69.1802402 Eh     change       -0.1970697E-05 Eh
 * total energy  :   -69.1802412 Eh     change       -0.9796675E-06 Eh
 * total energy  :   -69.1802416 Eh     change       -0.4341808E-06 Eh
 * total energy  :   -69.1802417 Eh     change       -0.8018250E-07 Eh
 * total energy  :   -69.1802418 Eh     change       -0.1299480E-06 Eh
 * total energy  :   -69.1802418 Eh     change        0.2327968E-07 Eh
 * total energy  :   -69.1802419 Eh     change       -0.8184300E-07 Eh
   *** GEOMETRY OPTIMIZATION CONVERGED AFTER 15 ITERATIONS ***

 final structure:
================
40
 xtb: 6.7.1 (edcfbbe)
C            4.72684580985209        2.42198532053465        0.00453930818072
C            3.33395180149311        2.41294702946963        0.00426040540267
C            2.68978437263993        1.17728606362607        0.00480209643611
C            3.47575037314789       -0.00030459283536        0.00557181776249
C            2.68941138501478       -1.17763024886767        0.00576558006511
C            3.33310975332834       -2.41353121176798        0.00670056804891
C            4.72600099124729       -2.42306888984393        0.00734329262102
C            5.49194469807187       -1.27010303240693        0.00696124426267
C            4.87526584639961       -0.00055831099768        0.00600586705467
C            5.49239958664364        1.26876295278531        0.00542012516936
C            1.33494206305014       -0.76114891910445        0.00486953847609
N            0.19512793573550       -1.35992137673020        0.00396089831530
C           -0.96154580257822       -0.72689000860543        0.00297408229983
C           -2.20333639182101       -1.42424618726675        0.00115609226577
C           -2.25348986148158       -2.82820989909781        0.00069894661238
C           -3.47727467701073       -3.45542499442189       -0.00171689590745
C           -4.62995790115310       -2.66783385888656       -0.00373935662983
N           -4.60271465146150       -1.35457539888529       -0.00301074787919
C           -3.43402979449334       -0.72658955804457       -0.00051058178730
C           -3.43385040989497        0.72782357072582        0.00074226600051
N           -4.60240850449171        1.35605004871495       -0.00018404596338
C           -4.62939083255043        2.66931935906269        0.00136249337485
C           -3.47655071082916        3.45666736091564        0.00425794307016
C           -2.25288559363942        2.82919485626719        0.00498871633203
C           -2.20300160057063        1.42522514216436        0.00302166090316
C           -0.96132856324421        0.72759890012942        0.00339610870918
N            0.19550989267997        1.36031481443584        0.00408622453593
C            1.33518655365799        0.76125381916661        0.00454325699343
H            5.23128665473007        3.37818438141082        0.00396254516761
H            2.77395523278267        3.33490007381215        0.00353206977910
H            2.77276062753815       -3.33527062642876        0.00692608166559
H            5.23010469899662       -3.37944449852782        0.00810462387215
H            6.56973843294142       -1.33865726822636        0.00742013703076
H            6.57021899821168        1.33693745699158        0.00561097022070
H           -1.32459144718201       -3.37985741452667        0.00216140728439
H           -3.55105338651895       -4.53173497934388       -0.00210751567778
H           -5.61391112028771       -3.11675841012401       -0.00586931848731
H           -5.61325106071855        3.11843372542682        0.00058883758781
H           -3.55010758434186        4.53299175860263        0.00592804191287
H           -1.32389133249366        3.38067484749788        0.00705868601896

 projected vibrational frequencies (cm⁻¹)
eigval :       -0.00    -0.00     0.00     0.00     0.00     0.00
eigval :       33.24    41.11    80.98    94.17    99.02   112.09
eigval :      165.56   166.39   185.98   198.31   223.97   229.09
eigval :      270.23   277.57   301.87   389.63   389.69   392.93
eigval :      403.38   422.99   425.34   441.51   444.63   452.19
eigval :      501.45   512.84   514.18   524.50   547.21   559.14
eigval :      563.47   577.05   586.13   622.17   625.48   655.12
eigval :      658.61   671.72   693.54   695.31   718.95   745.73
eigval :      755.59   780.19   784.56   785.75   795.61   795.77
eigval :      833.79   847.69   856.65   899.92   900.08   903.19
eigval :      909.30   912.76   912.90   914.56   930.76   968.07
eigval :     1020.86  1045.84  1075.13  1091.17  1092.28  1099.47
eigval :     1103.64  1116.59  1121.44  1130.23  1179.37  1182.41
eigval :     1188.88  1218.41  1228.62  1237.08  1259.46  1270.65
eigval :     1271.19  1290.63  1294.47  1323.40  1328.33  1359.48
eigval :     1368.53  1375.37  1381.52  1398.91  1410.27  1412.28
eigval :     1429.38  1438.45  1478.17  1505.39  1509.69  1523.47
eigval :     1529.78  1536.46  1546.18  1557.74  1562.89  1603.84
eigval :     3064.14  3064.40  3069.88  3070.63  3077.45  3077.83
eigval :     3084.48  3087.69  3095.82  3096.19  3097.03  3098.69

   temp. (K)  partition function   enthalpy   heat capacity  entropy
                                   cal/mol     cal/K/mol   cal/K/mol   J/K/mol
 298.15  VIB  0.153E+07            10447.421     74.230     60.733
         ROT  0.694E+07              888.752      2.981     34.287
         INT  0.107E+14            11336.174     77.211     95.020
         TR   0.651E+28             1481.254      4.968     43.486
         TOT                       12817.4275    82.1791   138.5060   579.5092

       T/K    H(0)-H(T)+PV         H(T)/Eh          T*S/Eh         G(T)/Eh
   ------------------------------------------------------------------------
    298.15    0.204259E-01    0.304703E+00    0.658087E-01    0.238894E+00
   ------------------------------------------------------------------------

         :::::::::::::::::::::::::::::::::::::::::::::::::::::
         ::                  THERMODYNAMIC                  ::
         :::::::::::::::::::::::::::::::::::::::::::::::::::::
         :: total free energy         -68.941347646034 Eh   ::
         ::.................................................::
         :: total energy              -69.180241907924 Eh   ::
         :: zero point energy           0.284277073536 Eh   ::
         :: G(RRHO) w/o ZPVE           -0.045382811646 Eh   ::
         :: G(RRHO) contrib.            0.238894261890 Eh   ::
         :::::::::::::::::::::::::::::::::::::::::::::::::::::

           -------------------------------------------------
          | TOTAL ENERGY              -69.180241907924 Eh   |
          | TOTAL ENTHALPY            -68.875538963571 Eh   |
          | TOTAL FREE ENERGY         -68.941347646034 Eh   |
          | GRADIENT NORM               0.000063820668 Eh/α |
           -------------------------------------------------

 * finished run on 2025/09/13 at 13:00:06.790
