   * xtb version 6.7.1 (edcfbbe) compiled by 'albert@albert-system' on 2024-07-22

   ID    Z sym.   atoms
    1    6 C      1-11, 13-17, 19, 20, 22-26, 28
    2    7 N      12, 18, 21, 27
    3    1 H      29-40

          program call               : xtb data2507/gas/APPT/APPT.xyz --gfn 2 --ohess vtight --parallel 40 --molden --ceasefiles --namespace data2507/gas/APPT/APPT_gas_S0_preOpt
          :  Hamiltonian                  GFN2-xTB          :
 * total energy  :   -69.2167329 Eh     change       -0.2382151E-08 Eh
 * total energy  :   -69.2313392 Eh     change       -0.1460632E-01 Eh
 * total energy  :   -69.2339610 Eh     change       -0.2621812E-02 Eh
 * total energy  :   -69.2341370 Eh     change       -0.1760413E-03 Eh
 * total energy  :   -69.2342038 Eh     change       -0.6675185E-04 Eh
 * total energy  :   -69.2342080 Eh     change       -0.4239394E-05 Eh
 * total energy  :   -69.2342086 Eh     change       -0.5865980E-06 Eh
 * total energy  :   -69.2342080 Eh     change        0.6436609E-06 Eh
 * total energy  :   -69.2342087 Eh     change       -0.6903852E-06 Eh
 * total energy  :   -69.2342085 Eh     change        0.1775324E-06 Eh
 * total energy  :   -69.2342087 Eh     change       -0.1762534E-06 Eh
 * total energy  :   -69.2342085 Eh     change        0.1719196E-06 Eh
 * total energy  :   -69.2342087 Eh     change       -0.1743266E-06 Eh
 * total energy  :   -69.2342085 Eh     change        0.1685721E-06 Eh
 * total energy  :   -69.2342087 Eh     change       -0.1673886E-06 Eh
 * total energy  :   -69.2342086 Eh     change        0.9061303E-07 Eh
 * total energy  :   -69.2342087 Eh     change       -0.9337329E-07 Eh
   *** GEOMETRY OPTIMIZATION CONVERGED AFTER 17 ITERATIONS ***

 final structure:
================
40
 xtb: 6.7.1 (edcfbbe)
C            4.49762229747815        2.41460033716892       -0.00000122113057
C            3.08992776316255        2.39335073438920       -0.00000094251768
C            2.45838783277686        1.17539759466460       -0.00000021686752
C            3.24579314544392        0.00000250773143        0.00000014024499
C            2.45838882693496       -1.17539314983199        0.00000081531519
C            3.08992910300299       -2.39334610814847        0.00000131661440
C            4.49762359079973       -2.41459513563082        0.00000088810399
C            5.26040652271503       -1.27122912416850        0.00000026891920
C            4.64224253719313        0.00000268718072       -0.00000011506529
C            5.26040593162613        1.27123478190446       -0.00000080846928
C            1.07665076395128       -0.71865088796480        0.00000084340716
N           -0.03098626783785       -1.41801103346971        0.00000079158957
C           -1.17373070510784       -0.70611630579721        0.00000057645743
C           -2.42270351232151       -1.42348663693184        0.00000001270164
C           -2.46274945579789       -2.82343488627814        0.00000020713146
C           -3.68401638810211       -3.45643131716434       -0.00000025611257
C           -4.83724679687085       -2.66715193690064       -0.00000119046606
N           -4.82312983761547       -1.35697171674223       -0.00000129645253
C           -3.64833889187601       -0.72483978886315       -0.00000052753084
C           -3.64834015982660        0.72483479692226        0.00000021833233
N           -4.82313242603720        1.35696419869959       -0.00000008857080
C           -4.83725232079527        2.66714439075912        0.00000001559860
C           -3.68402358688082        3.45642618071381        0.00000137301016
C           -2.46275527894593        2.82343236698506        0.00000103674925
C           -2.42270611053970        1.42348421385759        0.00000073936896
C           -1.17373173424605        0.70611641390703        0.00000067531636
N           -0.03098822066736        1.41801277217708        0.00000043812874
C            1.07664993164494        0.71865422212746        0.00000035260849
H            4.99297974222230        3.37506177623143       -0.00000165550240
H            2.53180764985820        3.31685531497193       -0.00000113013948
H            2.53180910855858       -3.31685077201398        0.00000196451448
H            4.99298150236265       -3.37505632416294        0.00000158845837
H            6.33889337189201       -1.33778623242748        0.00000014084836
H            6.33889275161536        1.33779243165894       -0.00000119243361
H           -1.53111346678980       -3.36867566134047        0.00000042903380
H           -3.75712492269109       -4.53311910621012       -0.00000126838065
H           -5.81952885314623       -3.12239224306143       -0.00000258525853
H           -5.81953541629839        3.12238246800855        0.00000070583390
H           -3.75713443567360        4.53311380500305        0.00000153357749
H           -1.53112058517122        3.36867537204603        0.00000142303349

          :  Hamiltonian                  GFN2-xTB          :
         :: gradient norm              0.000020092575 Eh/a0 ::
         :: HOMO-LUMO gap              1.398643374134 eV    ::
         :: SCC energy               -70.465933772042 Eh    ::
         :: -> dispersion             -0.055506152990 Eh    ::
         :: repulsion energy           1.231725096371 Eh    ::

    * Orbital Energies and Occupations

         #    Occupation            Energy/Eh            Energy/eV
      -------------------------------------------------------------
         1        2.0000           -0.6803379             -18.5129
       ...           ...                  ...                  ...
        52        2.0000           -0.4373962             -11.9022
        53        2.0000           -0.4358797             -11.8609
        54        2.0000           -0.4327358             -11.7753
        55        2.0000           -0.4306735             -11.7192
        56        2.0000           -0.4296171             -11.6905
        57        2.0000           -0.4204201             -11.4402
        58        2.0000           -0.4174898             -11.3605
        59        2.0000           -0.4073886             -11.0856
        60        2.0000           -0.3960553             -10.7772
        61        2.0000           -0.3920444             -10.6681
        62        2.0000           -0.3627312              -9.8704
        63        2.0000           -0.3615640              -9.8387
        64        2.0000           -0.3545251              -9.6471 (HOMO)
        65                         -0.3031259              -8.2485 (LUMO)
        66                         -0.2902312              -7.8976
        67                         -0.2670430              -7.2666
        68                         -0.2661039              -7.2411
        69                         -0.2429092              -6.6099
        70                         -0.2224983              -6.0545
        71                         -0.2096041              -5.7036
        72                         -0.1987684              -5.4088
        73                         -0.1877547              -5.1091
        74                         -0.1609161              -4.3788
        75                         -0.1168409              -3.1794
       ...                                ...                  ...
       124                          0.7217470              19.6397
      -------------------------------------------------------------
                  HL-Gap            0.0513992 Eh            1.3986 eV

     #   Z          covCN         q      C6AA      α(0)
     1   6 C        2.919    -0.028    28.695     8.784
     2   6 C        2.913    -0.018    28.461     8.748
     3   6 C        3.030    -0.004    28.101     8.695
     4   6 C        3.144    -0.009    27.975     8.654
     5   6 C        3.030    -0.004    28.101     8.695
     6   6 C        2.913    -0.018    28.461     8.748
     7   6 C        2.919    -0.028    28.695     8.784
     8   6 C        2.918    -0.028    28.712     8.787
     9   6 C        2.977     0.017    27.632     8.623
    10   6 C        2.918    -0.028    28.712     8.787
    11   6 C        3.063     0.082    26.121     8.381
    12   7 N        1.839    -0.236    27.035     7.705
    13   6 C        2.983     0.073    26.358     8.422
    14   6 C        2.983    -0.010    28.269     8.722
    15   6 C        2.928    -0.011    28.298     8.724
    16   6 C        2.912    -0.039    28.967     8.825
    17   6 C        2.907     0.063    26.597     8.456
    18   7 N        1.841    -0.201    26.200     7.586
    19   6 C        2.972     0.083    26.154     8.389
    20   6 C        2.972     0.083    26.154     8.389
    21   7 N        1.841    -0.201    26.200     7.586
    22   6 C        2.907     0.063    26.597     8.456
    23   6 C        2.912    -0.039    28.967     8.825
    24   6 C        2.928    -0.011    28.298     8.724
    25   6 C        2.983    -0.010    28.269     8.722
    26   6 C        2.983     0.073    26.358     8.422
    27   7 N        1.839    -0.236    27.035     7.705
    28   6 C        3.063     0.082    26.121     8.381
    29   1 H        0.926     0.040     2.443     2.444
    30   1 H        0.926     0.049     2.328     2.386
    31   1 H        0.926     0.049     2.328     2.386
    32   1 H        0.926     0.040     2.443     2.444
    33   1 H        0.926     0.040     2.449     2.447
    34   1 H        0.926     0.040     2.449     2.447
    35   1 H        0.926     0.059     2.214     2.327
    36   1 H        0.926     0.040     2.455     2.450
    37   1 H        0.925     0.045     2.384     2.414
    38   1 H        0.925     0.045     2.384     2.414
    39   1 H        0.926     0.040     2.455     2.450
    40   1 H        0.926     0.059     2.214     2.327

molecular dipole:
                 x           y           z       tot (Debye)
 q only:        1.270      -0.000      -0.000
   full:        1.999      -0.000      -0.000       5.080

 projected vibrational frequencies (cm⁻¹)
eigval :       -0.00    -0.00    -0.00    -0.00     0.00     0.00
eigval :       32.02    41.38    79.37    95.29    98.96   116.74
eigval :      157.80   166.02   185.85   207.93   227.31   228.12
eigval :      265.28   281.41   356.57   383.94   391.74   395.19
eigval :      398.55   413.34   421.23   426.72   463.59   463.86
eigval :      519.54   520.92   529.44   529.67   563.77   584.70
eigval :      593.54   600.36   606.63   629.03   677.54   677.67
eigval :      687.69   701.07   708.26   734.23   741.15   770.48
eigval :      785.16   790.46   795.33   800.63   810.02   814.34
eigval :      863.43   892.07   897.16   915.70   916.23   922.67
eigval :      927.56   927.72   928.98   945.22   964.91  1039.90
eigval :     1068.53  1071.08  1080.69  1090.19  1101.81  1131.89
eigval :     1132.69  1138.45  1156.27  1178.54  1185.39  1191.81
eigval :     1214.85  1227.01  1232.62  1243.53  1270.80  1281.01
eigval :     1305.80  1321.08  1327.78  1336.79  1360.83  1365.39
eigval :     1373.30  1394.91  1400.64  1417.03  1439.12  1444.43
eigval :     1455.80  1465.13  1483.81  1518.93  1539.54  1561.89
eigval :     1563.52  1569.01  1580.80  1585.31  1609.04  1614.56
eigval :     3052.42  3052.68  3073.27  3074.89  3084.49  3086.22
eigval :     3086.53  3086.71  3098.10  3098.31  3099.77  3100.46

   temp. (K)  partition function   enthalpy   heat capacity  entropy
                                   cal/mol     cal/K/mol   cal/K/mol   J/K/mol
 298.15  VIB  0.126E+07            10190.540     72.208     59.428
         ROT  0.690E+07              888.752      2.981     34.275
         INT  0.872E+13            11079.293     75.189     93.703
         TR   0.651E+28             1481.254      4.968     43.486
         TOT                       12560.5466    80.1573   137.1893   574.0001

       T/K    H(0)-H(T)+PV         H(T)/Eh          T*S/Eh         G(T)/Eh
   ------------------------------------------------------------------------
    298.15    0.200165E-01    0.308516E+00    0.651831E-01    0.243333E+00
   ------------------------------------------------------------------------

         :::::::::::::::::::::::::::::::::::::::::::::::::::::
         ::                  THERMODYNAMIC                  ::
         :::::::::::::::::::::::::::::::::::::::::::::::::::::
         :: total free energy         -68.990875327945 Eh   ::
         ::.................................................::
         :: total energy              -69.234208675667 Eh   ::
         :: zero point energy           0.288499917585 Eh   ::
         :: G(RRHO) w/o ZPVE           -0.045166569863 Eh   ::
         :: G(RRHO) contrib.            0.243333347722 Eh   ::
         :::::::::::::::::::::::::::::::::::::::::::::::::::::

           -------------------------------------------------
          | TOTAL ENERGY              -69.234208675667 Eh   |
          | TOTAL ENTHALPY            -68.925692253019 Eh   |
          | TOTAL FREE ENERGY         -68.990875327945 Eh   |
          | GRADIENT NORM               0.000020152228 Eh/α |
          | HOMO-LUMO GAP               1.398644621708 eV   |
           -------------------------------------------------

 * finished run on 2025/09/13 at 12:58:10.560
