   * xtb version 6.7.1 (edcfbbe) compiled by 'albert@albert-system' on 2024-07-22

   ID    Z sym.   atoms
    1    8 O      1
    2   15 P      2
    3    6 C      3-18, 20-39
    4   14 Si     19
    5    1 H      40-68

          program call               : xtb data2507/toluene/FTAT-FBO/FTAT-FBO_toluene_T1_crest.xyz --gfn 2 --uhf 2 --gbsa toluene --ohess vtight --parallel 40 --molden --ceasefiles --namespace data2507/toluene/FTAT-FBO/FTAT-FBO_toluene_T1_finalOpt
      * Solvation model:               GBSA
        Solvent                        toluene
        Solvent mass                       9.2140E+01 g/mol
          :  Hamiltonian                  GFN2-xTB          :
 * total energy  :  -100.0715115 Eh     change       -0.1251195E-08 Eh
 * total energy  :  -100.0716990 Eh     change       -0.1875463E-03 Eh
 * total energy  :  -100.0718523 Eh     change       -0.1532552E-03 Eh
 * total energy  :  -100.0719274 Eh     change       -0.7509516E-04 Eh
 * total energy  :  -100.0720662 Eh     change       -0.1388060E-03 Eh
 * total energy  :  -100.0722286 Eh     change       -0.1623879E-03 Eh
 * total energy  :  -100.0723660 Eh     change       -0.1374156E-03 Eh
 * total energy  :  -100.0724659 Eh     change       -0.9992930E-04 Eh
 * total energy  :  -100.0725380 Eh     change       -0.7204763E-04 Eh
 * total energy  :  -100.0726158 Eh     change       -0.7778620E-04 Eh
 * total energy  :  -100.0747623 Eh     change       -0.4210791E-06 Eh
 * total energy  :  -100.0747628 Eh     change       -0.4918803E-06 Eh
 * total energy  :  -100.0747632 Eh     change       -0.3725278E-06 Eh
 * total energy  :  -100.0747635 Eh     change       -0.2993008E-06 Eh
 * total energy  :  -100.0747637 Eh     change       -0.2403769E-06 Eh
 * total energy  :  -100.0747639 Eh     change       -0.1450612E-06 Eh
 * total energy  :  -100.0747640 Eh     change       -0.1239857E-06 Eh
 * total energy  :  -100.0747642 Eh     change       -0.1657208E-06 Eh
 * total energy  :  -100.0747642 Eh     change       -0.3622773E-08 Eh
   *** GEOMETRY OPTIMIZATION CONVERGED AFTER 122 ITERATIONS ***

 final structure:
================
68
 xtb: 6.7.1 (edcfbbe)
O            3.78019475676427        0.01731131194143       -2.77999919897209
P            3.45795258086894       -0.21763795791104       -1.35543822068401
C            4.52802372506717       -1.50224044641925       -0.61660244314952
C            4.12545433417012       -2.82956658942343       -0.60475061850608
C            4.98871529838037       -3.80707074735338       -0.14095172932358
C            6.25623493273465       -3.45953083931741        0.29868875887099
C            6.66549633495467       -2.13535512590075        0.27005221318288
C            5.80279691772193       -1.15677843359122       -0.19094542023607
C            3.68317088112806        1.27141585702436       -0.33084659042227
C            3.63816156382603        2.50347732312815       -0.97866519859424
C            3.68036583619381        3.67368300695047       -0.24719946033911
C            3.74543958007313        3.62248560671140        1.13904328719622
C            3.77316785252097        2.39549131606324        1.78786307110616
C            3.73088918469284        1.22211859086107        1.06139681168961
C            1.75377429280372       -0.63419581990324       -1.03812615814017
C            1.31089577376354       -1.13665240116171        0.21821947221007
C           -0.01047570490918       -1.34517450502884        0.44817063946741
C           -0.98358090360051       -0.89841346779909       -0.49737519483070
Si          -2.57736465295195       -0.12294420105007        0.12340575602298
C           -3.16035925695602       -1.23161344271054        1.56359984992782
C           -2.58031471524187       -1.12100386640426        2.82118510160710
C           -3.02722570699376       -1.89873462466876        3.87530940973138
C           -4.06080684922063       -2.80049579738425        3.67997857762586
C           -4.64740754244919       -2.91522666365241        2.43128539331048
C           -4.19613439433633       -2.13786781325908        1.37751645237843
C           -3.77756460436827       -0.09453591272756       -1.34647023194291
C           -4.52684114541784        1.04016258041789       -1.64164689197238
C           -5.43182582643070        1.04009166224956       -2.68861392240727
C           -5.60084607312633       -0.09741954478204       -3.46093438431298
C           -4.85963337949551       -1.23422072763735       -3.18026075946611
C           -3.95535079499808       -1.23040400912200       -2.13368516018313
C           -2.44270316620412        1.63659972816034        0.83982017857822
C           -3.31592329261775        2.11049938034319        1.81534811281785
C           -3.16364386033248        3.37780218491620        2.34911489915189
C           -2.12831332754597        4.19192669647334        1.91867045341585
C           -1.24756689727521        3.73104369683852        0.95362328470585
C           -1.40438940788964        2.46462442096892        0.41948359174040
C           -0.53347115386696       -0.54884324953241       -1.81249201477275
C            0.78892708923773       -0.34131612824695       -2.03810946330612
H            3.13510014796787       -3.08375359105778       -0.96045960151827
H            4.67427412626059       -4.84059466053897       -0.12595436033227
H            6.92937251693716       -4.22334896121796        0.65950896054055
H            7.65736592718322       -1.86653577701324        0.60368799340591
H            6.10543991044089       -0.11753394466844       -0.22497906153543
H            3.59289419158900        2.51700921402793       -2.05945346094294
H            3.66236651982493        4.62754087212448       -0.75500168318161
H            3.77166022628879        4.53724944342722        1.71251952205491
H            3.82610725938299        2.35720080750815        2.86651279480576
H            3.75784180205946        0.26486694450629        1.56228686355041
H            2.04720197442618       -1.42521305836192        0.95529962072010
H           -0.33958499851864       -1.78894925393655        1.37534474966031
H           -1.77935336873886       -0.41314489107830        2.98007849173275
H           -2.56909699438212       -1.80014906285395        4.84905510117254
H           -4.40692883896771       -3.41308708430775        4.49994102444600
H           -5.45682484359561       -3.61358614239318        2.27361568451430
H           -4.65997212456975       -2.23082748558110        0.40719341040361
H           -4.39710466966394        1.93280023922837       -1.04717082904312
H           -6.00525110655723        1.93049217261003       -2.90414159735854
H           -6.30459053022309       -0.09718201824788       -4.28081152667923
H           -4.98601061048199       -2.12468408598122       -3.77978382948605
H           -3.37410321703490       -2.11768908559342       -1.92671162272607
H           -4.12533839595351        1.48018301930399        2.15544774059412
H           -3.85295035421371        3.73188789494146        3.10254229492944
H           -2.00684551776817        5.18135849393872        2.33557136450152
H           -0.43286869308638        4.35657472686653        0.61668749340303
H           -0.70958487708400        2.11044567521575       -0.32881675827907
H           -1.25705839206530       -0.37493805254415       -2.59419893399755
H            1.14581060775254       -0.01595673539132       -3.00664662751006

          :  Hamiltonian                  GFN2-xTB          :
         :: gradient norm              0.000038154585 Eh/a0 ::
         :: HOMO-LUMO gap              0.694877621356 eV    ::
         :: SCC energy              -101.928647274014 Eh    ::
         :: -> dispersion             -0.093471964270 Eh    ::
         :: -> Gsolv                  -0.051435319341 Eh    ::
         :: repulsion energy           1.853883099516 Eh    ::

    * Orbital Energies and Occupations

         #    Occupation            Energy/Eh            Energy/eV
      -------------------------------------------------------------
         1        2.0000           -0.7620410             -20.7362
       ...           ...                  ...                  ...
        83        2.0000           -0.4098865             -11.1536
        84        2.0000           -0.4095334             -11.1440
        85        2.0000           -0.4086228             -11.1192
        86        2.0000           -0.4080356             -11.1032
        87        2.0000           -0.4072162             -11.0809
        88        2.0000           -0.4068517             -11.0710
        89        2.0000           -0.4063954             -11.0586
        90        2.0000           -0.4018931             -10.9361
        91        2.0000           -0.3979819             -10.8296
        92        2.0000           -0.3939298             -10.7194
        93        1.9999           -0.3927436             -10.6871
        94        1.0002           -0.3757861             -10.2257
        95        1.0000           -0.2711931              -7.3795 (HOMO)
        96        0.0000           -0.2456569              -6.6847 (LUMO)
        97                         -0.2415183              -6.5720
        98                         -0.2403602              -6.5405
        99                         -0.2389093              -6.5011
       100                         -0.2353078              -6.4031
       101                         -0.2321725              -6.3177
       102                         -0.2289230              -6.2293
       103                         -0.2283423              -6.2135
       104                         -0.2257922              -6.1441
       105                         -0.2247659              -6.1162
       106                         -0.2211553              -6.0179
       ...                                ...                  ...
       195                          1.2002511              32.6605
      -------------------------------------------------------------
                  HL-Gap            0.0255362 Eh            0.6949 eV

     #   Z          covCN         q      C6AA      α(0)
     1   8 O        0.808    -0.396    21.627     6.234
     2  15 P        4.058    -0.014   160.834    22.781
     3   6 C        2.921     0.020    27.566     8.610
     4   6 C        2.990    -0.022    28.537     8.763
     5   6 C        2.919    -0.027    28.688     8.783
     6   6 C        2.920    -0.026    28.647     8.777
     7   6 C        2.919    -0.027    28.683     8.783
     8   6 C        3.000    -0.020    28.493     8.756
     9   6 C        2.919     0.014    27.693     8.630
    10   6 C        3.019    -0.023    28.545     8.764
    11   6 C        2.918    -0.030    28.744     8.792
    12   6 C        2.920    -0.032    28.789     8.799
    13   6 C        2.918    -0.029    28.713     8.787
    14   6 C        2.973    -0.029    28.714     8.790
    15   6 C        2.914    -0.005    28.140     8.699
    16   6 C        2.970    -0.033    28.810     8.804
    17   6 C        2.923    -0.034    28.855     8.809
    18   6 C        2.864    -0.091    30.289     9.021
    19  14 Si       3.615     0.496    97.985    19.000
    20   6 C        2.863    -0.078    29.946     8.970
    21   6 C        2.934    -0.029    28.731     8.791
    22   6 C        2.918    -0.027    28.675     8.781
    23   6 C        2.920    -0.026    28.662     8.779
    24   6 C        2.919    -0.027    28.677     8.782
    25   6 C        2.935    -0.031    28.769     8.796
    26   6 C        2.863    -0.085    30.135     8.998
    27   6 C        2.935    -0.032    28.788     8.799
    28   6 C        2.918    -0.028    28.712     8.787
    29   6 C        2.920    -0.027    28.685     8.783
    30   6 C        2.917    -0.029    28.730     8.790
    31   6 C        2.936    -0.032    28.794     8.800
    32   6 C        2.862    -0.084    30.100     8.993
    33   6 C        2.931    -0.030    28.747     8.793
    34   6 C        2.917    -0.029    28.715     8.787
    35   6 C        2.920    -0.028    28.698     8.785
    36   6 C        2.917    -0.028    28.692     8.784
    37   6 C        2.937    -0.030    28.744     8.793
    38   6 C        2.925    -0.037    28.916     8.818
    39   6 C        3.006    -0.026    28.629     8.777
    40   1 H        0.925     0.038     2.478     2.462
    41   1 H        0.926     0.043     2.404     2.425
    42   1 H        0.926     0.045     2.385     2.415
    43   1 H        0.926     0.042     2.422     2.434
    44   1 H        0.925     0.034     2.525     2.485
    45   1 H        0.925     0.040     2.452     2.449
    46   1 H        0.926     0.037     2.485     2.465
    47   1 H        0.926     0.040     2.447     2.446
    48   1 H        0.926     0.040     2.445     2.445
    49   1 H        0.926     0.037     2.493     2.469
    50   1 H        0.926     0.038     2.478     2.462
    51   1 H        0.926     0.043     2.412     2.429
    52   1 H        0.926     0.032     2.553     2.498
    53   1 H        0.926     0.038     2.474     2.460
    54   1 H        0.926     0.040     2.453     2.449
    55   1 H        0.926     0.039     2.457     2.451
    56   1 H        0.926     0.034     2.530     2.487
    57   1 H        0.926     0.029     2.597     2.520
    58   1 H        0.926     0.034     2.532     2.489
    59   1 H        0.926     0.035     2.522     2.483
    60   1 H        0.926     0.034     2.523     2.484
    61   1 H        0.926     0.032     2.554     2.499
    62   1 H        0.926     0.032     2.565     2.504
    63   1 H        0.926     0.035     2.510     2.477
    64   1 H        0.926     0.035     2.518     2.482
    65   1 H        0.926     0.031     2.574     2.509
    66   1 H        0.926     0.017     2.779     2.607
    67   1 H        0.926     0.035     2.514     2.480
    68   1 H        0.925     0.039     2.463     2.454

molecular dipole:
                 x           y           z       tot (Debye)
 q only:       -2.763      -0.392       2.493
   full:       -2.732      -0.282       2.560       9.542

 projected vibrational frequencies (cm⁻¹)
eigval :       -0.00    -0.00    -0.00    -0.00     0.00     0.00
eigval :        7.49    13.23    17.85    22.49    25.54    27.70
eigval :       30.86    36.63    40.10    45.35    47.00    47.47
eigval :       55.96    59.29    71.58    88.02   121.84   143.65
eigval :      152.40   158.76   163.49   167.61   178.55   195.75
eigval :      206.52   213.97   216.78   225.67   241.44   262.11
eigval :      268.76   292.38   336.47   356.73   357.73   359.06
eigval :      360.02   362.30   366.00   367.00   408.58   411.84
eigval :      422.67   428.16   451.11   459.28   465.68   466.87
eigval :      485.23   531.21   540.26   580.10   582.38   582.52
eigval :      585.36   585.61   590.24   644.25   650.56   652.17
eigval :      653.83   657.12   661.49   676.23   684.41   692.82
eigval :      702.76   719.20   732.26   733.46   734.31   736.32
eigval :      737.21   750.59   757.01   863.01   868.43   872.95
eigval :      873.76   873.97   883.90   889.75   897.06   898.86
eigval :      902.68   905.23   909.87   920.01   920.61   922.72
eigval :      926.91   927.71   928.88   929.36   930.42   932.34
eigval :      934.84   934.90   957.48   962.98   965.20   968.43
eigval :      973.04   999.89  1066.99  1072.65  1073.97  1080.68
eigval :     1080.86  1081.66  1101.01  1107.83  1108.54  1112.53
eigval :     1117.50  1117.84  1119.26  1120.50  1121.61  1125.47
eigval :     1129.21  1175.51  1177.45  1178.90  1179.24  1179.39
eigval :     1183.53  1184.40  1186.08  1190.33  1200.00  1202.43
eigval :     1204.09  1208.77  1264.87  1268.10  1278.97  1279.52
eigval :     1282.91  1284.15  1306.12  1307.52  1308.87  1310.74
eigval :     1317.64  1325.30  1355.81  1414.70  1415.41  1416.05
eigval :     1418.14  1422.53  1437.73  1448.54  1452.05  1452.09
eigval :     1453.63  1463.75  1511.84  1547.01  1559.38  1562.87
eigval :     1565.83  1566.70  1570.49  1575.22  1578.42  1582.57
eigval :     1585.45  3045.48  3049.88  3050.29  3054.95  3061.81
eigval :     3063.58  3064.01  3064.19  3065.02  3065.63  3066.71
eigval :     3068.44  3071.00  3071.71  3073.06  3073.21  3074.38
eigval :     3075.45  3076.35  3077.06  3077.64  3078.34  3079.33
eigval :     3082.58  3084.99  3085.74  3088.13  3088.87  3089.52

   temp. (K)  partition function   enthalpy   heat capacity  entropy
                                   cal/mol     cal/K/mol   cal/K/mol   J/K/mol
 298.15  VIB  0.491E+19            21219.864    123.621    136.021
         ROT  0.468E+08              888.752      2.981     38.080
         INT  0.230E+27            22108.616    126.602    174.101
         TR   0.120E+29             1481.254      4.968     44.706
         TOT                       23589.8701   131.5697   218.8075   915.4908

       T/K    H(0)-H(T)+PV         H(T)/Eh          T*S/Eh         G(T)/Eh
   ------------------------------------------------------------------------
    298.15    0.375929E-01    0.556300E+00    0.103963E+00    0.452338E+00
   ------------------------------------------------------------------------

         :::::::::::::::::::::::::::::::::::::::::::::::::::::
         ::                  THERMODYNAMIC                  ::
         :::::::::::::::::::::::::::::::::::::::::::::::::::::
         :: total free energy         -99.622426207597 Eh   ::
         ::.................................................::
         :: total energy             -100.074764175412 Eh   ::
         :: zero point energy           0.518707641489 Eh   ::
         :: G(RRHO) w/o ZPVE           -0.066369673674 Eh   ::
         :: G(RRHO) contrib.            0.452337967815 Eh   ::
         :::::::::::::::::::::::::::::::::::::::::::::::::::::

           -------------------------------------------------
          | TOTAL ENERGY             -100.074764175412 Eh   |
          | TOTAL ENTHALPY            -99.518463683018 Eh   |
          | TOTAL FREE ENERGY         -99.622426207597 Eh   |
          | GRADIENT NORM               0.000038242348 Eh/α |
          | HOMO-LUMO GAP               0.694875680919 eV   |
           -------------------------------------------------

 * finished run on 2025/08/24 at 19:11:19.380
