   * xtb version 6.7.1 (edcfbbe) compiled by 'albert@albert-system' on 2024-07-22

   ID    Z sym.   atoms
    1    8 O      1
    2   15 P      2
    3    6 C      3-18, 20-39
    4   14 Si     19
    5    1 H      40-68

          program call               : xtb data2507/toluene/FTAT-FBO/FTAT-FBO.xyz --gfn 2 --gbsa toluene --ohess vtight --parallel 40 --molden --ceasefiles --namespace data2507/toluene/FTAT-FBO/FTAT-FBO_toluene_S0_preOpt
      * Solvation model:               GBSA
        Solvent                        toluene
        Solvent mass                       9.2140E+01 g/mol
          :  Hamiltonian                  GFN2-xTB          :
 * total energy  :  -100.1842774 Eh     change       -0.1161951E-08 Eh
 * total energy  :  -100.1946226 Eh     change       -0.1034518E-01 Eh
 * total energy  :  -100.1963676 Eh     change       -0.1744993E-02 Eh
 * total energy  :  -100.1965648 Eh     change       -0.1972814E-03 Eh
 * total energy  :  -100.1966390 Eh     change       -0.7413263E-04 Eh
 * total energy  :  -100.1966709 Eh     change       -0.3191014E-04 Eh
 * total energy  :  -100.1967121 Eh     change       -0.4120434E-04 Eh
 * total energy  :  -100.1967699 Eh     change       -0.5784782E-04 Eh
 * total energy  :  -100.1968157 Eh     change       -0.4578453E-04 Eh
 * total energy  :  -100.1969096 Eh     change       -0.9391281E-04 Eh
 * total energy  :  -100.1971520 Eh     change       -0.8908177E-06 Eh
 * total energy  :  -100.1971524 Eh     change       -0.4353133E-06 Eh
 * total energy  :  -100.1971527 Eh     change       -0.3502322E-06 Eh
 * total energy  :  -100.1971532 Eh     change       -0.4992977E-06 Eh
 * total energy  :  -100.1971538 Eh     change       -0.5835245E-06 Eh
 * total energy  :  -100.1971543 Eh     change       -0.4293272E-06 Eh
 * total energy  :  -100.1971545 Eh     change       -0.2545018E-06 Eh
 * total energy  :  -100.1971547 Eh     change       -0.1443701E-06 Eh
 * total energy  :  -100.1971547 Eh     change       -0.2282142E-07 Eh
   *** GEOMETRY OPTIMIZATION CONVERGED AFTER 58 ITERATIONS ***

 final structure:
================
68
 xtb: 6.7.1 (edcfbbe)
O            3.93383409682636       -0.17134776747119       -2.87942722827687
P            3.71833667916162       -0.11613367010086       -1.42008106975792
C            4.48559066092319       -1.51194876216705       -0.53448877547034
C            4.69097394376084       -2.68180064627612       -1.25344923589279
C            5.26121326538445       -3.78255797480175       -0.63887233341615
C            5.62691692503000       -3.71385977531377        0.69615138790382
C            5.42708018529068       -2.54486837337617        1.41397841006676
C            4.85759286287361       -1.44206624297841        0.80229128110534
C            4.41468158634482        1.38484783181810       -0.65450865427414
C            5.53518689740499        1.93793758693030       -1.25992688935054
C            6.12802143301330        3.06646333576452       -0.72231199903397
C            5.59960847937358        3.64342210850092        0.42183327258773
C            4.47783132165000        3.09547747615850        1.02404984517196
C            3.88257631443887        1.96638480765894        0.48905660873588
C            1.95640383126588       -0.12679664145147       -0.95817265102524
C            1.47653537389630       -0.68696951834720        0.21878616688186
C            0.12474160352407       -0.62906243971349        0.50132235933263
C           -0.77308774074813       -0.01846399641548       -0.37128561220296
Si          -2.62725792847280        0.02368040507500        0.04176491832807
C           -3.39932426396208       -1.66432142270526       -0.34473979517938
C           -4.78279041037304       -1.79429381129156       -0.44327551706396
C           -5.36864132999376       -3.01687734027142       -0.71771798177084
C           -4.57633197585363       -4.13825347750223       -0.90290412879967
C           -3.19875288406460       -4.02657817565895       -0.81346870332503
C           -2.61926030889314       -2.80077667135050       -0.53622411078981
C           -3.49197428921895        1.34052005992972       -1.01388704605503
C           -3.81563825829088        1.07209350511576       -2.34207617998245
C           -4.43182578554695        2.02413058526216       -3.13412685285113
C           -4.73911718091068        3.26867923414778       -2.60849080139744
C           -4.42866172060569        3.55124239923503       -1.28857201382869
C           -3.81150878902107        2.59452043010302       -0.50179971422056
C           -2.79881901640856        0.43822201481270        1.88511180403047
C           -1.96725977006889        1.39005849893065        2.47162496402772
C           -2.09105544680492        1.72144185401559        3.80889565547583
C           -3.05489533193543        1.10342998586356        4.58903006420315
C           -3.88860437542107        0.15295867750451        4.02348416286214
C           -3.75914797127789       -0.17409998682279        2.68491700246953
C           -0.27540261889025        0.53482170120857       -1.54703548486439
C            1.07419889631590        0.48240574936041       -1.84085672151492
H            4.40625770372023       -2.70636503951375       -2.29652674215555
H            5.42169634462460       -4.69141018856268       -1.20021684299236
H            6.07346741866507       -4.57159702591369        1.17723838479760
H            5.71904364021121       -2.49129905021650        2.45271384591590
H            4.71005727913189       -0.52504045928935        1.35475243638400
H            5.92185539839941        1.47488819869437       -2.15771827923567
H            6.99977227654214        3.49541911230588       -1.19451328928678
H            6.06052896937108        4.52494577165501        0.84269361883955
H            4.06463434293807        3.55002693487069        1.91273579837598
H            3.00214263159755        1.54041311289502        0.94948839417210
H            2.15884587098463       -1.17054207403733        0.90392845857987
H           -0.24455398976232       -1.06317593759835        1.41974213951546
H           -5.40602534540569       -0.92104363761821       -0.30919594046926
H           -6.44431488246781       -3.09706621155965       -0.78997245163748
H           -5.03090751491650       -5.09455279544996       -1.11947669570929
H           -2.57497022293279       -4.89708784155668       -0.96164266862413
H           -1.54314848844921       -2.72165057859752       -0.47360835508289
H           -3.58458409235005        0.10035967570663       -2.75639368892238
H           -4.67454065793068        1.79655411952141       -4.16279362924284
H           -5.22063716183613        4.01436599998514       -3.22508781829383
H           -4.66922956075746        4.51964732772327       -0.87263189337496
H           -3.57622197150483        2.82068850145180        0.52840116442520
H           -1.21078212043749        1.87305877896033        1.86843896937422
H           -1.43585395821776        2.46227077925256        4.24568710846991
H           -3.15424625987549        1.36061060345305        5.63403052510141
H           -4.64100064042061       -0.33386404029511        4.62810844050388
H           -4.41027366406434       -0.91958193812591        2.25164205744357
H           -0.95390354552533        1.01572158737689       -2.23659347743119
H            1.46492624096168        0.90364276109902       -2.75782597226723

          :  Hamiltonian                  GFN2-xTB          :
         :: gradient norm              0.000137162708 Eh/a0 ::
         :: HOMO-LUMO gap              3.498821283252 eV    ::
         :: SCC energy              -102.063395088934 Eh    ::
         :: -> dispersion             -0.092144416039 Eh    ::
         :: -> Gsolv                  -0.048736893785 Eh    ::
         :: repulsion energy           1.866240413725 Eh    ::

    * Orbital Energies and Occupations

         #    Occupation            Energy/Eh            Energy/eV
      -------------------------------------------------------------
         1        2.0000           -0.7563364             -20.5810
       ...           ...                  ...                  ...
        82        2.0000           -0.4132059             -11.2439
        83        2.0000           -0.4117886             -11.2053
        84        2.0000           -0.4107862             -11.1781
        85        2.0000           -0.4054663             -11.0333
        86        2.0000           -0.4030881             -10.9686
        87        2.0000           -0.4029810             -10.9657
        88        2.0000           -0.4025800             -10.9548
        89        2.0000           -0.4023796             -10.9493
        90        2.0000           -0.4015866             -10.9277
        91        2.0000           -0.4013249             -10.9206
        92        2.0000           -0.3872487             -10.5376
        93        2.0000           -0.3857910             -10.4979
        94        2.0000           -0.3848571             -10.4725 (HOMO)
        95                         -0.2562777              -6.9737 (LUMO)
        96                         -0.2525047              -6.8710
        97                         -0.2419987              -6.5851
        98                         -0.2399008              -6.5280
        99                         -0.2363953              -6.4326
       100                         -0.2353094              -6.4031
       101                         -0.2347409              -6.3876
       102                         -0.2319042              -6.3104
       103                         -0.2294447              -6.2435
       104                         -0.2213352              -6.0228
       105                         -0.2205973              -6.0028
       ...                                ...                  ...
       195                          1.1608351              31.5879
      -------------------------------------------------------------
                  HL-Gap            0.1285794 Eh            3.4988 eV

     #   Z          covCN         q      C6AA      α(0)
     1   8 O        0.808    -0.404    21.781     6.256
     2  15 P        4.069     0.057   157.702    22.558
     3   6 C        2.920     0.011    27.782     8.644
     4   6 C        3.023    -0.019    28.460     8.751
     5   6 C        2.919    -0.026    28.664     8.780
     6   6 C        2.920    -0.024    28.603     8.770
     7   6 C        2.919    -0.027    28.673     8.781
     8   6 C        2.974    -0.026    28.655     8.781
     9   6 C        2.920     0.010    27.790     8.645
    10   6 C        3.025    -0.019    28.458     8.750
    11   6 C        2.919    -0.026    28.662     8.779
    12   6 C        2.920    -0.024    28.605     8.771
    13   6 C        2.919    -0.027    28.672     8.781
    14   6 C        2.973    -0.026    28.652     8.780
    15   6 C        2.921     0.010    27.803     8.647
    16   6 C        2.968    -0.028    28.708     8.789
    17   6 C        2.938    -0.030    28.754     8.794
    18   6 C        2.862    -0.088    30.206     9.009
    19  14 Si       3.610     0.491    98.185    19.024
    20   6 C        2.862    -0.091    30.278     9.019
    21   6 C        2.938    -0.031    28.783     8.799
    22   6 C        2.917    -0.031    28.765     8.795
    23   6 C        2.920    -0.029    28.723     8.789
    24   6 C        2.917    -0.030    28.757     8.794
    25   6 C        2.935    -0.032    28.801     8.802
    26   6 C        2.862    -0.091    30.287     9.021
    27   6 C        2.938    -0.032    28.787     8.799
    28   6 C        2.917    -0.031    28.765     8.795
    29   6 C        2.920    -0.029    28.725     8.789
    30   6 C        2.917    -0.030    28.761     8.794
    31   6 C        2.935    -0.033    28.813     8.803
    32   6 C        2.862    -0.091    30.271     9.018
    33   6 C        2.938    -0.031    28.782     8.799
    34   6 C        2.917    -0.031    28.764     8.795
    35   6 C        2.920    -0.029    28.724     8.789
    36   6 C        2.917    -0.030    28.754     8.793
    37   6 C        2.935    -0.032    28.808     8.803
    38   6 C        2.934    -0.031    28.766     8.796
    39   6 C        3.025    -0.020    28.486     8.755
    40   1 H        0.925     0.046     2.372     2.409
    41   1 H        0.926     0.044     2.399     2.422
    42   1 H        0.926     0.047     2.362     2.403
    43   1 H        0.926     0.046     2.370     2.407
    44   1 H        0.926     0.045     2.386     2.416
    45   1 H        0.925     0.045     2.387     2.416
    46   1 H        0.926     0.044     2.399     2.422
    47   1 H        0.926     0.047     2.361     2.403
    48   1 H        0.926     0.046     2.369     2.407
    49   1 H        0.926     0.043     2.407     2.426
    50   1 H        0.926     0.040     2.444     2.445
    51   1 H        0.926     0.035     2.517     2.481
    52   1 H        0.926     0.023     2.687     2.563
    53   1 H        0.926     0.030     2.591     2.517
    54   1 H        0.926     0.030     2.584     2.514
    55   1 H        0.926     0.028     2.611     2.527
    56   1 H        0.926     0.021     2.716     2.577
    57   1 H        0.925     0.022     2.705     2.572
    58   1 H        0.926     0.029     2.607     2.525
    59   1 H        0.926     0.030     2.587     2.515
    60   1 H        0.926     0.029     2.593     2.518
    61   1 H        0.926     0.025     2.656     2.548
    62   1 H        0.925     0.022     2.709     2.574
    63   1 H        0.926     0.030     2.592     2.518
    64   1 H        0.926     0.030     2.581     2.512
    65   1 H        0.926     0.030     2.593     2.518
    66   1 H        0.926     0.025     2.660     2.551
    67   1 H        0.926     0.033     2.546     2.495
    68   1 H        0.925     0.040     2.445     2.445

molecular dipole:
                 x           y           z       tot (Debye)
 q only:       -0.560       0.102       2.059
   full:       -0.511       0.094       2.094       5.484

 projected vibrational frequencies (cm⁻¹)
eigval :       -0.00    -0.00     0.00     0.00     0.00     0.00
eigval :        6.53    14.26    17.74    23.79    29.11    30.13
eigval :       33.70    34.04    36.91    42.76    43.88    45.69
eigval :       48.09    49.98    58.63   114.37   123.93   152.46
eigval :      158.71   161.78   168.43   176.65   189.64   210.11
eigval :      212.11   218.49   226.93   229.26   267.10   281.47
eigval :      286.51   302.23   354.62   358.67   359.80   361.91
eigval :      362.89   365.53   374.87   411.28   414.97   423.10
eigval :      433.86   436.47   454.17   477.65   480.97   491.04
eigval :      514.03   558.91   584.97   586.01   588.52   589.63
eigval :      590.03   599.42   657.32   659.21   662.56   662.90
eigval :      663.59   667.73   668.36   685.31   704.59   707.04
eigval :      714.53   734.04   735.07   736.52   739.90   742.76
eigval :      763.11   791.54   878.17   879.36   881.02   882.07
eigval :      882.72   884.56   903.07   905.17   906.12   907.08
eigval :      908.28   922.08   927.82   929.07   930.43   931.67
eigval :      931.80   933.43   933.60   935.07   935.23   935.30
eigval :      935.78   971.00   974.30   974.51   975.93   976.29
eigval :      995.33  1076.70  1077.80  1083.40  1084.19  1084.65
eigval :     1111.29  1113.40  1118.91  1119.65  1120.03  1121.20
eigval :     1125.03  1126.27  1136.16  1142.02  1148.19  1148.30
eigval :     1148.84  1176.63  1178.06  1180.41  1180.83  1181.10
eigval :     1188.68  1192.08  1201.99  1205.65  1205.85  1209.22
eigval :     1220.23  1268.52  1268.94  1272.68  1285.84  1286.61
eigval :     1289.31  1308.67  1308.70  1309.73  1312.05  1319.05
eigval :     1319.35  1375.89  1417.19  1417.69  1419.29  1421.32
eigval :     1422.23  1451.31  1451.94  1458.10  1462.25  1462.48
eigval :     1462.77  1556.21  1574.22  1574.25  1575.05  1579.65
eigval :     1581.07  1581.48  1584.29  1585.16  1591.06  1591.48
eigval :     1592.61  3057.03  3057.30  3058.40  3059.22  3060.36
eigval :     3061.69  3062.26  3063.24  3064.52  3066.37  3066.99
eigval :     3067.16  3067.30  3067.69  3070.82  3071.95  3072.96
eigval :     3073.61  3074.22  3075.14  3077.20  3077.56  3081.25
eigval :     3081.56  3082.12  3082.23  3082.77  3090.68  3092.61

   temp. (K)  partition function   enthalpy   heat capacity  entropy
                                   cal/mol     cal/K/mol   cal/K/mol   J/K/mol
 298.15  VIB  0.319E+19            20753.133    120.428    132.795
         ROT  0.516E+08              888.752      2.981     38.274
         INT  0.165E+27            21641.885    123.409    171.069
         TR   0.120E+29             1481.254      4.968     44.706
         TOT                       23123.1389   128.3769   215.7755   902.8047

       T/K    H(0)-H(T)+PV         H(T)/Eh          T*S/Eh         G(T)/Eh
   ------------------------------------------------------------------------
    298.15    0.368491E-01    0.560697E+00    0.102522E+00    0.458175E+00
   ------------------------------------------------------------------------

         :::::::::::::::::::::::::::::::::::::::::::::::::::::
         ::                  THERMODYNAMIC                  ::
         :::::::::::::::::::::::::::::::::::::::::::::::::::::
         :: total free energy         -99.738979917109 Eh   ::
         ::.................................................::
         :: total energy             -100.197154677387 Eh   ::
         :: zero point energy           0.523847597489 Eh   ::
         :: G(RRHO) w/o ZPVE           -0.065672837210 Eh   ::
         :: G(RRHO) contrib.            0.458174760279 Eh   ::
         :::::::::::::::::::::::::::::::::::::::::::::::::::::

           -------------------------------------------------
          | TOTAL ENERGY             -100.197154677387 Eh   |
          | TOTAL ENTHALPY            -99.636458012568 Eh   |
          | TOTAL FREE ENERGY         -99.738979917109 Eh   |
          | GRADIENT NORM               0.000136753212 Eh/α |
          | HOMO-LUMO GAP               3.498824921047 eV   |
           -------------------------------------------------

 * finished run on 2025/08/24 at 18:58:38.353
