   * xtb version 6.7.1 (edcfbbe) compiled by 'albert@albert-system' on 2024-07-22

   ID    Z sym.   atoms
    1    8 O      1
    2   15 P      2
    3    6 C      3-18, 20-39
    4   14 Si     19
    5    1 H      40-68

          program call               : xtb data2507/toluene/FTAT-FBO/FTAT-FBO_toluene_S0_finalOpt.xtbopt.xyz --gfn 2 --uhf 2 --gbsa toluene --ohess vtight --parallel 40 --molden --ceasefiles --namespace data2507/toluene/FTAT-FBO/FTAT-FBO_toluene_T1_preOpt
      * Solvation model:               GBSA
        Solvent                        toluene
        Solvent mass                       9.2140E+01 g/mol
          :  Hamiltonian                  GFN2-xTB          :
 * total energy  :  -100.0624178 Eh     change       -0.2346735E-07 Eh
 * total energy  :  -100.0641500 Eh     change       -0.1732139E-02 Eh
 * total energy  :  -100.0645410 Eh     change       -0.3910677E-03 Eh
 * total energy  :  -100.0649692 Eh     change       -0.4281641E-03 Eh
 * total energy  :  -100.0657423 Eh     change       -0.7731368E-03 Eh
 * total energy  :  -100.0667115 Eh     change       -0.9691571E-03 Eh
 * total energy  :  -100.0678907 Eh     change       -0.1179211E-02 Eh
 * total energy  :  -100.0683434 Eh     change       -0.4527518E-03 Eh
 * total energy  :  -100.0685812 Eh     change       -0.2378055E-03 Eh
 * total energy  :  -100.0688952 Eh     change       -0.3139837E-03 Eh
 * total energy  :  -100.0755784 Eh     change       -0.2746100E-06 Eh
 * total energy  :  -100.0755787 Eh     change       -0.2699110E-06 Eh
 * total energy  :  -100.0755789 Eh     change       -0.2424506E-06 Eh
 * total energy  :  -100.0755791 Eh     change       -0.1827996E-06 Eh
 * total energy  :  -100.0755793 Eh     change       -0.1483191E-06 Eh
 * total energy  :  -100.0755794 Eh     change       -0.1779269E-06 Eh
 * total energy  :  -100.0755797 Eh     change       -0.2428985E-06 Eh
 * total energy  :  -100.0755799 Eh     change       -0.2773707E-06 Eh
 * total energy  :  -100.0755800 Eh     change       -0.1024847E-07 Eh
   *** GEOMETRY OPTIMIZATION CONVERGED AFTER 185 ITERATIONS ***

 final structure:
================
68
 xtb: 6.7.1 (edcfbbe)
O            4.05352467431180       -0.23191838985937        2.30000939965665
P            3.65333615910026       -0.12126292678882        0.87977198491278
C            4.31967571525914        1.36454239667752        0.07169497055257
C            4.61271293405129        2.45458518912649        0.88700016482772
C            5.01010440407028        3.65409002715130        0.33069748242186
C            5.10125098844029        3.78057904448282       -1.04912961227391
C            4.79806605834010        2.70078868108156       -1.86568902133586
C            4.40411569967364        1.49755324162287       -1.31316645421594
C            4.30534510079536       -1.52253912270750       -0.10740782005274
C            5.66117495608519       -1.51652497511476       -0.40305927046505
C            6.23036584848686       -2.59497052719816       -1.05636027578344
C            5.44471779823029       -3.68199460541967       -1.40740577289247
C            4.09421828986993       -3.69332192765433       -1.09914252645661
C            3.52249508303151       -2.61569705529598       -0.44325459273467
C            1.88043327542676       -0.11137210548477        0.63623323331447
C            1.30559024866467       -0.01910861182943       -0.66283990200091
C           -0.00424809197446        0.30494465487325       -0.82246159329524
C           -0.86135911710600        0.44335339507495        0.30854543743013
Si          -2.68897402709454        0.08300368316687        0.08602829506113
C           -3.26077572903499       -1.71896305351448       -0.13529484536594
C           -4.31159712621892       -2.27030449654698        0.59490686483002
C           -4.64523974299635       -3.60608830518323        0.46098916543691
C           -3.93279545143399       -4.41709394015835       -0.40779343970216
C           -2.88285802278720       -3.88304650791389       -1.13902653138941
C           -2.55089649482079       -2.54822448773301       -1.00464971699139
C           -3.17139810898516        1.00914421015566       -1.51085838275354
C           -2.69700396434516        2.29797297140044       -1.74074938407557
C           -3.09211277241179        3.00735060404688       -2.86097277760021
C           -3.96539910793593        2.43572606690525       -3.77229781851649
C           -4.44268070660505        1.15362973281401       -3.55504388895456
C           -4.04621455601903        0.44575589878942       -2.43336055222595
C           -3.54962546421272        0.75643333532099        1.64469700734509
C           -4.33700200032791        1.89716106135045        1.56349627834899
C           -4.98848497812903        2.38141501028753        2.68580839238089
C           -4.85276397501394        1.73358004927284        3.90165311504525
C           -4.06809131527435        0.59531835958189        3.99242937444964
C           -3.42060497581026        0.11229211366789        2.86825811310932
C           -0.25736914038150        0.47579388720366        1.60019273056406
C            1.05322998928600        0.14828819536239        1.75929680536871
H            4.53957002659005        2.32905588753967        1.95929814941673
H            5.25031497750550        4.49235857988209        0.96907605402028
H            5.41058178294610        4.71870076223505       -1.48589804480820
H            4.87335675474820        2.79909084562767       -2.93941026920978
H            4.18597885276135        0.64936250858101       -1.94686348940207
H            6.25758968492740       -0.65928021817447       -0.11566814286394
H            7.28539384214955       -2.58885095176820       -1.28913595375689
H            5.88865953227194       -4.52407926484389       -1.91792228339186
H            3.48443186787322       -4.54433214639859       -1.36615850758146
H            2.47091857021686       -2.61634525185265       -0.18954887553664
H            1.93348222816432       -0.17844284395751       -1.52768724330373
H           -0.41869631855062        0.39895641925646       -1.81495880515708
H           -4.87929739314750       -1.64440345961907        1.26804519174164
H           -5.46594702099847       -4.01496565769999        1.03313339571205
H           -4.19554441195629       -5.45942797077050       -0.51649623229078
H           -2.32095927941888       -4.51034486758329       -1.81663378497308
H           -1.73050901321447       -2.14004416244158       -1.57643180076473
H           -2.01149250342579        2.74738001718053       -1.03683916759102
H           -2.71643783919734        4.00767067770623       -3.02328165414866
H           -4.26980017335882        2.98664506929962       -4.65057793174259
H           -5.12438561218992        0.70219049359444       -4.26175657507744
H           -4.41957348003473       -0.55494313731101       -2.27349878625287
H           -4.44659384739609        2.40761274189618        0.61833684650251
H           -5.60024657262750        3.26893455745339        2.60898924298988
H           -5.35498203897784        2.11536743068601        4.77881799240896
H           -3.96038058831897        0.08314194263787        4.93786912214753
H           -2.81360569047609       -0.77890679899447        2.94228595900488
H           -0.85715347453729        0.72616394501663        2.46180045301972
H            1.50834483130987        0.13221337596544        2.74036097845942

          :  Hamiltonian                  GFN2-xTB          :
         :: gradient norm              0.000056994306 Eh/a0 ::
         :: HOMO-LUMO gap              0.690380166043 eV    ::
         :: SCC energy              -101.929676593198 Eh    ::
         :: -> dispersion             -0.092415737571 Eh    ::
         :: -> Gsolv                  -0.051879471757 Eh    ::
         :: repulsion energy           1.854096633283 Eh    ::

    * Orbital Energies and Occupations

         #    Occupation            Energy/Eh            Energy/eV
      -------------------------------------------------------------
         1        2.0000           -0.7624672             -20.7478
       ...           ...                  ...                  ...
        83        2.0000           -0.4094724             -11.1423
        84        2.0000           -0.4091358             -11.1332
        85        2.0000           -0.4086794             -11.1207
        86        2.0000           -0.4081601             -11.1066
        87        2.0000           -0.4071987             -11.0804
        88        2.0000           -0.4068171             -11.0701
        89        2.0000           -0.4045489             -11.0083
        90        2.0000           -0.4007750             -10.9056
        91        2.0000           -0.3968177             -10.7980
        92        1.9999           -0.3944752             -10.7342
        93        1.9998           -0.3938478             -10.7171
        94        1.0003           -0.3781759             -10.2907
        95        1.0000           -0.2713669              -7.3843 (HOMO)
        96        0.0000           -0.2459968              -6.6939 (LUMO)
        97                         -0.2414680              -6.5707
        98                         -0.2400944              -6.5333
        99                         -0.2397908              -6.5250
       100                         -0.2336786              -6.3587
       101                         -0.2321057              -6.3159
       102                         -0.2291105              -6.2344
       103                         -0.2275574              -6.1922
       104                         -0.2260088              -6.1500
       105                         -0.2247541              -6.1159
       106                         -0.2209571              -6.0125
       ...                                ...                  ...
       195                          1.2005231              32.6679
      -------------------------------------------------------------
                  HL-Gap            0.0253701 Eh            0.6904 eV

     #   Z          covCN         q      C6AA      α(0)
     1   8 O        0.808    -0.398    21.669     6.240
     2  15 P        4.062    -0.019   161.060    22.797
     3   6 C        2.919     0.012    27.751     8.639
     4   6 C        3.023    -0.023    28.553     8.765
     5   6 C        2.918    -0.031    28.769     8.796
     6   6 C        2.920    -0.033    28.810     8.802
     7   6 C        2.918    -0.030    28.740     8.791
     8   6 C        2.973    -0.030    28.734     8.793
     9   6 C        2.921     0.021    27.528     8.604
    10   6 C        3.014    -0.019    28.450     8.749
    11   6 C        2.919    -0.027    28.679     8.782
    12   6 C        2.920    -0.026    28.655     8.778
    13   6 C        2.920    -0.028    28.690     8.784
    14   6 C        2.975    -0.023    28.581     8.769
    15   6 C        2.913    -0.003    28.098     8.692
    16   6 C        2.973    -0.032    28.787     8.801
    17   6 C        2.927    -0.034    28.851     8.809
    18   6 C        2.863    -0.090    30.259     9.017
    19  14 Si       3.611     0.495    98.063    19.011
    20   6 C        2.862    -0.082    30.044     8.984
    21   6 C        2.930    -0.031    28.774     8.797
    22   6 C        2.917    -0.028    28.705     8.786
    23   6 C        2.920    -0.029    28.731     8.790
    24   6 C        2.917    -0.028    28.706     8.786
    25   6 C        2.938    -0.032    28.788     8.800
    26   6 C        2.862    -0.081    30.025     8.982
    27   6 C        2.935    -0.030    28.752     8.794
    28   6 C        2.918    -0.028    28.701     8.785
    29   6 C        2.920    -0.026    28.662     8.779
    30   6 C        2.918    -0.028    28.693     8.784
    31   6 C        2.933    -0.031    28.768     8.796
    32   6 C        2.864    -0.081    30.019     8.981
    33   6 C        2.936    -0.031    28.775     8.798
    34   6 C        2.919    -0.027    28.685     8.783
    35   6 C        2.920    -0.027    28.676     8.781
    36   6 C        2.918    -0.028    28.691     8.784
    37   6 C        2.935    -0.030    28.753     8.794
    38   6 C        2.920    -0.037    28.916     8.818
    39   6 C        3.006    -0.024    28.598     8.772
    40   1 H        0.925     0.037     2.486     2.466
    41   1 H        0.926     0.035     2.519     2.482
    42   1 H        0.926     0.037     2.484     2.465
    43   1 H        0.926     0.038     2.481     2.463
    44   1 H        0.926     0.032     2.558     2.501
    45   1 H        0.925     0.035     2.514     2.479
    46   1 H        0.926     0.042     2.417     2.431
    47   1 H        0.926     0.045     2.378     2.411
    48   1 H        0.926     0.044     2.391     2.418
    49   1 H        0.925     0.040     2.454     2.450
    50   1 H        0.926     0.040     2.452     2.449
    51   1 H        0.926     0.035     2.519     2.482
    52   1 H        0.926     0.032     2.565     2.504
    53   1 H        0.926     0.034     2.527     2.486
    54   1 H        0.926     0.035     2.523     2.484
    55   1 H        0.926     0.034     2.523     2.484
    56   1 H        0.926     0.025     2.652     2.547
    57   1 H        0.926     0.033     2.540     2.492
    58   1 H        0.926     0.036     2.500     2.473
    59   1 H        0.926     0.037     2.489     2.467
    60   1 H        0.926     0.037     2.493     2.469
    61   1 H        0.926     0.033     2.542     2.493
    62   1 H        0.926     0.031     2.568     2.506
    63   1 H        0.926     0.038     2.469     2.457
    64   1 H        0.926     0.039     2.467     2.456
    65   1 H        0.926     0.037     2.495     2.470
    66   1 H        0.926     0.033     2.540     2.492
    67   1 H        0.926     0.040     2.447     2.446
    68   1 H        0.925     0.040     2.443     2.444

molecular dipole:
                 x           y           z       tot (Debye)
 q only:       -3.274      -0.012      -1.883
   full:       -3.284       0.060      -1.965       9.728

 projected vibrational frequencies (cm⁻¹)
eigval :       -0.00    -0.00     0.00     0.00     0.00     0.00
eigval :       -2.22     8.76    15.43    18.05    23.99    27.50
eigval :       33.28    35.58    41.35    42.18    46.25    49.44
eigval :       57.80    60.31    68.91    91.59   121.32   128.45
eigval :      151.10   157.77   163.86   171.52   183.14   199.60
eigval :      206.13   211.80   218.13   234.27   237.52   262.09
eigval :      272.71   294.03   342.34   354.87   356.47   362.54
eigval :      363.55   364.34   367.28   370.99   407.02   410.55
eigval :      419.18   429.92   446.90   456.92   463.65   468.75
eigval :      486.06   538.07   554.13   564.79   582.31   583.14
eigval :      583.49   584.27   584.64   646.22   648.56   650.18
eigval :      650.92   656.45   660.94   677.28   683.41   685.48
eigval :      703.17   723.21   728.97   734.65   735.32   735.74
eigval :      736.72   746.95   754.49   864.59   866.82   869.80
eigval :      872.56   873.53   886.32   893.95   894.65   896.01
eigval :      898.85   904.73   906.37   920.46   923.70   925.29
eigval :      925.62   927.40   928.12   928.19   930.97   931.37
eigval :      932.90   934.15   954.25   959.95   965.47   967.09
eigval :      970.78  1008.79  1057.42  1072.70  1075.05  1079.09
eigval :     1079.67  1081.18  1103.63  1105.00  1108.83  1110.70
eigval :     1114.82  1116.65  1117.70  1118.73  1119.73  1121.91
eigval :     1126.60  1174.29  1176.26  1176.88  1177.06  1177.77
eigval :     1184.28  1184.75  1189.67  1195.56  1200.58  1201.94
eigval :     1203.68  1207.23  1266.46  1268.89  1279.48  1281.21
eigval :     1282.24  1282.49  1307.04  1307.46  1308.40  1311.88
eigval :     1317.17  1324.95  1359.55  1412.02  1414.53  1415.16
eigval :     1418.89  1422.09  1442.47  1444.73  1447.11  1451.22
eigval :     1452.32  1455.29  1499.80  1553.78  1556.36  1559.97
eigval :     1561.78  1565.91  1570.35  1573.13  1577.34  1580.92
eigval :     1582.51  3043.23  3058.15  3058.57  3058.76  3060.79
eigval :     3063.99  3064.49  3065.07  3065.42  3066.25  3067.97
eigval :     3068.14  3070.58  3072.27  3073.91  3074.12  3074.92
eigval :     3075.07  3077.43  3078.11  3078.45  3079.82  3080.47
eigval :     3081.01  3086.15  3086.37  3087.31  3087.85  3088.62

   temp. (K)  partition function   enthalpy   heat capacity  entropy
                                   cal/mol     cal/K/mol   cal/K/mol   J/K/mol
 298.15  VIB  0.352E+20            21241.986    123.660    137.953
         ROT  0.508E+08              888.752      2.981     38.240
         INT  0.179E+28            22130.738    126.641    176.193
         TR   0.120E+29             1481.254      4.968     44.706
         TOT                       23611.9923   131.6092   220.8990   924.2416

       T/K    H(0)-H(T)+PV         H(T)/Eh          T*S/Eh         G(T)/Eh
   ------------------------------------------------------------------------
    298.15    0.376281E-01    0.556165E+00    0.104956E+00    0.451208E+00
   ------------------------------------------------------------------------

         :::::::::::::::::::::::::::::::::::::::::::::::::::::
         ::                  THERMODYNAMIC                  ::
         :::::::::::::::::::::::::::::::::::::::::::::::::::::
         :: total free energy         -99.624371714434 Eh   ::
         ::.................................................::
         :: total energy             -100.075579955804 Eh   ::
         :: zero point energy           0.518536399196 Eh   ::
         :: G(RRHO) w/o ZPVE           -0.067328157826 Eh   ::
         :: G(RRHO) contrib.            0.451208241370 Eh   ::
         :::::::::::::::::::::::::::::::::::::::::::::::::::::

           -------------------------------------------------
          | TOTAL ENERGY             -100.075579955804 Eh   |
          | TOTAL ENTHALPY            -99.519415451682 Eh   |
          | TOTAL FREE ENERGY         -99.624371714434 Eh   |
          | GRADIENT NORM               0.000057293292 Eh/α |
          | HOMO-LUMO GAP               0.690354800870 eV   |
           -------------------------------------------------

 * finished run on 2025/08/24 at 19:03:41.376
