   * xtb version 6.7.1 (edcfbbe) compiled by 'albert@albert-system' on 2024-07-22

   ID    Z sym.   atoms
    1    8 O      1
    2   15 P      2
    3    6 C      3-18, 20-39
    4   14 Si     19
    5    1 H      40-68

          program call               : xtb data2507/toluene/FTAT-FBO/FTAT-FBO_toluene_S0_crest.xyz --gfn 2 --gbsa toluene --ohess vtight --parallel 40 --molden --ceasefiles --namespace data2507/toluene/FTAT-FBO/FTAT-FBO_toluene_S0_finalOpt
      * Solvation model:               GBSA
        Solvent                        toluene
        Solvent mass                       9.2140E+01 g/mol
          :  Hamiltonian                  GFN2-xTB          :
 * total energy  :  -100.1969281 Eh     change       -0.1160245E-08 Eh
 * total energy  :  -100.1970279 Eh     change       -0.9973340E-04 Eh
 * total energy  :  -100.1970700 Eh     change       -0.4214573E-04 Eh
 * total energy  :  -100.1970809 Eh     change       -0.1086597E-04 Eh
 * total energy  :  -100.1970931 Eh     change       -0.1222091E-04 Eh
 * total energy  :  -100.1971036 Eh     change       -0.1052475E-04 Eh
 * total energy  :  -100.1971122 Eh     change       -0.8574029E-05 Eh
 * total energy  :  -100.1971181 Eh     change       -0.5854792E-05 Eh
 * total energy  :  -100.1971210 Eh     change       -0.2943449E-05 Eh
 * total energy  :  -100.1971227 Eh     change       -0.1647320E-05 Eh
 * total energy  :  -100.1971293 Eh     change       -0.1963893E-05 Eh
 * total energy  :  -100.1971301 Eh     change       -0.7993655E-06 Eh
 * total energy  :  -100.1971305 Eh     change       -0.4406217E-06 Eh
 * total energy  :  -100.1971305 Eh     change        0.6633289E-07 Eh
 * total energy  :  -100.1971308 Eh     change       -0.3178685E-06 Eh
 * total energy  :  -100.1971310 Eh     change       -0.1753831E-06 Eh
 * total energy  :  -100.1971313 Eh     change       -0.2875056E-06 Eh
 * total energy  :  -100.1971316 Eh     change       -0.3292964E-06 Eh
 * total energy  :  -100.1971316 Eh     change       -0.8682932E-08 Eh
   *** GEOMETRY OPTIMIZATION CONVERGED AFTER 22 ITERATIONS ***

 final structure:
================
68
 xtb: 6.7.1 (edcfbbe)
O            3.93605479056638       -0.05691490523765        2.49526961503504
P            3.64393929302025       -0.04451644732678        1.04727339435339
C            4.23873760007016        1.46144202486693        0.21182983243030
C            5.35650825790604        2.08402661834481        0.75080770998253
C            5.87865459279149        3.21492214434035        0.14851817001400
C            5.28288063274531        3.72327878888652       -0.99496250609062
C            4.16505873658892        3.10436212666982       -1.53262279954954
C            3.64140061414832        1.97264006985995       -0.93317583274127
C            4.42306093367385       -1.42239618027574        0.15095100689711
C            4.39283522594364       -1.50875577830029       -1.23605455507056
C            5.01028892024373       -2.57160975007991       -1.86931674422761
C            5.65963726992070       -3.54452147801438       -1.12369153588994
C            5.69507494573631       -3.45559010372500        0.25850690945710
C            5.07705030166592       -2.39353238893824        0.89579576088039
C            1.85755096768717       -0.11140815203530        0.68926166264189
C            1.23564623618065       -1.17534630857532        0.05426927952175
C           -0.13488827746576       -1.15139502386619       -0.13796868097430
C           -0.90736390006387       -0.07985862155686        0.29677150297263
Si          -2.78220961013907       -0.01914791758268       -0.00544928092676
C           -3.43573049456405       -1.76800051208350       -0.34031608330417
C           -4.09153020886737       -2.49849514303165        0.64631183609092
C           -4.55519313604430       -3.77863787064287        0.39853012389733
C           -4.36903054815605       -4.35457340333831       -0.84726217354963
C           -3.72089224040908       -3.64130070910369       -1.84252619574544
C           -3.26181473790575       -2.36130634208164       -1.58879511765971
C           -3.12941298154870        1.06824555723707       -1.52114160325946
C           -2.20708386653652        2.00891060989403       -1.97084104924841
C           -2.47819350578416        2.80868534351195       -3.06709149046633
C           -3.68385842105111        2.68193069654623       -3.73690583461322
C           -4.61329584188370        1.74985408675989       -3.30473762934627
C           -4.33554561367598        0.95298928775718       -2.20856909516322
C           -3.61481014944946        0.70422448136241        1.53620610000104
C           -4.71108328017602        1.55597942026079        1.43796803762606
C           -5.33083257768744        2.05631557990612        2.56957905519131
C           -4.86256212414241        1.71104948131845        3.82660358367496
C           -3.77040457584309        0.86660828065356        3.94341940463397
C           -3.15513582461678        0.37039934989437        2.80811950643948
C           -0.26782981420881        0.97286585576167        0.94895314764086
C            1.09851619245840        0.95956126713872        1.14673728778426
H            5.79606210392055        1.67302755621671        1.64970084304373
H            6.74750232224358        3.69910606332543        0.56992699760041
H            5.68806757512789        4.60676605209864       -1.46602057086739
H            3.69939965956419        3.50593716621902       -2.42084744660497
H            2.76262143909647        1.49316173672542       -1.34133341662608
H            3.88791487523401       -0.74529042069595       -1.80964785546505
H            4.98691329289255       -2.64235686895127       -2.94694260996708
H            6.14173321266923       -4.37232296889381       -1.62268247561083
H            6.20312522448996       -4.21149869689998        0.83930720303044
H            5.09140306027852       -2.29789005094146        1.97284904460125
H            1.82287310146029       -2.01616954798668       -0.28904346743455
H           -0.61501191516913       -1.98360796608570       -0.63177785674853
H           -4.24366116142182       -2.05441276763571        1.61972738674152
H           -5.06328644532359       -4.32907835540265        1.17800586708415
H           -4.73008948514552       -5.35431457602495       -1.04282033745160
H           -3.57555889795962       -4.08452875251573       -2.81784585097712
H           -2.76473590560314       -1.80687968418272       -2.37265514015105
H           -1.26261436863597        2.11164232142034       -1.45563712271276
H           -1.74832350319254        3.53297555062996       -3.40091540957319
H           -3.89789415693434        3.30519932461317       -4.59352736018243
H           -5.55534429829390        1.64473266300777       -3.82448977930735
H           -5.06250223272483        0.22320146976161       -1.88036053994374
H           -5.07937712547784        1.83243359693427        0.46046515399213
H           -6.18077045612645        2.71724304915092        2.47264723900806
H           -5.34486759077332        2.09978288458483        4.71221328533270
H           -3.39818705726064        0.59536150210290        4.92158234888289
H           -2.30025646307209       -0.28444545072686        2.90737242461228
H           -0.85243084792088        1.80846903028556        1.30698078594027
H            1.59901321023000        1.77408549169232        1.65647017601514

          :  Hamiltonian                  GFN2-xTB          :
         :: gradient norm              0.000108702481 Eh/a0 ::
         :: HOMO-LUMO gap              3.500025110337 eV    ::
         :: SCC energy              -102.063551566902 Eh    ::
         :: -> dispersion             -0.092402934214 Eh    ::
         :: -> Gsolv                  -0.048705102167 Eh    ::
         :: repulsion energy           1.866419975015 Eh    ::

    * Orbital Energies and Occupations

         #    Occupation            Energy/Eh            Energy/eV
      -------------------------------------------------------------
         1        2.0000           -0.7562638             -20.5790
       ...           ...                  ...                  ...
        82        2.0000           -0.4129704             -11.2375
        83        2.0000           -0.4119313             -11.2092
        84        2.0000           -0.4111079             -11.1868
        85        2.0000           -0.4053325             -11.0297
        86        2.0000           -0.4037779             -10.9874
        87        2.0000           -0.4031728             -10.9709
        88        2.0000           -0.4027197             -10.9586
        89        2.0000           -0.4019428             -10.9374
        90        2.0000           -0.4015924             -10.9279
        91        2.0000           -0.4014960             -10.9253
        92        2.0000           -0.3871280             -10.5343
        93        2.0000           -0.3857513             -10.4968
        94        2.0000           -0.3849111             -10.4740 (HOMO)
        95                         -0.2562876              -6.9739 (LUMO)
        96                         -0.2531292              -6.8880
        97                         -0.2406658              -6.5488
        98                         -0.2400665              -6.5325
        99                         -0.2369340              -6.4473
       100                         -0.2354098              -6.4058
       101                         -0.2349059              -6.3921
       102                         -0.2315722              -6.3014
       103                         -0.2293196              -6.2401
       104                         -0.2213822              -6.0241
       105                         -0.2201899              -5.9917
       ...                                ...                  ...
       195                          1.1823687              32.1739
      -------------------------------------------------------------
                  HL-Gap            0.1286235 Eh            3.5000 eV

     #   Z          covCN         q      C6AA      α(0)
     1   8 O        0.808    -0.403    21.758     6.253
     2  15 P        4.074     0.057   157.731    22.560
     3   6 C        2.920     0.010    27.801     8.647
     4   6 C        3.024    -0.020    28.469     8.752
     5   6 C        2.918    -0.027    28.666     8.780
     6   6 C        2.920    -0.024    28.603     8.770
     7   6 C        2.919    -0.027    28.666     8.780
     8   6 C        2.974    -0.025    28.617     8.775
     9   6 C        2.921     0.011    27.782     8.644
    10   6 C        2.981    -0.026    28.637     8.778
    11   6 C        2.919    -0.027    28.671     8.781
    12   6 C        2.920    -0.024    28.597     8.769
    13   6 C        2.919    -0.027    28.669     8.780
    14   6 C        3.018    -0.019    28.469     8.752
    15   6 C        2.921     0.011    27.767     8.641
    16   6 C        2.966    -0.026    28.650     8.780
    17   6 C        2.935    -0.031    28.775     8.797
    18   6 C        2.862    -0.088    30.207     9.009
    19  14 Si       3.609     0.491    98.191    19.024
    20   6 C        2.862    -0.091    30.285     9.020
    21   6 C        2.935    -0.032    28.806     8.802
    22   6 C        2.917    -0.030    28.758     8.794
    23   6 C        2.920    -0.029    28.726     8.789
    24   6 C        2.917    -0.031    28.769     8.796
    25   6 C        2.937    -0.032    28.795     8.801
    26   6 C        2.862    -0.090    30.263     9.017
    27   6 C        2.935    -0.032    28.802     8.802
    28   6 C        2.917    -0.030    28.755     8.793
    29   6 C        2.920    -0.029    28.723     8.789
    30   6 C        2.917    -0.030    28.761     8.794
    31   6 C        2.937    -0.031    28.778     8.798
    32   6 C        2.862    -0.091    30.290     9.021
    33   6 C        2.935    -0.033    28.814     8.803
    34   6 C        2.917    -0.030    28.760     8.794
    35   6 C        2.920    -0.029    28.725     8.789
    36   6 C        2.917    -0.031    28.765     8.795
    37   6 C        2.937    -0.031    28.779     8.798
    38   6 C        2.936    -0.029    28.733     8.791
    39   6 C        3.029    -0.020    28.477     8.753
    40   1 H        0.925     0.045     2.388     2.417
    41   1 H        0.926     0.044     2.401     2.423
    42   1 H        0.926     0.047     2.359     2.402
    43   1 H        0.926     0.046     2.364     2.404
    44   1 H        0.926     0.041     2.431     2.438
    45   1 H        0.926     0.047     2.361     2.403
    46   1 H        0.926     0.047     2.363     2.404
    47   1 H        0.926     0.047     2.360     2.402
    48   1 H        0.926     0.044     2.399     2.422
    49   1 H        0.925     0.048     2.342     2.393
    50   1 H        0.925     0.035     2.510     2.477
    51   1 H        0.926     0.036     2.504     2.475
    52   1 H        0.926     0.023     2.684     2.562
    53   1 H        0.926     0.029     2.605     2.524
    54   1 H        0.926     0.030     2.586     2.515
    55   1 H        0.926     0.030     2.589     2.516
    56   1 H        0.926     0.024     2.667     2.554
    57   1 H        0.926     0.022     2.698     2.568
    58   1 H        0.926     0.029     2.595     2.519
    59   1 H        0.926     0.030     2.579     2.512
    60   1 H        0.926     0.030     2.590     2.517
    61   1 H        0.926     0.023     2.686     2.563
    62   1 H        0.926     0.025     2.657     2.549
    63   1 H        0.926     0.030     2.591     2.517
    64   1 H        0.926     0.030     2.588     2.516
    65   1 H        0.926     0.028     2.618     2.530
    66   1 H        0.925     0.020     2.735     2.586
    67   1 H        0.926     0.033     2.544     2.494
    68   1 H        0.925     0.034     2.529     2.487

molecular dipole:
                 x           y           z       tot (Debye)
 q only:       -0.630       0.039      -2.060
   full:       -0.564       0.031      -2.094       5.512

 projected vibrational frequencies (cm⁻¹)
eigval :       -0.00    -0.00     0.00     0.00     0.00     0.00
eigval :        7.47    14.09    23.06    25.67    29.04    30.42
eigval :       34.25    36.20    40.20    41.94    43.24    44.94
eigval :       48.11    52.42    60.75   113.70   126.55   151.28
eigval :      152.02   160.99   169.29   173.97   190.73   205.66
eigval :      212.80   218.52   224.99   228.23   263.03   281.47
eigval :      288.08   303.59   352.49   357.75   359.07   361.13
eigval :      363.93   366.54   371.96   407.21   415.79   419.79
eigval :      422.75   443.22   459.75   479.39   479.74   499.23
eigval :      510.34   558.51   584.92   586.36   588.84   589.42
eigval :      590.34   599.56   656.41   660.11   662.93   663.35
eigval :      663.75   667.10   670.41   687.19   704.07   707.02
eigval :      714.28   731.87   733.33   734.23   738.33   743.98
eigval :      763.24   785.18   874.16   876.30   878.14   880.28
eigval :      881.82   882.68   903.07   904.06   904.89   906.31
eigval :      907.36   917.12   925.78   926.89   928.25   929.08
eigval :      931.30   931.91   933.25   933.64   933.92   934.50
eigval :      934.60   971.80   974.42   974.49   976.04   976.14
eigval :      995.42  1075.32  1077.16  1082.99  1083.85  1084.45
eigval :     1109.61  1114.14  1119.13  1119.25  1119.61  1121.56
eigval :     1124.40  1127.92  1133.24  1141.54  1147.24  1147.81
eigval :     1149.34  1177.07  1178.26  1180.58  1181.12  1182.59
eigval :     1187.08  1190.75  1199.08  1204.27  1205.43  1208.83
eigval :     1216.62  1266.04  1268.67  1271.97  1284.74  1285.75
eigval :     1288.67  1308.36  1308.85  1309.37  1311.14  1319.83
eigval :     1320.79  1374.94  1416.99  1418.11  1419.20  1421.74
eigval :     1423.01  1450.41  1451.89  1458.02  1461.20  1461.82
eigval :     1462.93  1557.59  1573.95  1574.43  1574.82  1580.34
eigval :     1581.18  1581.98  1584.26  1585.61  1591.02  1591.18
eigval :     1592.44  3039.42  3057.93  3058.67  3060.05  3060.61
eigval :     3060.95  3061.33  3062.42  3064.49  3065.28  3067.57
eigval :     3067.79  3068.22  3068.82  3070.46  3072.35  3072.73
eigval :     3074.07  3074.73  3076.16  3078.41  3079.61  3081.49
eigval :     3081.65  3082.19  3083.14  3084.45  3091.89  3092.73

   temp. (K)  partition function   enthalpy   heat capacity  entropy
                                   cal/mol     cal/K/mol   cal/K/mol   J/K/mol
 298.15  VIB  0.181E+19            20758.148    120.729    132.574
         ROT  0.518E+08              888.752      2.981     38.280
         INT  0.938E+26            21646.901    123.710    170.854
         TR   0.120E+29             1481.254      4.968     44.706
         TOT                       23128.1547   128.6783   215.5604   901.9048

       T/K    H(0)-H(T)+PV         H(T)/Eh          T*S/Eh         G(T)/Eh
   ------------------------------------------------------------------------
    298.15    0.368571E-01    0.560522E+00    0.102420E+00    0.458102E+00
   ------------------------------------------------------------------------

         :::::::::::::::::::::::::::::::::::::::::::::::::::::
         ::                  THERMODYNAMIC                  ::
         :::::::::::::::::::::::::::::::::::::::::::::::::::::
         :: total free energy         -99.739029631004 Eh   ::
         ::.................................................::
         :: total energy             -100.197131592079 Eh   ::
         :: zero point energy           0.523664616586 Eh   ::
         :: G(RRHO) w/o ZPVE           -0.065562655510 Eh   ::
         :: G(RRHO) contrib.            0.458101961075 Eh   ::
         :::::::::::::::::::::::::::::::::::::::::::::::::::::

           -------------------------------------------------
          | TOTAL ENERGY             -100.197131592079 Eh   |
          | TOTAL ENTHALPY            -99.636609914993 Eh   |
          | TOTAL FREE ENERGY         -99.739029631004 Eh   |
          | GRADIENT NORM               0.000108084424 Eh/α |
          | HOMO-LUMO GAP               3.500023312234 eV   |
           -------------------------------------------------

 * finished run on 2025/08/24 at 19:03:25.207
