   * xtb version 6.7.1 (edcfbbe) compiled by 'albert@albert-system' on 2024-07-22

   ID    Z sym.   atoms
    1    9 F      1, 20
    2    6 C      2-4, 6-11, 13-19, 21, 22, 24-29, 31-36
    3    7 N      5, 23
    4   16 S      12, 30
    5    1 H      37-54

          program call               : xtb data2507/gas/2PS-2FPh/2PS-2FPh_gas_S0_finalOpt.xtbopt.xyz --gfn 2 --spinpol --tblite --uhf 2 --ohess vtight --parallel 40 --molden --ceasefiles --namespace data2507/gas/2PS-2FPh/2PS-2FPh_gas_T1_preOpt
 * total energy  :   -95.1473348 Eh     change       -0.1478209E-07 Eh
 * total energy  :   -95.1530426 Eh     change       -0.5707853E-02 Eh
 * total energy  :   -95.1552224 Eh     change       -0.2179815E-02 Eh
 * total energy  :   -95.1554370 Eh     change       -0.2145223E-03 Eh
 * total energy  :   -95.1556338 Eh     change       -0.1968040E-03 Eh
 * total energy  :   -95.1557023 Eh     change       -0.6857920E-04 Eh
 * total energy  :   -95.1557923 Eh     change       -0.8995860E-04 Eh
 * total energy  :   -95.1558434 Eh     change       -0.5108753E-04 Eh
 * total energy  :   -95.1558761 Eh     change       -0.3270542E-04 Eh
 * total energy  :   -95.1559026 Eh     change       -0.2653833E-04 Eh
 * total energy  :   -95.1564888 Eh     change       -0.1867423E-05 Eh
 * total energy  :   -95.1564903 Eh     change       -0.1471623E-05 Eh
 * total energy  :   -95.1564912 Eh     change       -0.9238435E-06 Eh
 * total energy  :   -95.1564918 Eh     change       -0.6074783E-06 Eh
 * total energy  :   -95.1564924 Eh     change       -0.5434813E-06 Eh
 * total energy  :   -95.1564927 Eh     change       -0.3476186E-06 Eh
 * total energy  :   -95.1564929 Eh     change       -0.2098605E-06 Eh
 * total energy  :   -95.1564931 Eh     change       -0.2045227E-06 Eh
 * total energy  :   -95.1564932 Eh     change       -0.8144481E-07 Eh
   *** GEOMETRY OPTIMIZATION CONVERGED AFTER 55 ITERATIONS ***

 final structure:
================
54
 xtb: 6.7.1 (edcfbbe)
F           -1.34003903134152       -0.95067023207651        2.17937073742524
C           -0.69356777840109       -0.56231763669429        1.05348825486850
C            0.68104754416784       -0.50481512625797        1.14087461990919
C            1.43951995363695       -0.04830071161876        0.06062395840006
N            2.86096679863551        0.00983412880205        0.11263683965171
C            3.42373731492723        1.16642549155550        0.58874540475203
C            2.63246538061814        2.15478368315814        1.19849717797306
C            3.17432960224145        3.31656841157757        1.68017331625469
C            4.56163703410265        3.57139766825420        1.54596462350113
C            5.35556170884516        2.65165780549877        0.92236558701306
C            4.83139595074433        1.43801732663610        0.45548703242030
S            5.87348135390556        0.43272661378686       -0.48969274394731
C            4.95979972635155       -1.02668306049773       -0.64220587668492
C            5.60100859309912       -2.13596472487174       -1.21061779361046
C            4.91520436808451       -3.28383886934277       -1.48859463669605
C            3.52116067445961       -3.34028452702386       -1.23763131467536
C            2.86541367242669       -2.25515005426531       -0.72098198088141
C            3.54194477429246       -1.06763849713499       -0.39285840303461
C            0.74848294489461        0.37448267130909       -1.06761377281568
F            1.44567649734291        0.86923178811917       -2.11161376987313
C           -0.62181812968201        0.31204545987447       -1.16147475200039
C           -1.40271461677130       -0.20717981554126       -0.10642665622301
N           -2.76942867916766       -0.27913017171271       -0.21348040259706
C           -3.61251218914744       -0.84718785873234        0.76752044338751
C           -3.46813854453930       -2.16825528116106        1.17558134774627
C           -4.31599393136974       -2.69275062515625        2.13208663301885
C           -5.33142889356285       -1.91662252423490        2.66899506564023
C           -5.51890136479198       -0.61857361745509        2.22900815550170
C           -4.66626459973248       -0.09039694552677        1.27476369132767
S           -4.91975934359110        1.55011148003956        0.64553580014427
C           -4.51613161034165        1.17268292613501       -1.04019650335208
C           -5.23704263127851        1.74116436981771       -2.07694883867999
C           -4.95070924608520        1.39144243418525       -3.38491910952271
C           -3.97723272845521        0.44010711541275       -3.64972932356656
C           -3.25870063261841       -0.13137687890827       -2.61610196985060
C           -3.48792239691845        0.26654716358674       -1.30177897150455
H            1.16148502698207       -0.79912196173044        2.05969867319220
H            1.57233301707166        1.98337259510888        1.30372407730657
H            2.54199341741382        4.04617886203949        2.15961957924800
H            4.97800913874050        4.48956427247888        1.92741575555333
H            6.41162553586767        2.82967615823898        0.78391826739966
H            6.65974768898974       -2.05807284483468       -1.40838331287812
H            5.42137850544403       -4.14198422822584       -1.89992680618593
H            2.97587248039263       -4.24319448105741       -1.46064708768030
H            1.80273132224888       -2.31444695562269       -0.54166861619941
H           -1.08828911649041        0.69604977720042       -2.05167193168679
H           -2.67282183378435       -2.76649830620626        0.75651022850987
H           -4.18439941414406       -3.71279326017437        2.45853552567191
H           -5.98741015107224       -2.32624719688049        3.42137666478931
H           -6.31655140536400       -0.00699500627103        2.62128074934268
H           -6.01458191863361        2.45352665575869       -1.84930024562216
H           -5.50301700617926        1.84318017133174       -4.19403423249105
H           -3.77914336986572        0.13705179396219       -4.66646228552682
H           -2.51741654504426       -0.88940195296718       -2.81962643561647

 projected vibrational frequencies (cm⁻¹)
eigval :       -0.00    -0.00     0.00     0.00     0.00     0.00
eigval :        3.08    16.85    21.98    29.80    48.19    50.04
eigval :       59.48    67.38    78.71   101.69   110.71   130.53
eigval :      140.33   151.44   176.76   188.13   202.91   208.83
eigval :      216.78   245.27   262.58   274.08   292.85   324.72
eigval :      334.66   346.55   355.40   361.60   363.32   365.13
eigval :      366.02   403.03   410.38   415.32   417.14   422.81
eigval :      425.24   430.36   446.98   462.35   469.20   480.06
eigval :      493.84   515.09   521.11   559.56   566.33   591.68
eigval :      594.93   595.15   598.65   622.25   627.65   636.71
eigval :      655.09   661.96   683.42   688.19   696.69   710.91
eigval :      715.84   733.49   736.27   762.56   774.70   779.75
eigval :      814.81   829.84   832.69   833.71   841.63   877.79
eigval :      879.82   882.85   883.74   884.53   894.20   894.41
eigval :      897.50   910.57   911.16   922.28   927.35   935.99
eigval :     1013.11  1030.48  1038.90  1044.79  1051.94  1058.62
eigval :     1084.01  1084.92  1108.72  1136.80  1137.88  1149.27
eigval :     1153.81  1164.74  1168.61  1169.30  1174.89  1176.92
eigval :     1184.28  1202.81  1206.33  1212.87  1228.36  1239.71
eigval :     1244.37  1276.66  1285.16  1314.54  1316.23  1323.24
eigval :     1326.12  1328.16  1330.33  1363.35  1382.09  1406.29
eigval :     1407.37  1416.49  1421.47  1431.52  1436.39  1439.18
eigval :     1440.47  1445.21  1457.92  1470.85  1488.93  1498.63
eigval :     1500.66  1530.37  1548.25  1554.36  1557.08  1580.30
eigval :     3084.16  3084.58  3085.27  3085.87  3090.78  3090.87
eigval :     3092.79  3094.53  3098.32  3099.20  3101.68  3103.23
eigval :     3105.50  3106.71  3110.72  3111.88  3120.75  3140.34

   temp. (K)  partition function   enthalpy   heat capacity  entropy
                                   cal/mol     cal/K/mol   cal/K/mol   J/K/mol
 298.15  VIB  0.149E+14            16877.439    107.167    104.814
         ROT  0.367E+08              888.752      2.981     37.594
         INT  0.545E+21            17766.191    110.148    142.408
         TR   0.111E+29             1481.254      4.968     44.546
         TOT                       19247.4452   115.1165   186.9540   782.2155

       T/K    H(0)-H(T)+PV         H(T)/Eh          T*S/Eh         G(T)/Eh
   ------------------------------------------------------------------------
    298.15    0.306728E-01    0.412509E+00    0.888279E-01    0.323681E+00
   ------------------------------------------------------------------------

         :::::::::::::::::::::::::::::::::::::::::::::::::::::
         ::                  THERMODYNAMIC                  ::
         :::::::::::::::::::::::::::::::::::::::::::::::::::::
         :: total free energy         -94.832812434543 Eh   ::
         ::.................................................::
         :: total energy              -95.156493227019 Eh   ::
         :: zero point energy           0.381835908648 Eh   ::
         :: G(RRHO) w/o ZPVE           -0.058155116172 Eh   ::
         :: G(RRHO) contrib.            0.323680792476 Eh   ::
         :::::::::::::::::::::::::::::::::::::::::::::::::::::

           -------------------------------------------------
          | TOTAL ENERGY              -95.156493227019 Eh   |
          | TOTAL ENTHALPY            -94.743984562041 Eh   |
          | TOTAL FREE ENERGY         -94.832812434543 Eh   |
          | GRADIENT NORM               0.000102567904 Eh/α |
           -------------------------------------------------

 * finished run on 2025/08/24 at 17:41:49.540
