   * xtb version 6.7.1 (edcfbbe) compiled by 'albert@albert-system' on 2024-07-22

   ID    Z sym.   atoms
    1    9 F      1, 20
    2    6 C      2-4, 6-11, 13-19, 21, 22, 24-29, 31-36
    3    7 N      5, 23
    4   16 S      12, 30
    5    1 H      37-54

          program call               : xtb data2507/gas/2PS-2FPh/2PS-2FPh.xyz --gfn 2 --ohess vtight --parallel 40 --molden --ceasefiles --namespace data2507/gas/2PS-2FPh/2PS-2FPh_gas_S0_preOpt
          :  Hamiltonian                  GFN2-xTB          :
 * total energy  :   -95.2230030 Eh     change       -0.4521965E-08 Eh
 * total energy  :   -95.2367668 Eh     change       -0.1376382E-01 Eh
 * total energy  :   -95.2415986 Eh     change       -0.4831756E-02 Eh
 * total energy  :   -95.2426834 Eh     change       -0.1084798E-02 Eh
 * total energy  :   -95.2433095 Eh     change       -0.6261035E-03 Eh
 * total energy  :   -95.2436229 Eh     change       -0.3133615E-03 Eh
 * total energy  :   -95.2437933 Eh     change       -0.1704785E-03 Eh
 * total energy  :   -95.2438866 Eh     change       -0.9325761E-04 Eh
 * total energy  :   -95.2439481 Eh     change       -0.6146821E-04 Eh
 * total energy  :   -95.2439658 Eh     change       -0.1772092E-04 Eh
 * total energy  :   -95.2441638 Eh     change       -0.4305631E-06 Eh
 * total energy  :   -95.2441642 Eh     change       -0.4018821E-06 Eh
 * total energy  :   -95.2441646 Eh     change       -0.3801665E-06 Eh
 * total energy  :   -95.2441649 Eh     change       -0.3518000E-06 Eh
 * total energy  :   -95.2441652 Eh     change       -0.3370235E-06 Eh
 * total energy  :   -95.2441656 Eh     change       -0.3127370E-06 Eh
 * total energy  :   -95.2441659 Eh     change       -0.3054086E-06 Eh
 * total energy  :   -95.2441662 Eh     change       -0.2873844E-06 Eh
 * total energy  :   -95.2441662 Eh     change       -0.2926882E-08 Eh
   *** GEOMETRY OPTIMIZATION CONVERGED AFTER 68 ITERATIONS ***

 final structure:
================
54
 xtb: 6.7.1 (edcfbbe)
F           -1.48253501259119        0.00084578971414        2.27006186349045
C           -0.74900346837682        0.00049481102152        1.14640769981199
C            0.62959233675696        0.00049110895384        1.24343117715841
C            1.39995188932012        0.00010549677680        0.08826339588903
N            2.81504920749697        0.00007439849168        0.17511478238694
C            3.45887236173575        1.23676112806062        0.07174689191593
C            2.71028379386733        2.39963803784846       -0.10790397846900
C            3.31480056685036        3.64069407548524       -0.20632607097577
C            4.68978362055081        3.75401796637366       -0.13715193559892
C            5.44874794362016        2.61210760516380        0.04615684113923
C            4.84576657639859        1.37016964481500        0.16123896789863
S            5.91979071993036        0.00003619217279        0.47706661397931
C            4.84565418403981       -1.37019520949573        0.16204757442850
C            5.44853403485801       -2.61224987899986        0.04769563137707
C            4.68947586448085       -3.75420749573868       -0.13492892644744
C            3.31450102815837       -3.64081421267610       -0.20415057063049
C            2.71008577761757       -2.39965112991591       -0.10646004490109
C            3.45877003831444       -1.23672708922252        0.07248567582027
C            0.74901229371125       -0.00025704837874       -1.14635329887795
F            1.48254459134463       -0.00062505929940       -2.27000688493803
C           -0.62958316605974       -0.00023687267842       -1.24337664089955
C           -1.39994307881176        0.00014150468491       -0.08820909773549
N           -2.81503934569397        0.00012895726011       -0.17506883574657
C           -3.45875078181128       -1.23668369317141       -0.07252544463122
C           -2.71006318835294       -2.39958605894882        0.10655224249266
C           -3.31445929679221       -3.64076813431857        0.20412308619505
C           -4.68942013961531       -3.75419820905570        0.13467567011225
C           -5.44848486503847       -2.61225320244567       -0.04800077614348
C           -4.84562217486104       -1.37017906030284       -0.16223468840486
S           -5.91975655386661        0.00006017169295       -0.47721992778382
C           -4.84577649849841        1.37018487915412       -0.16119429296340
C           -5.44879085487830        2.61210077371741       -0.04605324965804
C           -4.68985639071340        3.75402129170385        0.13731704925446
C           -3.31486826662172        3.64073375679352        0.20644340746057
C           -2.71031866776609        2.39969863873420        0.10796157546904
C           -3.45888073247260        1.23680359690678       -0.07167499621011
H            1.10325447497329        0.00076376622654        2.21222398421440
H            1.63426398486301        2.33975269978177       -0.16570218523957
H            2.69899367848317        4.51679336324253       -0.33990792571160
H            5.17008213538985        4.71605036460363       -0.21837620544295
H            6.52428401964316        2.66895310859461        0.11529443269391
H            6.52406629260311       -2.66914119314611        0.11685559995316
H            5.16969580497569       -4.71632682580601       -0.21558664280564
H            2.69862136968307       -4.51694419249297       -0.33719477108176
H            1.63406959850045       -2.33971474980229       -0.16427061062039
H           -1.10324535912464       -0.00053022035426       -2.21216938465763
H           -1.63406092211090       -2.33960918083883        0.16458201318064
H           -2.69857836069730       -4.51688161739751        0.33726986884900
H           -5.16962568334764       -4.71633290937331        0.21523518696876
H           -6.52400776070679       -2.66916788282979       -0.11728530536130
H           -6.52432712133310        2.66892412952574       -0.11520729731026
H           -5.17017980990907        4.71603722165620        0.21858955015897
H           -2.69908100939204        4.51684788416315        0.34001846125327
H           -1.63429267872363        2.33985276336978        0.16568174569435

          :  Hamiltonian                  GFN2-xTB          :
         :: gradient norm              0.000042481830 Eh/a0 ::
         :: HOMO-LUMO gap              1.739050730173 eV    ::
         :: SCC energy               -96.754171236327 Eh    ::
         :: -> dispersion             -0.081710566015 Eh    ::
         :: repulsion energy           1.510005078341 Eh    ::

    * Orbital Energies and Occupations

         #    Occupation            Energy/Eh            Energy/eV
      -------------------------------------------------------------
         1        2.0000           -0.8481923             -23.0805
       ...           ...                  ...                  ...
        75        2.0000           -0.4391381             -11.9496
        76        2.0000           -0.4344251             -11.8213
        77        2.0000           -0.4306674             -11.7191
        78        2.0000           -0.4305322             -11.7154
        79        2.0000           -0.4301498             -11.7050
        80        2.0000           -0.4221915             -11.4884
        81        2.0000           -0.4221525             -11.4874
        82        2.0000           -0.4189519             -11.4003
        83        2.0000           -0.4187202             -11.3940
        84        2.0000           -0.3893192             -10.5939
        85        2.0000           -0.3891003             -10.5880
        86        2.0000           -0.3482716              -9.4770
        87        2.0000           -0.3479985              -9.4695 (HOMO)
        88                         -0.2840895              -7.7305 (LUMO)
        89                         -0.2743687              -7.4660
        90                         -0.2489924              -6.7754
        91                         -0.2489159              -6.7733
        92                         -0.2381991              -6.4817
        93                         -0.2380995              -6.4790
        94                         -0.2326188              -6.3299
        95                         -0.2325869              -6.3290
        96                         -0.2094861              -5.7004
        97                         -0.2092830              -5.6949
        98                         -0.2017595              -5.4902
       ...                                ...                  ...
       172                          0.6633395              18.0504
      -------------------------------------------------------------
                  HL-Gap            0.0639089 Eh            1.7391 eV

     #   Z          covCN         q      C6AA      α(0)
     1   9 F        0.787    -0.198    11.220     3.957
     2   6 C        2.783     0.159    24.557     8.117
     3   6 C        2.922    -0.061    29.513     8.909
     4   6 C        2.932     0.061    26.640     8.465
     5   7 N        2.748    -0.067    22.543     7.052
     6   6 C        2.944     0.061    26.625     8.463
     7   6 C        2.928    -0.055    29.373     8.888
     8   6 C        2.919    -0.033    28.810     8.802
     9   6 C        2.918    -0.037    28.921     8.819
    10   6 C        2.988    -0.038    28.943     8.825
    11   6 C        2.971     0.035    27.209     8.556
    12  16 S        2.137    -0.140   146.943    20.402
    13   6 C        2.971     0.035    27.209     8.556
    14   6 C        2.988    -0.038    28.943     8.825
    15   6 C        2.918    -0.037    28.921     8.819
    16   6 C        2.919    -0.033    28.810     8.802
    17   6 C        2.928    -0.055    29.373     8.888
    18   6 C        2.944     0.061    26.625     8.463
    19   6 C        2.783     0.159    24.557     8.117
    20   9 F        0.787    -0.198    11.220     3.957
    21   6 C        2.922    -0.061    29.513     8.909
    22   6 C        2.932     0.061    26.640     8.465
    23   7 N        2.748    -0.067    22.543     7.052
    24   6 C        2.944     0.061    26.625     8.463
    25   6 C        2.928    -0.055    29.374     8.888
    26   6 C        2.919    -0.033    28.810     8.802
    27   6 C        2.918    -0.037    28.921     8.819
    28   6 C        2.988    -0.038    28.943     8.825
    29   6 C        2.971     0.035    27.209     8.556
    30  16 S        2.137    -0.140   146.944    20.402
    31   6 C        2.971     0.035    27.209     8.556
    32   6 C        2.988    -0.038    28.943     8.825
    33   6 C        2.918    -0.037    28.921     8.819
    34   6 C        2.919    -0.033    28.810     8.802
    35   6 C        2.928    -0.055    29.373     8.888
    36   6 C        2.944     0.061    26.625     8.463
    37   1 H        0.926     0.088     1.899     2.155
    38   1 H        0.926     0.023     2.695     2.567
    39   1 H        0.926     0.037     2.489     2.467
    40   1 H        0.926     0.040     2.454     2.450
    41   1 H        0.926     0.047     2.355     2.400
    42   1 H        0.926     0.047     2.355     2.400
    43   1 H        0.926     0.040     2.454     2.450
    44   1 H        0.926     0.037     2.489     2.467
    45   1 H        0.926     0.023     2.695     2.567
    46   1 H        0.926     0.088     1.899     2.155
    47   1 H        0.926     0.023     2.695     2.567
    48   1 H        0.926     0.037     2.489     2.467
    49   1 H        0.926     0.040     2.454     2.450
    50   1 H        0.926     0.047     2.355     2.400
    51   1 H        0.926     0.047     2.355     2.400
    52   1 H        0.926     0.040     2.454     2.450
    53   1 H        0.926     0.037     2.489     2.467
    54   1 H        0.926     0.023     2.695     2.567

molecular dipole:
                 x           y           z       tot (Debye)
 q only:       -0.000       0.000       0.000
   full:       -0.000      -0.000       0.000       0.000

 projected vibrational frequencies (cm⁻¹)
eigval :       -0.00    -0.00    -0.00    -0.00    -0.00     0.00
eigval :       -9.42    -1.53    14.04    14.55    16.50    25.95
eigval :       41.68    64.86    97.83   100.36   108.13   117.52
eigval :      130.39   139.18   196.30   205.19   206.08   227.13
eigval :      227.15   239.79   264.93   272.95   273.08   310.19
eigval :      324.89   339.77   342.24   371.26   372.33   408.17
eigval :      408.54   410.04   410.60   415.36   418.52   423.77
eigval :      436.66   458.94   483.81   487.89   491.13   491.23
eigval :      495.58   499.46   512.00   569.25   578.83   583.98
eigval :      622.40   640.86   643.36   648.13   649.29   649.51
eigval :      650.95   660.89   666.10   698.04   705.64   712.21
eigval :      724.91   767.05   767.43   768.98   770.30   770.36
eigval :      846.58   856.83   857.50   858.83   859.01   862.77
eigval :      874.56   900.22   900.49   900.58   900.91   905.71
eigval :      909.81   914.98   915.19   915.35   915.55   930.35
eigval :     1034.17  1042.26  1042.62  1046.51  1105.08  1105.66
eigval :     1106.04  1106.40  1128.61  1146.31  1153.42  1153.91
eigval :     1155.04  1163.10  1172.39  1180.85  1182.59  1185.07
eigval :     1187.07  1193.19  1243.81  1246.74  1248.82  1255.99
eigval :     1261.11  1266.92  1286.34  1315.89  1315.92  1317.89
eigval :     1318.99  1333.75  1334.51  1368.71  1405.44  1408.75
eigval :     1408.87  1421.42  1421.52  1464.53  1466.58  1472.48
eigval :     1479.55  1483.16  1545.72  1559.35  1559.45  1572.83
eigval :     1573.62  1576.82  1577.18  1585.39  1593.27  1596.55
eigval :     3086.65  3086.77  3087.31  3087.47  3093.48  3093.65
eigval :     3093.77  3093.90  3098.14  3098.74  3098.84  3099.37
eigval :     3108.34  3108.50  3108.65  3108.67  3117.74  3117.79

   temp. (K)  partition function   enthalpy   heat capacity  entropy
                                   cal/mol     cal/K/mol   cal/K/mol   J/K/mol
 298.15  VIB  0.812E+15            16766.463    104.158    106.307
         ROT  0.180E+08              888.752      2.981     36.183
         INT  0.146E+23            17655.215    107.139    142.490
         TR   0.111E+29             1481.254      4.968     44.546
         TOT                       19136.4688   112.1069   187.0364   782.5604

       T/K    H(0)-H(T)+PV         H(T)/Eh          T*S/Eh         G(T)/Eh
   ------------------------------------------------------------------------
    298.15    0.304959E-01    0.416068E+00    0.888670E-01    0.327201E+00
   ------------------------------------------------------------------------

         :::::::::::::::::::::::::::::::::::::::::::::::::::::
         ::                  THERMODYNAMIC                  ::
         :::::::::::::::::::::::::::::::::::::::::::::::::::::
         :: total free energy         -94.916965387554 Eh   ::
         ::.................................................::
         :: total energy              -95.244166157986 Eh   ::
         :: zero point energy           0.385571901489 Eh   ::
         :: G(RRHO) w/o ZPVE           -0.058371131058 Eh   ::
         :: G(RRHO) contrib.            0.327200770432 Eh   ::
         :::::::::::::::::::::::::::::::::::::::::::::::::::::

           -------------------------------------------------
          | TOTAL ENERGY              -95.244166157986 Eh   |
          | TOTAL ENTHALPY            -94.828098352283 Eh   |
          | TOTAL FREE ENERGY         -94.916965387554 Eh   |
          | GRADIENT NORM               0.000042483159 Eh/α |
          | HOMO-LUMO GAP               1.739050892870 eV   |
           -------------------------------------------------

 * finished run on 2025/08/24 at 17:39:18.749
