   * xtb version 6.7.1 (edcfbbe) compiled by 'albert@albert-system' on 2024-07-22

   ID    Z sym.   atoms
    1    9 F      1, 20
    2    6 C      2-4, 6-11, 13-19, 21, 22, 24-29, 31-36
    3    7 N      5, 23
    4   16 S      12, 30
    5    1 H      37-54

          program call               : xtb data2507/gas/2PS-2FPh/2PS-2FPh_gas_T1_crest.xyz --gfn 2 --spinpol --tblite --uhf 2 --ohess vtight --parallel 40 --molden --ceasefiles --namespace data2507/gas/2PS-2FPh/2PS-2FPh_gas_T1_finalOpt
 * total energy  :   -95.1616504 Eh     change       -0.1015624E-07 Eh
 * total energy  :   -95.1616557 Eh     change       -0.5310588E-05 Eh
 * total energy  :   -95.1616649 Eh     change       -0.9249315E-05 Eh
 * total energy  :   -95.1616745 Eh     change       -0.9506367E-05 Eh
 * total energy  :   -95.1616862 Eh     change       -0.1169433E-04 Eh
 * total energy  :   -95.1617046 Eh     change       -0.1847357E-04 Eh
 * total energy  :   -95.1617301 Eh     change       -0.2548995E-04 Eh
 * total energy  :   -95.1617429 Eh     change       -0.1275547E-04 Eh
 * total energy  :   -95.1617458 Eh     change       -0.2923944E-05 Eh
 * total energy  :   -95.1617485 Eh     change       -0.2752156E-05 Eh
 * total energy  :   -95.1618013 Eh     change       -0.9151463E-06 Eh
 * total energy  :   -95.1618021 Eh     change       -0.8389181E-06 Eh
 * total energy  :   -95.1618029 Eh     change       -0.7807551E-06 Eh
 * total energy  :   -95.1618036 Eh     change       -0.7549457E-06 Eh
 * total energy  :   -95.1618043 Eh     change       -0.6933174E-06 Eh
 * total energy  :   -95.1618050 Eh     change       -0.6252573E-06 Eh
 * total energy  :   -95.1618055 Eh     change       -0.4984237E-06 Eh
 * total energy  :   -95.1618058 Eh     change       -0.3941770E-06 Eh
 * total energy  :   -95.1618058 Eh     change       -0.4225015E-08 Eh
   *** GEOMETRY OPTIMIZATION CONVERGED AFTER 44 ITERATIONS ***

 final structure:
================
54
 xtb: 6.7.1 (edcfbbe)
F           -1.57343852155604       -0.00678672896580        2.27806518389467
C           -0.78540306614039       -0.00327926151070        1.17981115283454
C            0.57886160912243       -0.00254264463530        1.34041344208722
C            1.40242581344716        0.00091680882140        0.18395237347613
N            2.81894281710864        0.00280487725264        0.28748736285820
C            3.44825403111650        1.22682511461105        0.25702189194277
C            2.71459500205710        2.40208489376582        0.47452774261827
C            3.30493611592573        3.64086539536920        0.41784886556645
C            4.67055766288263        3.76383180809566        0.10958114526025
C            5.41250274644709        2.63377060767341       -0.11999539339205
C            4.83445794072802        1.36506711466152       -0.03263409410383
S            5.84802858618881        0.00284643525115       -0.41928749988233
C            4.83827274608935       -1.35728996153010       -0.01537435641476
C            5.42048399061639       -2.62523816804707       -0.08658153892975
C            4.68182613467611       -3.75472718893264        0.15583508989571
C            3.31537490145891       -3.63243047968931        0.45999364643606
C            2.72101605958143       -2.39475144753302        0.50089843499815
C            3.45148230764424       -1.22001165811602        0.27128971619024
C            0.79027208536097        0.00417973440677       -1.06937610806365
F            1.58140064857076        0.00797236109037       -2.16600263895424
C           -0.57234158691888        0.00370944165418       -1.22795095797626
C           -1.39662431233329       -0.00034560570686       -0.07227952193700
N           -2.81434728878385       -0.00090066704108       -0.18246647847865
C           -3.45406895009281       -1.23056877397321       -0.21408874732111
C           -2.69625304595599       -2.39944330456169       -0.34407001376717
C           -3.28860495051999       -3.64575884897726       -0.37088597452352
C           -4.66528658749780       -3.77060902192972       -0.26801778667973
C           -5.43413461496604       -2.63083534846483       -0.14197663627826
C           -4.84382691629071       -1.37468283421996       -0.11574841212221
S           -5.93927917717464       -0.00617752969260        0.07653358956464
C           -4.84622773692534        1.36788061412244       -0.08750338584450
C           -5.43849522245257        2.62335634428634       -0.08752273993117
C           -4.67162814336757        3.76660791973873       -0.19239462909728
C           -3.29502861577733        3.64593648757296       -0.30163848583303
C           -2.70073780338094        2.40029934554015       -0.30050808638737
C           -3.45637864425814        1.22794429274647       -0.19058969500083
H            1.02039822159812       -0.00446765102262        2.32203833885496
H            1.66310587126553        2.32303278309436        0.70280418684406
H            2.71516877225539        4.52376851763479        0.60653955372382
H            5.12748616791481        4.73860654811574        0.05290361993121
H            6.46153347717419        2.69835351251262       -0.36693146891392
H            6.46999241197996       -2.68945129350172       -0.33154568472899
H            5.14200474132150       -4.72864303229363        0.11187819528399
H            2.72790233620047       -4.51481820576311        0.65799426324240
H            1.66878416851722       -2.31661106411583        0.72585316636564
H           -1.01396758676511        0.00631825887661       -2.20955490983657
H           -1.62376433322975       -2.32138366024664       -0.42536828332337
H           -2.66853283574684       -4.52305289286809       -0.47247729793599
H           -5.13391797194254       -4.74161556440758       -0.28454894007385
H           -6.50828021631443       -2.69475433334623       -0.05658985172656
H           -6.51258164910329        2.68389711734097        0.00106385847214
H           -5.14174174228292        4.73703024377981       -0.18836194974188
H           -2.67663818497640        4.52603089493170       -0.38816136473702
H           -1.62838920679616        2.32532453274589       -0.38675308000790

 projected vibrational frequencies (cm⁻¹)
eigval :       -0.00    -0.00    -0.00     0.00     0.00     0.00
eigval :        5.96    14.07    14.69    22.58    23.52    34.97
eigval :       49.18    53.24    88.44    95.81   108.82   109.12
eigval :      121.75   132.62   181.24   198.79   203.76   213.70
eigval :      225.27   236.68   256.91   267.55   273.24   319.22
eigval :      324.38   344.53   358.16   363.05   369.03   375.89
eigval :      385.14   407.24   411.35   411.63   414.26   418.94
eigval :      422.66   445.72   451.52   465.08   472.96   479.68
eigval :      485.93   498.27   514.86   558.95   575.33   583.42
eigval :      600.71   604.75   615.00   616.84   619.99   635.59
eigval :      649.16   651.10   655.41   692.94   699.36   704.46
eigval :      717.17   746.07   748.80   753.17   765.57   769.76
eigval :      769.88   777.67   833.30   848.03   849.22   860.68
eigval :      860.74   887.65   889.15   889.30   897.55   898.09
eigval :      900.77   901.29   901.84   911.57   913.24   913.38
eigval :      961.86  1031.54  1036.21  1045.01  1068.66  1069.30
eigval :     1088.84  1099.76  1102.48  1119.90  1123.33  1149.77
eigval :     1152.08  1162.30  1166.85  1171.68  1172.26  1178.45
eigval :     1183.03  1186.44  1214.28  1216.78  1233.30  1235.94
eigval :     1239.87  1248.19  1254.36  1306.08  1315.14  1315.68
eigval :     1326.68  1328.39  1340.67  1353.50  1360.13  1370.86
eigval :     1376.28  1397.23  1404.12  1411.75  1417.61  1426.69
eigval :     1445.33  1447.59  1461.36  1463.79  1472.26  1478.73
eigval :     1504.38  1505.67  1543.99  1558.67  1561.80  1568.83
eigval :     3087.74  3088.56  3090.57  3090.85  3093.46  3093.90
eigval :     3094.72  3094.93  3103.65  3103.84  3106.07  3106.25
eigval :     3110.64  3111.02  3111.28  3111.37  3128.91  3130.93

   temp. (K)  partition function   enthalpy   heat capacity  entropy
                                   cal/mol     cal/K/mol   cal/K/mol   J/K/mol
 298.15  VIB  0.904E+14            17083.557    106.489    106.218
         ROT  0.360E+08              888.752      2.981     37.557
         INT  0.326E+22            17972.309    109.470    143.775
         TR   0.111E+29             1481.254      4.968     44.546
         TOT                       19453.5629   114.4380   188.3212   787.9361

       T/K    H(0)-H(T)+PV         H(T)/Eh          T*S/Eh         G(T)/Eh
   ------------------------------------------------------------------------
    298.15    0.310012E-01    0.411393E+00    0.894775E-01    0.321915E+00
   ------------------------------------------------------------------------

         :::::::::::::::::::::::::::::::::::::::::::::::::::::
         ::                  THERMODYNAMIC                  ::
         :::::::::::::::::::::::::::::::::::::::::::::::::::::
         :: total free energy         -94.839890459013 Eh   ::
         ::.................................................::
         :: total energy              -95.161805852117 Eh   ::
         :: zero point energy           0.380391669278 Eh   ::
         :: G(RRHO) w/o ZPVE           -0.058476276175 Eh   ::
         :: G(RRHO) contrib.            0.321915393104 Eh   ::
         :::::::::::::::::::::::::::::::::::::::::::::::::::::

           -------------------------------------------------
          | TOTAL ENERGY              -95.161805852117 Eh   |
          | TOTAL ENTHALPY            -94.750412957053 Eh   |
          | TOTAL FREE ENERGY         -94.839890459013 Eh   |
          | GRADIENT NORM               0.000033247549 Eh/α |
           -------------------------------------------------

 * finished run on 2025/08/24 at 17:44:53.290
