   * xtb version 6.7.1 (edcfbbe) compiled by 'albert@albert-system' on 2024-07-22

   ID    Z sym.   atoms
    1    9 F      1, 20
    2    6 C      2-4, 6-11, 13-19, 21, 22, 24-29, 31-36
    3    7 N      5, 23
    4   16 S      12, 30
    5    1 H      37-54

          program call               : xtb data2507/gas/2PS-2FPh/2PS-2FPh_gas_S0_crest.xyz --gfn 2 --ohess vtight --parallel 40 --molden --ceasefiles --namespace data2507/gas/2PS-2FPh/2PS-2FPh_gas_S0_finalOpt
          :  Hamiltonian                  GFN2-xTB          :
 * total energy  :   -95.2448400 Eh     change       -0.4951062E-09 Eh
 * total energy  :   -95.2448405 Eh     change       -0.5187823E-06 Eh
 * total energy  :   -95.2448413 Eh     change       -0.7561102E-06 Eh
 * total energy  :   -95.2448423 Eh     change       -0.1013248E-05 Eh
 * total energy  :   -95.2448433 Eh     change       -0.1038712E-05 Eh
 * total energy  :   -95.2448441 Eh     change       -0.7983593E-06 Eh
 * total energy  :   -95.2448448 Eh     change       -0.6758656E-06 Eh
 * total energy  :   -95.2448456 Eh     change       -0.7750509E-06 Eh
 * total energy  :   -95.2448467 Eh     change       -0.1117180E-05 Eh
 * total energy  :   -95.2448481 Eh     change       -0.1413509E-05 Eh
 * total energy  :   -95.2448502 Eh     change       -0.1908320E-06 Eh
 * total energy  :   -95.2448504 Eh     change       -0.2252712E-06 Eh
 * total energy  :   -95.2448507 Eh     change       -0.2899581E-06 Eh
 * total energy  :   -95.2448510 Eh     change       -0.3006284E-06 Eh
 * total energy  :   -95.2448513 Eh     change       -0.2874250E-06 Eh
 * total energy  :   -95.2448516 Eh     change       -0.2995275E-06 Eh
 * total energy  :   -95.2448519 Eh     change       -0.3573750E-06 Eh
 * total energy  :   -95.2448524 Eh     change       -0.4649031E-06 Eh
 * total energy  :   -95.2448524 Eh     change       -0.3993563E-08 Eh
   *** GEOMETRY OPTIMIZATION CONVERGED AFTER 22 ITERATIONS ***

 final structure:
================
54
 xtb: 6.7.1 (edcfbbe)
F           -1.34535984730256       -1.04227794100143        2.17872502626690
C           -0.69929740654301       -0.63775075289975        1.05951946725154
C            0.67531424955879       -0.57053609044169        1.14392166469690
C            1.43424249060902       -0.10219695712899        0.08119258347179
N            2.84927204315975       -0.03768412400319        0.17095862548489
C            3.40980500064157        1.17098958322952        0.58711501032212
C            2.58800291920382        2.26729897997385        0.85028855330667
C            3.10980681829267        3.47852055267159        1.26875614229992
C            4.47334230218000        3.63451292859149        1.42695171399676
C            5.30482299767671        2.55814537645963        1.17387580437419
C            4.78397149306661        1.33971817301302        0.77107673512127
S            5.94331328609315        0.01848392830850        0.56151389853250
C            4.96748939404098       -1.16404841674570       -0.32275422542722
C            5.65402808393534       -2.21401810678368       -0.90945325668256
C            4.97523395724870       -3.22667235985716       -1.56360371731873
C            3.59605256499218       -3.17651073291072       -1.62479723522090
C            2.90841353849159       -2.12029475780251       -1.05369200995171
C            3.57466708697271       -1.08561731025032       -0.39613105999033
C            0.73998198905309        0.31913419966322       -1.05021063123426
F            1.42510873919403        0.82233417361686       -2.09463745656656
C           -0.63142800780528        0.24255920065037       -1.14591871893175
C           -1.40869718870591       -0.27561205099776       -0.09968516337080
N           -2.77536747883436       -0.35166212225630       -0.20738834787934
C           -3.61942001346939       -0.89127554272198        0.79137161694807
C           -3.51028909046104       -2.21622546678017        1.19314339838761
C           -4.35291369285538       -2.71298994316880        2.16980115591343
C           -5.32613022466660       -1.90211977161863        2.73172899518225
C           -5.47801239475292       -0.59753563031545        2.29973109095939
C           -4.63140349293321       -0.09783822517380        1.32367854788908
S           -4.84550406150928        1.55240335478169        0.70599472834717
C           -4.47550666552667        1.18047866301230       -0.98763108496884
C           -5.18235311034684        1.79628113371587       -2.00907179962473
C           -4.92733927848159        1.45253031199473       -3.32355530779136
C           -3.99891349729733        0.46571367671206       -3.61522435804817
C           -3.29248220080843       -0.14999414975241       -2.59742076191655
C           -3.49196636873950        0.23645804592476       -1.27724953169535
H            1.15550740770649       -0.87242809716601        2.06108553585297
H            1.51966350448947        2.17250713467683        0.73306085645618
H            2.43824278148259        4.29986434986885        1.46722985553182
H            4.88932874261635        4.57644636843355        1.74777852351598
H            6.37355135067963        2.64414234590551        1.29855749861007
H            6.73052326900328       -2.23077533600250       -0.83235941602568
H            5.52000433267033       -4.04315246813216       -2.01059631847577
H            3.04182713019357       -3.95915620879736       -2.12036575717075
H            1.83119242366541       -2.10472970828165       -1.11454721776605
H           -1.09636164402533        0.61723474147734       -2.04212007342461
H           -2.74470075177473       -2.83961267917083        0.75605743441825
H           -4.24902637742035       -3.73730469364227        2.49219616927277
H           -5.97804868343547       -2.28991004353522        3.49904793292391
H           -6.24306568788507        0.04116208763317        2.71297393675219
H           -5.92508621579817        2.53854082673707       -1.76183336844141
H           -5.46992135614141        1.93874043971090       -4.11925009063075
H           -3.82489807534494        0.17039560081553       -4.63837913583860
H           -2.58308987655296       -0.93275413863931       -2.82027819779397

          :  Hamiltonian                  GFN2-xTB          :
         :: gradient norm              0.000035369840 Eh/a0 ::
         :: HOMO-LUMO gap              2.068097561441 eV    ::
         :: SCC energy               -96.754475152383 Eh    ::
         :: -> dispersion             -0.080934360224 Eh    ::
         :: repulsion energy           1.509622758276 Eh    ::

    * Orbital Energies and Occupations

         #    Occupation            Energy/Eh            Energy/eV
      -------------------------------------------------------------
         1        2.0000           -0.8290417             -22.5594
       ...           ...                  ...                  ...
        75        2.0000           -0.4338913             -11.8068
        76        2.0000           -0.4304169             -11.7122
        77        2.0000           -0.4276098             -11.6359
        78        2.0000           -0.4252657             -11.5721
        79        2.0000           -0.4235843             -11.5263
        80        2.0000           -0.4211559             -11.4602
        81        2.0000           -0.4195066             -11.4154
        82        2.0000           -0.4117544             -11.2044
        83        2.0000           -0.4084489             -11.1145
        84        2.0000           -0.3909295             -10.6377
        85        2.0000           -0.3783506             -10.2954
        86        2.0000           -0.3683655             -10.0237
        87        2.0000           -0.3373160              -9.1788 (HOMO)
        88                         -0.2613148              -7.1107 (LUMO)
        89                         -0.2539715              -6.9109
        90                         -0.2515292              -6.8445
        91                         -0.2486292              -6.7655
        92                         -0.2443891              -6.6502
        93                         -0.2386969              -6.4953
        94                         -0.2343600              -6.3773
        95                         -0.2277074              -6.1962
        96                         -0.2223760              -6.0512
        97                         -0.2111390              -5.7454
        98                         -0.1986301              -5.4050
       ...                                ...                  ...
       172                          0.6730088              18.3135
      -------------------------------------------------------------
                  HL-Gap            0.0760012 Eh            2.0681 eV

     #   Z          covCN         q      C6AA      α(0)
     1   9 F        0.787    -0.224    11.483     4.003
     2   6 C        2.785     0.138    24.979     8.186
     3   6 C        2.927    -0.061    29.519     8.910
     4   6 C        2.929     0.041    27.083     8.535
     5   7 N        2.748    -0.064    22.480     7.042
     6   6 C        2.944     0.062    26.613     8.461
     7   6 C        2.928    -0.055    29.376     8.889
     8   6 C        2.919    -0.033    28.827     8.804
     9   6 C        2.918    -0.039    28.962     8.825
    10   6 C        2.988    -0.039    28.970     8.829
    11   6 C        2.971     0.034    27.225     8.559
    12  16 S        2.137    -0.150   147.360    20.431
    13   6 C        2.971     0.035    27.223     8.558
    14   6 C        2.988    -0.039    28.971     8.829
    15   6 C        2.918    -0.039    28.971     8.826
    16   6 C        2.919    -0.034    28.841     8.807
    17   6 C        2.928    -0.056    29.392     8.891
    18   6 C        2.944     0.062    26.608     8.460
    19   6 C        2.784     0.155    24.624     8.128
    20   9 F        0.787    -0.213    11.368     3.983
    21   6 C        2.928    -0.086    30.151     9.005
    22   6 C        2.907     0.056    26.742     8.479
    23   7 N        2.751    -0.057    22.340     7.020
    24   6 C        2.980     0.061    26.619     8.463
    25   6 C        2.922    -0.033    28.828     8.805
    26   6 C        2.920    -0.028    28.707     8.786
    27   6 C        2.921    -0.029    28.731     8.790
    28   6 C        2.956    -0.035    28.864     8.812
    29   6 C        2.973     0.037    27.161     8.549
    30  16 S        2.113    -0.130   146.510    20.372
    31   6 C        2.972     0.037    27.162     8.549
    32   6 C        2.957    -0.035    28.879     8.814
    33   6 C        2.920    -0.030    28.752     8.793
    34   6 C        2.919    -0.032    28.794     8.799
    35   6 C        2.922    -0.044    29.095     8.846
    36   6 C        2.979     0.054    26.790     8.490
    37   1 H        0.926     0.078     2.000     2.211
    38   1 H        0.926     0.028     2.620     2.531
    39   1 H        0.926     0.035     2.523     2.484
    40   1 H        0.926     0.036     2.503     2.474
    41   1 H        0.926     0.044     2.396     2.421
    42   1 H        0.926     0.044     2.396     2.421
    43   1 H        0.926     0.036     2.509     2.477
    44   1 H        0.926     0.033     2.546     2.495
    45   1 H        0.926     0.026     2.649     2.545
    46   1 H        0.926     0.072     2.062     2.245
    47   1 H        0.926     0.046     2.374     2.409
    48   1 H        0.926     0.046     2.366     2.405
    49   1 H        0.926     0.046     2.369     2.407
    50   1 H        0.926     0.051     2.304     2.374
    51   1 H        0.926     0.053     2.281     2.362
    52   1 H        0.926     0.047     2.359     2.402
    53   1 H        0.926     0.046     2.372     2.408
    54   1 H        0.926     0.048     2.350     2.397

molecular dipole:
                 x           y           z       tot (Debye)
 q only:       -1.794      -0.505      -0.403
   full:       -1.991      -0.663      -0.591       5.541

 projected vibrational frequencies (cm⁻¹)
eigval :       -0.00    -0.00    -0.00    -0.00     0.00     0.00
eigval :        7.31    14.84    17.03    25.42    32.50    51.75
eigval :       59.93    66.62    97.86   104.72   125.72   133.95
eigval :      143.44   152.17   189.13   203.57   208.78   217.68
eigval :      228.25   247.39   267.23   270.70   291.23   324.61
eigval :      328.69   333.69   348.00   363.06   372.96   409.55
eigval :      410.30   411.45   415.79   419.16   425.56   428.34
eigval :      433.17   450.65   471.58   489.53   492.61   496.71
eigval :      499.16   520.00   524.18   553.75   573.57   594.65
eigval :      614.45   622.62   640.48   648.28   651.56   652.61
eigval :      659.34   665.93   687.01   690.55   699.29   703.57
eigval :      719.13   765.39   768.90   770.35   778.70   783.79
eigval :      843.26   848.99   857.62   859.10   869.82   879.71
eigval :      887.49   899.40   899.53   900.26   906.77   913.98
eigval :      914.38   914.90   919.11   924.62   931.31   942.74
eigval :     1031.71  1041.45  1042.63  1049.04  1085.66  1086.28
eigval :     1105.10  1105.94  1125.18  1145.96  1150.30  1153.65
eigval :     1155.34  1161.78  1173.23  1176.10  1181.64  1181.80
eigval :     1188.92  1213.49  1228.27  1239.46  1243.54  1247.73
eigval :     1258.57  1278.44  1284.01  1309.74  1316.46  1318.53
eigval :     1320.35  1320.56  1335.26  1392.13  1409.68  1409.87
eigval :     1419.96  1422.30  1424.36  1443.14  1460.71  1465.54
eigval :     1479.48  1505.51  1538.59  1558.42  1565.12  1571.94
eigval :     1572.39  1573.09  1576.98  1584.18  1594.68  1601.77
eigval :     3084.40  3086.32  3086.73  3087.87  3091.61  3092.01
eigval :     3092.48  3094.02  3098.80  3100.41  3100.49  3101.18
eigval :     3105.80  3106.63  3107.44  3108.38  3118.39  3131.84

   temp. (K)  partition function   enthalpy   heat capacity  entropy
                                   cal/mol     cal/K/mol   cal/K/mol   J/K/mol
 298.15  VIB  0.711E+13            16533.585    104.971    101.796
         ROT  0.367E+08              888.752      2.981     37.595
         INT  0.261E+21            17422.338    107.952    139.391
         TR   0.111E+29             1481.254      4.968     44.546
         TOT                       18903.5916   112.9203   183.9374   769.5941

       T/K    H(0)-H(T)+PV         H(T)/Eh          T*S/Eh         G(T)/Eh
   ------------------------------------------------------------------------
    298.15    0.301248E-01    0.416282E+00    0.873946E-01    0.328888E+00
   ------------------------------------------------------------------------

         :::::::::::::::::::::::::::::::::::::::::::::::::::::
         ::                  THERMODYNAMIC                  ::
         :::::::::::::::::::::::::::::::::::::::::::::::::::::
         :: total free energy         -94.915964525481 Eh   ::
         ::.................................................::
         :: total energy              -95.244852394106 Eh   ::
         :: zero point energy           0.386157676466 Eh   ::
         :: G(RRHO) w/o ZPVE           -0.057269807841 Eh   ::
         :: G(RRHO) contrib.            0.328887868626 Eh   ::
         :::::::::::::::::::::::::::::::::::::::::::::::::::::

           -------------------------------------------------
          | TOTAL ENERGY              -95.244852394106 Eh   |
          | TOTAL ENTHALPY            -94.828569926972 Eh   |
          | TOTAL FREE ENERGY         -94.915964525481 Eh   |
          | GRADIENT NORM               0.000035388508 Eh/α |
          | HOMO-LUMO GAP               2.068098369236 eV   |
           -------------------------------------------------

 * finished run on 2025/08/24 at 17:41:42.439
