   * xtb version 6.7.1 (edcfbbe) compiled by 'albert@albert-system' on 2024-07-22

   ID    Z sym.   atoms
    1   35 Br     1, 23
    2    6 C      2-10, 12, 14-22, 24-31, 33, 35-42
    3    7 N      11, 13, 32, 34
    4    1 H      43-66

          program call               : xtb data2507/gas/3BrBI/3BrBI_gas_T1_crest.xyz --gfn 2 --spinpol --tblite --uhf 2 --ohess vtight --parallel 40 --molden --ceasefiles --namespace data2507/gas/3BrBI/3BrBI_gas_T1_finalOpt
 * total energy  :  -109.1444430 Eh     change        0.2567920E-07 Eh
 * total energy  :  -109.1444614 Eh     change       -0.1839291E-04 Eh
 * total energy  :  -109.1444665 Eh     change       -0.5151770E-05 Eh
 * total energy  :  -109.1444671 Eh     change       -0.6100724E-06 Eh
 * total energy  :  -109.1444678 Eh     change       -0.6928974E-06 Eh
 * total energy  :  -109.1444686 Eh     change       -0.7220706E-06 Eh
 * total energy  :  -109.1444693 Eh     change       -0.7498816E-06 Eh
 * total energy  :  -109.1444697 Eh     change       -0.4150885E-06 Eh
 * total energy  :  -109.1444698 Eh     change       -0.6631895E-07 Eh
 * total energy  :  -109.1444701 Eh     change       -0.3227446E-06 Eh
 * total energy  :  -109.1444724 Eh     change       -0.5324949E-06 Eh
 * total energy  :  -109.1444730 Eh     change       -0.5978865E-06 Eh
 * total energy  :  -109.1444737 Eh     change       -0.7208954E-06 Eh
 * total energy  :  -109.1444745 Eh     change       -0.8087640E-06 Eh
 * total energy  :  -109.1444753 Eh     change       -0.7927612E-06 Eh
 * total energy  :  -109.1444751 Eh     change        0.2452271E-06 Eh
 * total energy  :  -109.1444755 Eh     change       -0.3828982E-06 Eh
 * total energy  :  -109.1444754 Eh     change        0.2795919E-07 Eh
 * total energy  :  -109.1444755 Eh     change       -0.3114219E-07 Eh
   *** GEOMETRY OPTIMIZATION CONVERGED AFTER 23 ITERATIONS ***

 final structure:
================
66
 xtb: 6.7.1 (edcfbbe)
Br          -1.44073341547222        2.94064554017460       -0.29201965194703
C           -0.62681294697908        1.22848473570334       -0.05308856747726
C            0.72572637920195        1.19393199862512        0.01290325071413
C            1.45565829651412       -0.02157178616201        0.19082467905205
C            2.84725950130318       -0.07846257603643        0.24264351873501
C            3.72732969309064        0.98797869744460        0.12098610099836
C            5.13905558589511        0.90060972288321        0.16312494775506
C            5.90397528963044        2.07773833953921       -0.01070686495472
C            7.27406507163159        2.05605900581097        0.00480995523914
C            7.95694224453658        0.84869680235042        0.19304410249817
N            9.34839144598415        0.82884781869099        0.20831506544944
C           10.16455628634012        1.76964702661535        0.78781110743459
N           11.42400286896523        1.49566423405393        0.71317296487572
C           11.50300789787317        0.30753334026338        0.02686194165218
C           12.61460891910216       -0.42914419118067       -0.36021514127837
C           12.39650197316850       -1.59009595683090       -1.07395556293652
C           11.10922342924425       -2.00660693803858       -1.41367485528895
C            9.99002531994469       -1.28895419506690       -1.03789811408047
C           10.19822907588719       -0.13662255341916       -0.29600656954120
C            7.22203821762423       -0.32566501136377        0.38873998945894
C            5.85099640356226       -0.30209472759811        0.37332256626117
C            0.63173566838928       -1.19066149137821        0.30857313343078
Br           1.44432564595596       -2.89996860159791        0.57133167787856
C           -0.72069550250472       -1.15629124608450        0.24097313654215
C           -1.44989963860824        0.05709569250703        0.04641913894493
C           -2.83961826583834        0.10841614625440       -0.04643508613299
C           -3.71673641809618       -0.96475655972384        0.02832506855277
C           -5.12510317761244       -0.88896306937834       -0.08598954619147
C           -5.83689484269844        0.31055643222639       -0.31402280384199
C           -7.20433699104438        0.31964202693553       -0.41743572153354
C           -7.93571397299116       -0.86693216101809       -0.29656292867603
N           -9.32263805672470       -0.86411036237004       -0.41183740793417
C          -10.07988274463297       -1.80208230326363       -1.07064330427343
N          -11.34490468836178       -1.54475232164088       -1.08643046060980
C          -11.49158697758281       -0.37229190207262       -0.38451352386935
C          -12.63909312065706        0.34307339035011       -0.06891093776364
C          -12.49131460534618        1.49135482633649        0.68236905736333
C          -11.23923362042691        1.91575724343910        1.12754238420316
C          -10.08521411850625        1.21939538782389        0.82389918082748
C          -10.22108844044516        0.08041489458478        0.04552375408051
C           -7.25200090076944       -2.06986461736665       -0.08443900959271
C           -5.88570772709147       -2.07691063779969        0.02008273355501
H            1.28105593613073        2.11407246099291       -0.07066492285696
H            3.27729886271440       -1.05909426442322        0.38463073534171
H            3.32902522282021        1.98156314813232       -0.02887736016134
H            5.38899555351341        3.01393075820025       -0.17004269263499
H            7.83516335959325        2.96565594671680       -0.14997392024395
H            9.76616668798530        2.63228440151422        1.28620533775907
H           13.60697996473939       -0.08913839072198       -0.11278175594015
H           13.23877590623666       -2.18754844046796       -1.38922657325513
H           10.98389299251936       -2.91175760318742       -1.98882148037621
H            9.00109231757830       -1.61066300287928       -1.32647380898786
H            7.74425258396892       -1.25029516369146        0.58148117368242
H            5.31588314144560       -1.22338832407343        0.53844497109401
H           -1.27638086917703       -2.07517854592552        0.33516941219255
H           -3.26981178668450        1.08794273715586       -0.19552494845678
H           -3.31790646473681       -1.95720036340675        0.18432688693523
H           -5.30359361289366        1.24113507957247       -0.42366829960972
H           -7.72424004470433        1.24262590280524       -0.62385254073892
H           -9.63320733952432       -2.64907371702520       -1.55474327527158
H          -13.60512376229381       -0.00328703749831       -0.39821593685333
H          -13.36298854635335        2.07220378408017        0.94420796303568
H          -11.17009594836628        2.81009423110849        1.72850004677986
H           -9.12538014045385        1.54668628512897        1.19317924719061
H           -7.81097448949258       -2.98831716377839        0.01637968014397
H           -5.37081819151975       -3.01036579204685        0.19505740775299

 projected vibrational frequencies (cm⁻¹)
eigval :       -0.00    -0.00    -0.00     0.00     0.00     0.00
eigval :        4.76    10.00    12.13    14.51    20.54    26.61
eigval :       32.31    56.83    57.04    58.04    61.77    72.84
eigval :       78.53   101.15   104.08   112.85   133.82   152.19
eigval :      158.07   182.28   183.07   193.94   199.46   208.53
eigval :      216.08   216.32   229.13   235.11   248.01   296.90
eigval :      320.59   343.29   356.83   357.27   369.13   374.56
eigval :      378.04   385.93   394.62   395.93   397.93   398.04
eigval :      410.73   460.73   463.62   487.31   498.63   498.75
eigval :      532.12   536.32   546.35   547.57   549.67   558.36
eigval :      561.03   595.44   596.25   596.65   606.09   615.92
eigval :      616.69   634.21   658.49   672.96   675.00   681.73
eigval :      691.35   713.00   713.40   764.47   764.55   775.81
eigval :      775.86   801.25   801.87   811.48   811.55   827.53
eigval :      829.63   830.57   831.23   833.19   839.99   842.28
eigval :      854.46   857.40   870.10   870.13   873.50   873.57
eigval :      875.57   875.86   901.81   901.84   912.29   912.36
eigval :      917.72   920.00   920.09   925.87   926.02   951.46
eigval :      964.21  1000.64  1016.97  1017.81  1062.13  1062.22
eigval :     1092.97  1095.21  1116.14  1138.18  1139.16  1147.59
eigval :     1148.59  1162.53  1173.28  1173.82  1186.55  1196.90
eigval :     1196.96  1207.82  1210.32  1214.38  1221.72  1238.19
eigval :     1243.17  1246.45  1265.10  1265.46  1276.44  1277.91
eigval :     1290.71  1290.73  1299.80  1309.87  1313.43  1338.72
eigval :     1342.52  1360.75  1361.09  1367.38  1375.17  1376.92
eigval :     1392.37  1395.20  1408.27  1417.22  1427.82  1432.74
eigval :     1443.48  1476.35  1479.69  1486.52  1490.47  1496.28
eigval :     1508.72  1508.96  1515.54  1515.75  1518.13  1553.55
eigval :     1570.89  1581.44  1583.99  1584.34  1610.20  1610.52
eigval :     3068.85  3069.64  3078.63  3078.75  3081.97  3082.03
eigval :     3087.71  3087.74  3090.62  3090.78  3092.45  3092.59
eigval :     3096.17  3096.19  3097.67  3097.84  3109.17  3109.37
eigval :     3110.92  3111.09  3112.72  3112.86  3161.24  3161.30

   temp. (K)  partition function   enthalpy   heat capacity  entropy
                                   cal/mol     cal/K/mol   cal/K/mol   J/K/mol
 298.15  VIB  0.703E+18            20674.032    125.245    132.144
         ROT  0.139E+09              888.752      2.981     40.236
         INT  0.975E+26            21562.785    128.225    172.380
         TR   0.169E+29             1481.254      4.968     45.378
         TOT                       23044.0386   133.1936   217.7576   911.0979

       T/K    H(0)-H(T)+PV         H(T)/Eh          T*S/Eh         G(T)/Eh
   ------------------------------------------------------------------------
    298.15    0.367230E-01    0.522705E+00    0.103464E+00    0.419241E+00
   ------------------------------------------------------------------------

         :::::::::::::::::::::::::::::::::::::::::::::::::::::
         ::                  THERMODYNAMIC                  ::
         :::::::::::::::::::::::::::::::::::::::::::::::::::::
         :: total free energy        -108.725234280344 Eh   ::
         ::.................................................::
         :: total energy             -109.144475480839 Eh   ::
         :: zero point energy           0.485981856246 Eh   ::
         :: G(RRHO) w/o ZPVE           -0.066740655751 Eh   ::
         :: G(RRHO) contrib.            0.419241200495 Eh   ::
         :::::::::::::::::::::::::::::::::::::::::::::::::::::

           -------------------------------------------------
          | TOTAL ENERGY             -109.144475480839 Eh   |
          | TOTAL ENTHALPY           -108.621770611568 Eh   |
          | TOTAL FREE ENERGY        -108.725234280344 Eh   |
          | GRADIENT NORM               0.000077000015 Eh/α |
           -------------------------------------------------

 * finished run on 2025/09/12 at 04:34:08.005
