   * xtb version 6.7.1 (edcfbbe) compiled by 'albert@albert-system' on 2024-07-22

   ID    Z sym.   atoms
    1   35 Br     1, 23
    2    6 C      2-10, 12, 14-22, 24-31, 33, 35-42
    3    7 N      11, 13, 32, 34
    4    1 H      43-66

          program call               : xtb data2507/gas/3BrBI/3BrBI_gas_S0_crest.xyz --gfn 2 --ohess vtight --parallel 40 --molden --ceasefiles --namespace data2507/gas/3BrBI/3BrBI_gas_S0_finalOpt
          :  Hamiltonian                  GFN2-xTB          :
 * total energy  :  -109.2049203 Eh     change       -0.1735970E-08 Eh
 * total energy  :  -109.2049206 Eh     change       -0.3088894E-06 Eh
 * total energy  :  -109.2049212 Eh     change       -0.6410289E-06 Eh
 * total energy  :  -109.2049215 Eh     change       -0.2551601E-06 Eh
 * total energy  :  -109.2049220 Eh     change       -0.4863422E-06 Eh
 * total energy  :  -109.2049224 Eh     change       -0.4468265E-06 Eh
 * total energy  :  -109.2049226 Eh     change       -0.1984274E-06 Eh
 * total energy  :  -109.2049228 Eh     change       -0.1857517E-06 Eh
 * total energy  :  -109.2049231 Eh     change       -0.3147211E-06 Eh
 * total energy  :  -109.2049236 Eh     change       -0.4874671E-06 Eh
 * total energy  :  -109.2049254 Eh     change       -0.6495496E-06 Eh
 * total energy  :  -109.2049258 Eh     change       -0.3620502E-06 Eh
 * total energy  :  -109.2049260 Eh     change       -0.1758212E-06 Eh
 * total energy  :  -109.2049261 Eh     change       -0.1751526E-06 Eh
 * total energy  :  -109.2049263 Eh     change       -0.2010983E-06 Eh
 * total energy  :  -109.2049265 Eh     change       -0.1496756E-06 Eh
 * total energy  :  -109.2049266 Eh     change       -0.1030812E-06 Eh
 * total energy  :  -109.2049267 Eh     change       -0.1004432E-06 Eh
 * total energy  :  -109.2049267 Eh     change       -0.1144485E-08 Eh
   *** GEOMETRY OPTIMIZATION CONVERGED AFTER 22 ITERATIONS ***

 final structure:
================
66
 xtb: 6.7.1 (edcfbbe)
Br          -1.44238690519502        2.95633296186071       -0.05508000269672
C           -0.63902874492814        1.22699947114220        0.05438937685192
C            0.73448778803606        1.18615157163841        0.13768790608973
C            1.43431054538479       -0.02160474284857        0.23151603296578
C            2.87547451022578       -0.07759170704952        0.30444646913648
C            3.71741941423530        0.93004647744390        0.02229018346371
C            5.16237813737092        0.87187556393879        0.07344225568701
C            5.89318134320849        2.00076544239299       -0.31476425824787
C            7.27064236199081        2.00266905979082       -0.30720449883268
C            7.96633586435156        0.86498349616811        0.09657075513721
N            9.36236507786417        0.86691452389501        0.10805827091557
C           10.16772815688549        1.89605492795490        0.52602472660259
N           11.43134769712394        1.63520659855683        0.47380125054133
C           11.52207722721250        0.35756845310252       -0.02408315616759
C           12.64119641561223       -0.41501945705424       -0.30899137700978
C           12.43341179698332       -1.67363814050456       -0.83271745298713
C           11.14859136234998       -2.15674906026580       -1.08519718794557
C           10.02287249711470       -1.40642467071719       -0.80843745902305
C           10.22199188520670       -0.15037986367916       -0.25733304167905
C            7.25404937185762       -0.26106629135140        0.50560879129990
C            5.87654923402477       -0.25668161410361        0.48998331272737
C            0.64467545590216       -1.18181215118450        0.25427342162597
Br           1.44574708877473       -2.91175265966615        0.37172868543971
C           -0.72875308433242       -1.14095456256169        0.16983939260961
C           -1.42801772167035        0.06625583256469        0.06626434996101
C           -2.86669463760363        0.11821324736620       -0.04748246530168
C           -3.71375186463095       -0.89293444473543        0.20519803614324
C           -5.15390587473815       -0.85099517483910        0.07078450265790
C           -5.85097115876800        0.25306808401890       -0.43144791817516
C           -7.22318120318664        0.23375703881134       -0.55150457723907
C           -7.94810470108763       -0.89169077887568       -0.16345446753088
N           -9.33749056291857       -0.92417545529700       -0.29542585566491
C          -10.08111879170048       -1.98603736050254       -0.74543302920806
N          -11.34816008011396       -1.75036528743919       -0.82476206990276
C          -11.50845567381590       -0.45596284975481       -0.39199035397074
C          -12.66306771866382        0.30365098749650       -0.24983046145168
C          -12.52881338108229        1.58689920294428        0.23680572442089
C          -11.28311249987053        2.10682279246640        0.59141889356850
C          -10.12309671547209        1.36979529840564        0.45702549771414
C          -10.24586506689350        0.08845197519075       -0.05693957261118
C           -7.26906503035595       -2.00180367571213        0.33467816406547
C           -5.89624123012738       -1.97701422643281        0.44505929567067
H            1.28484786826545        2.11348663401877        0.14233432042754
H            3.28162465551218       -1.03705473438159        0.58938360920151
H            3.32205756396711        1.88441488967536       -0.30042242067184
H            5.36607574676510        2.88728663608792       -0.63696861214867
H            7.81592861734423        2.87772648099751       -0.62782394307450
H            9.75878852501084        2.81824439537733        0.89226393364587
H           13.63080148122459       -0.02770971387834       -0.12896822461222
H           13.28123135678828       -2.30068162965487       -1.06514959719552
H           11.03192905230283       -3.14175881483187       -1.51206686072697
H            9.03488293656852       -1.78184418648261       -1.02816346847877
H            7.78847904522654       -1.13109681458556        0.85491450428906
H            5.35278980055210       -1.14156708542150        0.81500065280528
H           -1.27911787834322       -2.06827835748842        0.16630916799097
H           -3.26615886889454        1.07418652040082       -0.35322216514153
H           -3.32722138933835       -1.84064580857931        0.55698684363148
H           -5.31651864199258        1.13515703994859       -0.74653630668918
H           -7.74139534615987        1.08257133865596       -0.97039627940569
H           -9.62301486045757       -2.91301935713044       -1.03284366119158
H          -13.62357711988159       -0.11165837980310       -0.50805120296313
H          -13.40577270157915        2.20501387567487        0.35874657582109
H          -11.22537379523533        3.11073257264316        0.98498309998144
H           -9.16794586826653        1.77486811281864        0.75521171089786
H           -7.82445498951339       -2.87476520790781        0.64340241459211
H           -5.38249963622442       -2.84362891212724        0.83573338436624

          :  Hamiltonian                  GFN2-xTB          :
         :: gradient norm              0.000038101105 Eh/a0 ::
         :: HOMO-LUMO gap              1.902155670137 eV    ::
         :: SCC energy              -111.068501710174 Eh    ::
         :: -> dispersion             -0.085682063083 Eh    ::
         :: repulsion energy           1.863575010949 Eh    ::

    * Orbital Energies and Occupations

         #    Occupation            Energy/Eh            Energy/eV
      -------------------------------------------------------------
         1        2.0000           -0.8494428             -23.1145
       ...           ...                  ...                  ...
        89        2.0000           -0.4299707             -11.7001
        90        2.0000           -0.4295827             -11.6895
        91        2.0000           -0.4233935             -11.5211
        92        2.0000           -0.4213652             -11.4659
        93        2.0000           -0.4119301             -11.2092
        94        2.0000           -0.4115294             -11.1983
        95        2.0000           -0.3979623             -10.8291
        96        2.0000           -0.3944014             -10.7322
        97        2.0000           -0.3938907             -10.7183
        98        2.0000           -0.3866916             -10.5224
        99        2.0000           -0.3850545             -10.4779
       100        2.0000           -0.3843068             -10.4575
       101        2.0000           -0.3803141             -10.3489 (HOMO)
       102                         -0.3104112              -8.4467 (LUMO)
       103                         -0.2787477              -7.5851
       104                         -0.2659129              -7.2359
       105                         -0.2507864              -6.8242
       106                         -0.2468896              -6.7182
       107                         -0.2468809              -6.7180
       108                         -0.2450309              -6.6676
       109                         -0.2357420              -6.4149
       110                         -0.2203956              -5.9973
       111                         -0.2191003              -5.9620
       112                         -0.2157057              -5.8697
       ...                                ...                  ...
       202                          0.6984116              19.0047
      -------------------------------------------------------------
                  HL-Gap            0.0699029 Eh            1.9022 eV

     #   Z          covCN         q      C6AA      α(0)
     1  35 Br       1.074    -0.165   189.608    22.202
     2   6 C        2.917     0.070    26.432     8.431
     3   6 C        3.025    -0.043    29.029     8.838
     4   6 C        3.020     0.010    27.770     8.644
     5   6 C        2.902    -0.039    28.968     8.825
     6   6 C        2.902    -0.032    28.791     8.798
     7   6 C        2.970     0.013    27.725     8.637
     8   6 C        2.929    -0.031    28.763     8.795
     9   6 C        2.919    -0.044    29.083     8.844
    10   6 C        2.913     0.064    26.572     8.453
    11   7 N        2.825    -0.035    21.907     6.952
    12   6 C        3.158     0.102    25.463     8.250
    13   7 N        1.880    -0.268    27.804     7.817
    14   6 C        3.217     0.065    25.866     8.272
    15   6 C        2.910    -0.039    28.968     8.825
    16   6 C        2.923    -0.038    28.935     8.821
    17   6 C        2.926    -0.036    28.887     8.814
    18   6 C        2.908    -0.049    29.216     8.863
    19   6 C        3.096     0.033    27.145     8.539
    20   6 C        2.919    -0.041    29.025     8.835
    21   6 C        2.923    -0.030    28.757     8.794
    22   6 C        2.917     0.070    26.432     8.431
    23  35 Br       1.074    -0.165   189.610    22.202
    24   6 C        3.026    -0.043    29.029     8.838
    25   6 C        3.020     0.010    27.771     8.644
    26   6 C        2.902    -0.039    28.966     8.825
    27   6 C        2.902    -0.032    28.791     8.798
    28   6 C        2.970     0.013    27.726     8.637
    29   6 C        2.923    -0.030    28.757     8.794
    30   6 C        2.919    -0.041    29.028     8.835
    31   6 C        2.913     0.064    26.572     8.453
    32   7 N        2.825    -0.034    21.906     6.951
    33   6 C        3.158     0.102    25.461     8.250
    34   7 N        1.880    -0.268    27.802     7.816
    35   6 C        3.218     0.065    25.864     8.271
    36   6 C        2.910    -0.039    28.967     8.825
    37   6 C        2.923    -0.038    28.935     8.821
    38   6 C        2.926    -0.036    28.887     8.814
    39   6 C        2.908    -0.049    29.216     8.863
    40   6 C        3.096     0.033    27.145     8.539
    41   6 C        2.919    -0.044    29.085     8.844
    42   6 C        2.929    -0.031    28.763     8.795
    43   1 H        0.926     0.061     2.184     2.311
    44   1 H        0.926     0.061     2.183     2.311
    45   1 H        0.925     0.042     2.427     2.436
    46   1 H        0.926     0.042     2.428     2.437
    47   1 H        0.926     0.042     2.419     2.432
    48   1 H        0.926     0.039     2.458     2.452
    49   1 H        0.926     0.048     2.349     2.397
    50   1 H        0.926     0.035     2.515     2.480
    51   1 H        0.926     0.034     2.528     2.486
    52   1 H        0.926     0.030     2.583     2.513
    53   1 H        0.926     0.048     2.343     2.394
    54   1 H        0.926     0.048     2.349     2.397
    55   1 H        0.926     0.061     2.184     2.311
    56   1 H        0.926     0.061     2.185     2.311
    57   1 H        0.925     0.042     2.426     2.436
    58   1 H        0.926     0.047     2.351     2.398
    59   1 H        0.926     0.048     2.343     2.394
    60   1 H        0.926     0.039     2.457     2.451
    61   1 H        0.926     0.048     2.348     2.396
    62   1 H        0.926     0.035     2.514     2.480
    63   1 H        0.926     0.034     2.528     2.486
    64   1 H        0.926     0.030     2.582     2.513
    65   1 H        0.926     0.042     2.419     2.432
    66   1 H        0.926     0.042     2.428     2.437

molecular dipole:
                 x           y           z       tot (Debye)
 q only:       -0.017       0.015       0.034
   full:       -0.031       0.028       0.063       0.191

 projected vibrational frequencies (cm⁻¹)
eigval :       -0.00    -0.00    -0.00    -0.00     0.00     0.00
eigval :        5.32     6.21     8.75    11.11    18.08    29.03
eigval :       31.70    54.25    55.74    59.44    61.15    64.45
eigval :       66.62    82.24    84.16   104.32   110.21   138.52
eigval :      152.70   170.86   171.63   196.49   203.65   215.66
eigval :      215.75   217.31   230.38   236.21   254.43   299.20
eigval :      325.22   341.76   358.31   362.28   375.53   375.94
eigval :      377.41   391.69   399.29   399.36   407.52   416.02
eigval :      428.46   459.73   471.04   486.08   505.03   510.89
eigval :      527.43   543.07   548.25   548.75   552.53   563.98
eigval :      587.72   597.16   597.73   602.16   613.76   618.93
eigval :      619.10   653.24   666.33   679.91   685.26   688.74
eigval :      699.66   713.69   714.03   776.44   776.57   777.38
eigval :      780.63   803.24   803.76   821.41   821.62   826.46
eigval :      833.70   833.82   848.06   852.68   859.94   860.17
eigval :      861.27   861.60   873.31   873.37   876.47   878.15
eigval :      902.17   902.18   914.03   914.07   922.35   922.37
eigval :      927.58   927.63   944.32   973.80   974.12   977.54
eigval :      978.05  1026.20  1027.35  1043.04  1062.40  1062.45
eigval :     1097.39  1097.49  1140.37  1141.33  1150.08  1150.29
eigval :     1169.39  1173.80  1174.37  1191.63  1193.91  1199.76
eigval :     1201.83  1212.37  1214.53  1227.69  1238.72  1245.35
eigval :     1256.94  1267.90  1268.05  1278.83  1279.38  1283.87
eigval :     1294.06  1294.34  1309.74  1311.55  1327.88  1337.10
eigval :     1342.44  1344.49  1361.75  1361.89  1373.59  1386.12
eigval :     1388.09  1411.44  1412.41  1420.73  1421.75  1454.58
eigval :     1482.98  1483.44  1496.87  1498.07  1498.86  1521.57
eigval :     1522.01  1539.49  1556.64  1557.61  1582.02  1585.84
eigval :     1585.90  1588.90  1617.24  1617.39  1632.30  1633.09
eigval :     3057.93  3058.31  3077.43  3077.46  3079.15  3079.25
eigval :     3084.88  3084.97  3088.29  3089.43  3093.75  3093.85
eigval :     3095.20  3095.28  3097.09  3097.23  3107.95  3108.00
eigval :     3108.61  3108.80  3111.70  3111.72  3157.88  3158.03

   temp. (K)  partition function   enthalpy   heat capacity  entropy
                                   cal/mol     cal/K/mol   cal/K/mol   J/K/mol
 298.15  VIB  0.416E+19            20647.710    123.518    134.107
         ROT  0.138E+09              888.752      2.981     40.234
         INT  0.576E+27            21536.463    126.499    174.341
         TR   0.169E+29             1481.254      4.968     45.378
         TOT                       23017.7167   131.4671   219.7186   919.3024

       T/K    H(0)-H(T)+PV         H(T)/Eh          T*S/Eh         G(T)/Eh
   ------------------------------------------------------------------------
    298.15    0.366811E-01    0.525580E+00    0.104395E+00    0.421185E+00
   ------------------------------------------------------------------------

         :::::::::::::::::::::::::::::::::::::::::::::::::::::
         ::                  THERMODYNAMIC                  ::
         :::::::::::::::::::::::::::::::::::::::::::::::::::::
         :: total free energy        -108.783741892326 Eh   ::
         ::.................................................::
         :: total energy             -109.204926699222 Eh   ::
         :: zero point energy           0.488899115071 Eh   ::
         :: G(RRHO) w/o ZPVE           -0.067714308175 Eh   ::
         :: G(RRHO) contrib.            0.421184806896 Eh   ::
         :::::::::::::::::::::::::::::::::::::::::::::::::::::

           -------------------------------------------------
          | TOTAL ENERGY             -109.204926699222 Eh   |
          | TOTAL ENTHALPY           -108.679346517714 Eh   |
          | TOTAL FREE ENERGY        -108.783741892326 Eh   |
          | GRADIENT NORM               0.000038099009 Eh/α |
          | HOMO-LUMO GAP               1.902155710867 eV   |
           -------------------------------------------------

 * finished run on 2025/09/12 at 04:29:36.489
