   * xtb version 6.7.1 (edcfbbe) compiled by 'albert@albert-system' on 2024-07-22

   ID    Z sym.   atoms
    1   35 Br     1, 23
    2    6 C      2-10, 12, 14-22, 24-31, 33, 35-42
    3    7 N      11, 13, 32, 34
    4    1 H      43-66

          program call               : xtb data2507/gas/3BrBI/3BrBI.xyz --gfn 2 --ohess vtight --parallel 40 --molden --ceasefiles --namespace data2507/gas/3BrBI/3BrBI_gas_S0_preOpt
          :  Hamiltonian                  GFN2-xTB          :
 * total energy  :  -109.1798051 Eh     change       -0.4297618E-08 Eh
 * total energy  :  -109.1911154 Eh     change       -0.1131039E-01 Eh
 * total energy  :  -109.1938158 Eh     change       -0.2700317E-02 Eh
 * total energy  :  -109.1950029 Eh     change       -0.1187143E-02 Eh
 * total energy  :  -109.1964525 Eh     change       -0.1449590E-02 Eh
 * total energy  :  -109.1975055 Eh     change       -0.1053053E-02 Eh
 * total energy  :  -109.1984491 Eh     change       -0.9435057E-03 Eh
 * total energy  :  -109.1992611 Eh     change       -0.8120540E-03 Eh
 * total energy  :  -109.1998423 Eh     change       -0.5811714E-03 Eh
 * total energy  :  -109.2002612 Eh     change       -0.4189511E-03 Eh
 * total energy  :  -109.2049218 Eh     change       -0.1911791E-06 Eh
 * total energy  :  -109.2049220 Eh     change       -0.2205093E-06 Eh
 * total energy  :  -109.2049222 Eh     change       -0.2118571E-06 Eh
 * total energy  :  -109.2049224 Eh     change       -0.2273300E-06 Eh
 * total energy  :  -109.2049227 Eh     change       -0.2685772E-06 Eh
 * total energy  :  -109.2049230 Eh     change       -0.2771423E-06 Eh
 * total energy  :  -109.2049233 Eh     change       -0.2933702E-06 Eh
 * total energy  :  -109.2049235 Eh     change       -0.2371872E-06 Eh
 * total energy  :  -109.2049235 Eh     change       -0.1979686E-08 Eh
   *** GEOMETRY OPTIMIZATION CONVERGED AFTER 185 ITERATIONS ***

 final structure:
================
66
 xtb: 6.7.1 (edcfbbe)
Br          -1.27025183282328        2.07522910941004        1.66294195190996
C           -0.59538227995093        0.92232400252483        0.29792815565596
C            0.77327509860954        0.85243851541069        0.16732076984534
C            1.38394110736165        0.03827295616178       -0.79248632081887
C            2.81816396748586       -0.02944484641460       -0.94786717454188
C            3.72656112979051        0.40672512239816       -0.06008166383703
C            5.16431254944675        0.34829877976420       -0.21315176069352
C            5.80056308399467       -0.14516761182884       -1.35737085332399
C            7.17456809504069       -0.17592099024044       -1.44843662560041
C            7.96177187205553        0.28903250993211       -0.39598839947579
N            9.35369428031025        0.26712165533039       -0.50234556507019
C           10.08577496603520        0.59955298942735       -1.61422890057476
N           11.36446285834342        0.54487910331899       -1.44269542479756
C           11.54343550284547        0.13559617745745       -0.14317572089002
C           12.71300736422949       -0.11223474671536        0.56471901117231
C           12.59245073450805       -0.54342599054523        1.86900073137075
C           11.34388301376265       -0.74159860046755        2.46037366460219
C           10.16929840114190       -0.49996439359198        1.77570385195582
C           10.28163579645636       -0.04069348594895        0.47286098872663
C            7.34450560430279        0.79425121070386        0.74598505706618
C            5.96958281136512        0.81733140549128        0.83099133623716
C            0.51198665759216       -0.69170595654612       -1.61508775706772
Br           1.18730980955751       -1.84769372468526       -2.97737245084230
C           -0.85663173975106       -0.62447534850204       -1.48211665904196
C           -1.46706608754889        0.18267879764256       -0.51624389515275
C           -2.90189320591711        0.27232187720214       -0.37922589141581
C           -3.79779105997455       -0.57407757122451       -0.91274243881718
C           -5.23613222995974       -0.48373761069009       -0.78225071565467
C           -5.88848740569396        0.57640512957416       -0.14380418062865
C           -7.26244207936230        0.61433995201787       -0.05154733788561
C           -8.03287468344199       -0.41522623446247       -0.58927393815872
N           -9.42600576289986       -0.37940934081114       -0.50684760768303
C          -10.30377236639537       -0.71695205513585       -1.50608088401004
N          -11.54685940148912       -0.55278582484251       -1.19772108632022
C          -11.54591224529319       -0.08883584706325        0.09580799143557
C          -12.60779069353140        0.23293792850471        0.93203131988665
C          -12.31007890025236        0.65807834819088        2.20960371864408
C          -10.99237199687879        0.74969499686853        2.66027412470301
C           -9.92234229252293        0.43609069790381        1.84566616256692
C          -10.21163207723687        0.03389426110492        0.55120154394559
C           -7.39953572877276       -1.47436173913498       -1.23630286131678
C           -6.02551537315506       -1.50123682665542       -1.33047903655689
H            1.39083861173076        1.45601293863306        0.81324063199920
H            3.15735317663833       -0.49369625289064       -1.86233967215792
H            3.39619305172094        0.83505275407989        0.87736916108139
H            5.21825369062922       -0.51553407343922       -2.18596294927013
H            7.64951915946194       -0.57386549088002       -2.33273718694348
H            9.61410027178827        0.90747491114168       -2.52771126825791
H           13.67345554129191        0.02479072518761        0.09515701835883
H           13.48139364855620       -0.74472379477513        2.44802028599771
H           11.29529995278448       -1.09726716335782        3.47884693575960
H            9.20897391893832       -0.67772214729593        2.23576612343136
H            7.94670012399092        1.18694831134864        1.55076767039373
H            5.50320231747654        1.21477795716363        1.72109421287420
H           -1.47524550581667       -1.19853762966108       -2.15343517457215
H           -3.25241522708475        1.09379310300665        0.22838444286290
H           -3.45513263730573       -1.42690292603482       -1.48424445966217
H           -5.31917164921974        1.39050580595074        0.27586655415243
H           -7.75001172406715        1.45480465937744        0.41792371245507
H           -9.96208360248905       -1.05487393305671       -2.46567459936846
H          -13.62334507931922        0.14138396657885        0.58273959774001
H          -13.11150616640072        0.91723761366642        2.88528923207951
H          -10.80480918374744        1.07053006482945        3.67415590842723
H           -8.90845697268744        0.48972761092076        2.21237453214447
H           -7.98954269954183       -2.27785271731443       -1.65118046086472
H           -5.54697927872863       -2.33060607405805       -1.83119747820383

          :  Hamiltonian                  GFN2-xTB          :
         :: gradient norm              0.000029981709 Eh/a0 ::
         :: HOMO-LUMO gap              1.905295521676 eV    ::
         :: SCC energy              -111.068529467316 Eh    ::
         :: -> dispersion             -0.085674640323 Eh    ::
         :: repulsion energy           1.863605963494 Eh    ::

    * Orbital Energies and Occupations

         #    Occupation            Energy/Eh            Energy/eV
      -------------------------------------------------------------
         1        2.0000           -0.8494523             -23.1148
       ...           ...                  ...                  ...
        89        2.0000           -0.4299477             -11.6995
        90        2.0000           -0.4295655             -11.6891
        91        2.0000           -0.4233419             -11.5197
        92        2.0000           -0.4214189             -11.4674
        93        2.0000           -0.4119475             -11.2097
        94        2.0000           -0.4114910             -11.1972
        95        2.0000           -0.3980572             -10.8317
        96        2.0000           -0.3945313             -10.7357
        97        2.0000           -0.3939856             -10.7209
        98        2.0000           -0.3868048             -10.5255
        99        2.0000           -0.3850857             -10.4787
       100        2.0000           -0.3843244             -10.4580
       101        2.0000           -0.3803298             -10.3493 (HOMO)
       102                         -0.3103115              -8.4440 (LUMO)
       103                         -0.2786458              -7.5823
       104                         -0.2658932              -7.2353
       105                         -0.2508308              -6.8255
       106                         -0.2469915              -6.7210
       107                         -0.2468386              -6.7168
       108                         -0.2450567              -6.6683
       109                         -0.2358768              -6.4185
       110                         -0.2204196              -5.9979
       111                         -0.2181166              -5.9353
       112                         -0.2167838              -5.8990
       ...                                ...                  ...
       202                          0.6981438              18.9975
      -------------------------------------------------------------
                  HL-Gap            0.0700183 Eh            1.9053 eV

     #   Z          covCN         q      C6AA      α(0)
     1  35 Br       1.074    -0.165   189.609    22.202
     2   6 C        2.917     0.070    26.432     8.431
     3   6 C        3.026    -0.043    29.030     8.838
     4   6 C        3.020     0.010    27.770     8.644
     5   6 C        2.902    -0.039    28.964     8.824
     6   6 C        2.902    -0.032    28.792     8.798
     7   6 C        2.970     0.013    27.725     8.637
     8   6 C        2.923    -0.030    28.742     8.792
     9   6 C        2.920    -0.043    29.067     8.841
    10   6 C        2.913     0.064    26.572     8.453
    11   7 N        2.825    -0.034    21.906     6.951
    12   6 C        3.158     0.102    25.461     8.250
    13   7 N        1.880    -0.267    27.797     7.816
    14   6 C        3.217     0.066    25.866     8.272
    15   6 C        2.910    -0.039    28.966     8.825
    16   6 C        2.923    -0.038    28.937     8.821
    17   6 C        2.926    -0.036    28.891     8.815
    18   6 C        2.908    -0.049    29.216     8.863
    19   6 C        3.096     0.033    27.144     8.539
    20   6 C        2.918    -0.042    29.041     8.837
    21   6 C        2.929    -0.031    28.778     8.798
    22   6 C        2.917     0.070    26.430     8.430
    23  35 Br       1.074    -0.165   189.604    22.202
    24   6 C        3.025    -0.043    29.030     8.838
    25   6 C        3.020     0.010    27.770     8.644
    26   6 C        2.902    -0.039    28.966     8.825
    27   6 C        2.902    -0.032    28.791     8.798
    28   6 C        2.970     0.013    27.726     8.637
    29   6 C        2.923    -0.030    28.757     8.794
    30   6 C        2.919    -0.041    29.028     8.835
    31   6 C        2.913     0.064    26.572     8.453
    32   7 N        2.825    -0.034    21.906     6.951
    33   6 C        3.158     0.102    25.462     8.250
    34   7 N        1.880    -0.268    27.802     7.816
    35   6 C        3.218     0.065    25.865     8.272
    36   6 C        2.910    -0.039    28.967     8.825
    37   6 C        2.923    -0.038    28.935     8.821
    38   6 C        2.926    -0.036    28.888     8.814
    39   6 C        2.908    -0.049    29.216     8.863
    40   6 C        3.096     0.033    27.145     8.539
    41   6 C        2.919    -0.044    29.085     8.844
    42   6 C        2.929    -0.031    28.763     8.795
    43   1 H        0.926     0.061     2.184     2.311
    44   1 H        0.926     0.061     2.184     2.311
    45   1 H        0.925     0.042     2.427     2.436
    46   1 H        0.926     0.048     2.346     2.395
    47   1 H        0.926     0.044     2.400     2.423
    48   1 H        0.926     0.040     2.451     2.448
    49   1 H        0.926     0.048     2.347     2.396
    50   1 H        0.926     0.035     2.516     2.480
    51   1 H        0.926     0.034     2.535     2.490
    52   1 H        0.926     0.029     2.595     2.519
    53   1 H        0.926     0.047     2.361     2.403
    54   1 H        0.926     0.041     2.432     2.438
    55   1 H        0.926     0.061     2.183     2.310
    56   1 H        0.926     0.061     2.184     2.311
    57   1 H        0.925     0.042     2.426     2.436
    58   1 H        0.926     0.047     2.351     2.398
    59   1 H        0.926     0.048     2.343     2.394
    60   1 H        0.926     0.039     2.457     2.451
    61   1 H        0.926     0.048     2.348     2.396
    62   1 H        0.926     0.035     2.515     2.480
    63   1 H        0.926     0.034     2.528     2.486
    64   1 H        0.926     0.030     2.582     2.513
    65   1 H        0.926     0.042     2.419     2.432
    66   1 H        0.926     0.042     2.428     2.437

molecular dipole:
                 x           y           z       tot (Debye)
 q only:        0.022      -0.003       0.408
   full:        0.045      -0.077       0.729       1.868

 projected vibrational frequencies (cm⁻¹)
eigval :       -0.00    -0.00     0.00     0.00     0.00     0.00
eigval :        4.85     6.20     7.71    11.30    21.27    22.33
eigval :       34.71    53.25    56.72    61.11    64.58    65.73
eigval :       70.85    77.23    84.46    95.95   108.64   142.37
eigval :      157.24   165.58   170.36   196.53   206.93   215.72
eigval :      215.98   219.70   232.27   236.94   252.28   308.05
eigval :      313.57   337.26   355.50   362.02   375.97   376.00
eigval :      388.02   390.85   399.35   399.41   410.30   414.08
eigval :      424.67   462.97   472.97   483.35   503.84   513.09
eigval :      526.50   542.21   548.69   548.71   553.54   562.73
eigval :      588.13   597.09   597.32   600.49   615.21   619.22
eigval :      620.32   652.69   666.18   681.19   683.02   690.92
eigval :      698.24   713.69   714.00   776.37   776.55   777.92
eigval :      780.05   803.24   803.65   820.92   821.46   826.28
eigval :      833.73   834.19   847.88   855.63   858.57   860.25
eigval :      860.50   862.97   873.35   873.96   876.47   877.82
eigval :      902.19   902.28   912.00   914.06   922.35   922.50
eigval :      927.63   928.18   944.63   973.59   974.01   977.59
eigval :      978.19  1026.24  1027.37  1043.20  1062.32  1062.47
eigval :     1097.48  1097.89  1140.29  1141.27  1149.61  1150.20
eigval :     1169.30  1173.75  1174.35  1191.35  1193.80  1199.81
eigval :     1201.82  1212.48  1214.70  1228.33  1239.00  1245.21
eigval :     1256.36  1265.55  1267.92  1279.08  1281.00  1283.57
eigval :     1294.03  1294.26  1309.80  1311.94  1327.44  1336.86
eigval :     1342.26  1344.13  1361.80  1362.04  1373.30  1386.07
eigval :     1388.03  1411.89  1414.35  1418.26  1421.46  1454.81
eigval :     1483.12  1483.84  1496.90  1498.04  1498.97  1521.45
eigval :     1521.89  1539.88  1556.63  1557.62  1582.26  1585.86
eigval :     1585.88  1588.96  1617.26  1617.41  1632.52  1633.16
eigval :     3057.53  3057.89  3077.24  3077.51  3078.61  3079.20
eigval :     3084.51  3084.95  3087.88  3088.54  3090.78  3093.87
eigval :     3094.78  3095.22  3097.21  3101.42  3107.09  3107.95
eigval :     3108.45  3108.55  3111.72  3111.78  3158.04  3158.28

   temp. (K)  partition function   enthalpy   heat capacity  entropy
                                   cal/mol     cal/K/mol   cal/K/mol   J/K/mol
 298.15  VIB  0.492E+19            20646.763    123.591    134.333
         ROT  0.143E+09              888.752      2.981     40.304
         INT  0.705E+27            21535.516    126.572    174.637
         TR   0.169E+29             1481.254      4.968     45.378
         TOT                       23016.7695   131.5399   220.0150   920.5426

       T/K    H(0)-H(T)+PV         H(T)/Eh          T*S/Eh         G(T)/Eh
   ------------------------------------------------------------------------
    298.15    0.366796E-01    0.525575E+00    0.104536E+00    0.421039E+00
   ------------------------------------------------------------------------

         :::::::::::::::::::::::::::::::::::::::::::::::::::::
         ::                  THERMODYNAMIC                  ::
         :::::::::::::::::::::::::::::::::::::::::::::::::::::
         :: total free energy        -108.783884855687 Eh   ::
         ::.................................................::
         :: total energy             -109.204923503822 Eh   ::
         :: zero point energy           0.488895297459 Eh   ::
         :: G(RRHO) w/o ZPVE           -0.067856649323 Eh   ::
         :: G(RRHO) contrib.            0.421038648135 Eh   ::
         :::::::::::::::::::::::::::::::::::::::::::::::::::::

           -------------------------------------------------
          | TOTAL ENERGY             -109.204923503822 Eh   |
          | TOTAL ENTHALPY           -108.679348649461 Eh   |
          | TOTAL FREE ENERGY        -108.783884855687 Eh   |
          | GRADIENT NORM               0.000029980289 Eh/α |
          | HOMO-LUMO GAP               1.905295353631 eV   |
           -------------------------------------------------

 * finished run on 2025/09/12 at 04:25:03.478
