   * xtb version 6.7.1 (edcfbbe) compiled by 'albert@albert-system' on 2024-07-22

   ID    Z sym.   atoms
    1   35 Br     1, 23
    2    6 C      2-10, 12, 14-22, 24-31, 33, 35-42
    3    7 N      11, 13, 32, 34
    4    1 H      43-66

          program call               : xtb data2507/gas/3BrBI/3BrBI_gas_S0_finalOpt.xtbopt.xyz --gfn 2 --spinpol --tblite --uhf 2 --ohess vtight --parallel 40 --molden --ceasefiles --namespace data2507/gas/3BrBI/3BrBI_gas_T1_preOpt
 * total energy  :  -109.1335857 Eh     change        0.6223618E-07 Eh
 * total energy  :  -109.1408794 Eh     change       -0.7293709E-02 Eh
 * total energy  :  -109.1433002 Eh     change       -0.2420760E-02 Eh
 * total energy  :  -109.1435583 Eh     change       -0.2581227E-03 Eh
 * total energy  :  -109.1438517 Eh     change       -0.2933952E-03 Eh
 * total energy  :  -109.1439901 Eh     change       -0.1383639E-03 Eh
 * total energy  :  -109.1440894 Eh     change       -0.9935852E-04 Eh
 * total energy  :  -109.1441387 Eh     change       -0.4921991E-04 Eh
 * total energy  :  -109.1441888 Eh     change       -0.5012302E-04 Eh
 * total energy  :  -109.1442255 Eh     change       -0.3667798E-04 Eh
 * total energy  :  -109.1444658 Eh     change       -0.4703147E-06 Eh
 * total energy  :  -109.1444662 Eh     change       -0.3427622E-06 Eh
 * total energy  :  -109.1444665 Eh     change       -0.3719783E-06 Eh
 * total energy  :  -109.1444668 Eh     change       -0.2462617E-06 Eh
 * total energy  :  -109.1444671 Eh     change       -0.2802891E-06 Eh
 * total energy  :  -109.1444674 Eh     change       -0.3241572E-06 Eh
 * total energy  :  -109.1444677 Eh     change       -0.3010648E-06 Eh
 * total energy  :  -109.1444679 Eh     change       -0.1750104E-06 Eh
 * total energy  :  -109.1444680 Eh     change       -0.9673040E-07 Eh
   *** GEOMETRY OPTIMIZATION CONVERGED AFTER 41 ITERATIONS ***

 final structure:
================
66
 xtb: 6.7.1 (edcfbbe)
Br          -1.43258298544698        2.86332282270787       -0.69625175113302
C           -0.62401416000414        1.20307839011805       -0.20546877488232
C            0.72793084150404        1.17711349736266       -0.12536146700456
C            1.45444223095039       -0.00084014774502        0.23041402288659
C            2.84570558053955       -0.05093635475284        0.29810759424126
C            3.72688434232499        0.99087170343598        0.04354787456100
C            5.13862886654016        0.90992464282930        0.09613952564841
C            5.90189377871030        2.06093999542118       -0.20976428363193
C            7.27196749901740        2.04274250913374       -0.19349502277601
C            7.95656930219209        0.86458250597685        0.12696595410028
N            9.34817330167252        0.84859105678663        0.13998406888142
C           10.16406791610800        1.84894920359948        0.60958566532281
N           11.42414085303948        1.57280199011022        0.55647818650229
C           11.50368838531108        0.31821715744422        0.00101604596861
C           12.61585712238199       -0.45146910720033       -0.31335383878453
C           12.39797259950953       -1.68286452000830       -0.89730333305014
C           11.11020512329901       -2.13839432892856       -1.18042107184903
C            9.99041864324135       -1.38885709878751       -0.87523080293117
C           10.19870368293229       -0.16264786500978       -0.26320394415593
C            7.22348476712514       -0.28137656632458        0.45380310566963
C            5.85228212471803       -0.26091370477178        0.43877379285234
C            0.62742044620712       -1.14048351145580        0.50753250519748
Br           1.43525281052223       -2.79608033858291        1.01494704005480
C           -0.72458469595644       -1.11437786084825        0.42797320409931
C           -1.45027178554316        0.05952749438374        0.05743043729762
C           -2.83930983174927        0.09885200064408       -0.05048335064714
C           -3.72016924246135       -0.94806114014662        0.18345773805821
C           -5.12719034200652       -0.88946161457533        0.04486530111814
C           -5.83257044769154        0.25538990917876       -0.39021960756117
C           -7.19886741122645        0.24906781666988       -0.50862198155870
C           -7.93569322953738       -0.89854549244329       -0.19621149260687
N           -9.32120781782746       -0.91433663904415       -0.32628694726503
C          -10.07278210785594       -1.95261982728664       -0.82086516620874
N          -11.33707735115405       -1.70237448201815       -0.89525130517280
C          -11.48958811467452       -0.42593084009080       -0.40916159616487
C          -12.63956480873250        0.33266685222047       -0.23561807382864
C          -12.49860709960583        1.59425813661974        0.30595325082402
C          -11.25091148030200        2.09027934756176        0.68432219648846
C          -10.09455383444394        1.35226284798327        0.51963064461826
C          -10.22318182813306        0.09506693908250       -0.05006818595426
C           -7.25818966732676       -2.04907907719126        0.22444663562116
C           -5.89302781918532       -2.04093612443425        0.34242952658596
H            1.28551859947392        2.07475505730493       -0.33836223671606
H            3.27406817741531       -1.00388559726963        0.57232968521198
H            3.32899120538528        1.95868217035863       -0.22732472923138
H            5.38557305418218        2.97287131696414       -0.47212184705428
H            7.83184650191794        2.92993425450277       -0.44959990305716
H            9.76518655371392        2.75878232169095        1.01502162238278
H           13.60839378054990       -0.08315968490290       -0.11123627878608
H           13.24072590459578       -2.30727677497697       -1.15352179648497
H           10.98499928582594       -3.10046061484451       -1.65428223964985
H            9.00083617711036       -1.74341615935699       -1.11974076625385
H            7.74730132491743       -1.17847942764674        0.74653674916644
H            5.31833050352019       -1.15876805841322        0.70560066013492
H           -1.28262418718476       -2.01009040754506        0.64785002436888
H           -3.26597278074077        1.04531787362990       -0.34874251234468
H           -3.32583746788219       -1.90333662269944        0.50017478936316
H           -5.29483517724364        1.15271736040167       -0.65112507463061
H           -7.71313006212222        1.12443944926312       -0.87471927276402
H           -9.62230412051893       -2.87061070412324       -1.14583132130273
H          -13.60229747165025       -0.06637496411798       -0.51047762950145
H          -13.37232863156613        2.21131844476984        0.45296021522069
H          -11.18716874325747        3.07565564162843        1.12107646566767
H           -9.13859791329868        1.73953903714205        0.83728493028661
H           -7.82121463321205       -2.93608824084277        0.47415510162033
H           -5.38328154306169       -2.93218098170735        0.67840885150395

 projected vibrational frequencies (cm⁻¹)
eigval :       -0.00    -0.00    -0.00     0.00     0.00     0.00
eigval :        4.83     9.62    12.19    14.55    20.58    26.56
eigval :       32.34    56.31    56.90    58.28    61.83    72.42
eigval :       78.50   101.05   103.74   112.96   133.73   152.13
eigval :      158.14   182.39   183.19   194.03   199.19   208.37
eigval :      216.04   216.41   228.99   235.07   247.93   297.21
eigval :      320.70   343.11   356.92   357.41   369.22   374.48
eigval :      378.01   385.86   394.51   395.88   397.80   397.94
eigval :      410.51   460.75   463.56   487.55   498.58   498.66
eigval :      532.12   536.23   546.47   547.58   549.70   558.30
eigval :      561.08   595.42   596.23   596.64   606.09   615.87
eigval :      616.70   634.19   658.45   673.01   674.95   681.56
eigval :      691.39   712.96   713.46   764.41   764.50   775.62
eigval :      775.75   801.26   801.88   811.38   811.50   827.67
eigval :      829.52   830.61   831.14   833.04   839.87   842.13
eigval :      854.45   857.42   869.88   870.04   873.32   873.47
eigval :      875.65   875.75   901.71   901.73   912.14   912.15
eigval :      917.62   919.84   919.94   925.68   925.69   951.66
eigval :      964.24  1000.71  1017.02  1017.86  1062.16  1062.20
eigval :     1093.10  1095.23  1116.01  1138.19  1139.11  1147.55
eigval :     1148.41  1162.43  1173.10  1173.62  1186.65  1196.88
eigval :     1197.06  1208.17  1210.29  1214.27  1221.71  1238.23
eigval :     1243.03  1246.52  1265.00  1265.50  1276.33  1277.80
eigval :     1290.57  1290.66  1299.77  1309.75  1313.55  1338.75
eigval :     1342.53  1360.66  1361.04  1367.40  1374.99  1376.80
eigval :     1392.37  1395.02  1408.11  1417.18  1427.81  1432.68
eigval :     1443.14  1476.21  1479.55  1486.42  1490.37  1496.26
eigval :     1508.67  1509.01  1515.52  1515.81  1518.14  1553.51
eigval :     1571.00  1581.40  1583.98  1584.34  1610.27  1610.56
eigval :     3068.82  3069.41  3078.58  3078.73  3081.94  3082.06
eigval :     3087.57  3087.73  3090.36  3090.50  3092.37  3092.61
eigval :     3095.86  3096.19  3097.66  3097.88  3109.05  3109.19
eigval :     3110.81  3110.93  3112.62  3112.79  3161.09  3161.33

   temp. (K)  partition function   enthalpy   heat capacity  entropy
                                   cal/mol     cal/K/mol   cal/K/mol   J/K/mol
 298.15  VIB  0.724E+18            20676.632    125.241    132.180
         ROT  0.139E+09              888.752      2.981     40.239
         INT  0.100E+27            21565.384    128.222    172.419
         TR   0.169E+29             1481.254      4.968     45.378
         TOT                       23046.6384   133.1901   217.7968   911.2616

       T/K    H(0)-H(T)+PV         H(T)/Eh          T*S/Eh         G(T)/Eh
   ------------------------------------------------------------------------
    298.15    0.367272E-01    0.522688E+00    0.103482E+00    0.419205E+00
   ------------------------------------------------------------------------

         :::::::::::::::::::::::::::::::::::::::::::::::::::::
         ::                  THERMODYNAMIC                  ::
         :::::::::::::::::::::::::::::::::::::::::::::::::::::
         :: total free energy        -108.725262567793 Eh   ::
         ::.................................................::
         :: total energy             -109.144467978191 Eh   ::
         :: zero point energy           0.485960518435 Eh   ::
         :: G(RRHO) w/o ZPVE           -0.066755108037 Eh   ::
         :: G(RRHO) contrib.            0.419205410398 Eh   ::
         :::::::::::::::::::::::::::::::::::::::::::::::::::::

           -------------------------------------------------
          | TOTAL ENERGY             -109.144467978191 Eh   |
          | TOTAL ENTHALPY           -108.621780303693 Eh   |
          | TOTAL FREE ENERGY        -108.725262567793 Eh   |
          | GRADIENT NORM               0.000033886537 Eh/α |
           -------------------------------------------------

 * finished run on 2025/09/12 at 04:29:43.667
