   * xtb version 6.7.1 (edcfbbe) compiled by 'albert@albert-system' on 2024-07-22

   ID    Z sym.   atoms
    1    6 C      1-15, 17-31, 33, 37-52
    2    7 N      16, 32, 34, 36
    3   16 S      35
    4    1 H      53-84

          program call               : xtb data2507/gas/IABTCN/IABTCN_gas_S0_crest.xyz --gfn 2 --ohess vtight --parallel 40 --molden --ceasefiles --namespace data2507/gas/IABTCN/IABTCN_gas_S0_finalOpt
          :  Hamiltonian                  GFN2-xTB          :
 * total energy  :  -131.9196147 Eh     change       -0.1209102E-07 Eh
 * total energy  :  -131.9196145 Eh     change        0.2186970E-06 Eh
 * total energy  :  -131.9196134 Eh     change        0.1090896E-05 Eh
 * total energy  :  -131.9196184 Eh     change       -0.5034683E-05 Eh
 * total energy  :  -131.9196201 Eh     change       -0.1700687E-05 Eh
 * total energy  :  -131.9196212 Eh     change       -0.1093556E-05 Eh
 * total energy  :  -131.9196235 Eh     change       -0.2294491E-05 Eh
 * total energy  :  -131.9196244 Eh     change       -0.9120712E-06 Eh
 * total energy  :  -131.9196253 Eh     change       -0.9020588E-06 Eh
 * total energy  :  -131.9196268 Eh     change       -0.1414682E-05 Eh
 * total energy  :  -131.9196280 Eh     change       -0.3781723E-06 Eh
 * total energy  :  -131.9196285 Eh     change       -0.4537195E-06 Eh
 * total energy  :  -131.9196290 Eh     change       -0.5881791E-06 Eh
 * total energy  :  -131.9196296 Eh     change       -0.5089730E-06 Eh
 * total energy  :  -131.9196300 Eh     change       -0.4015646E-06 Eh
 * total energy  :  -131.9196303 Eh     change       -0.2971972E-06 Eh
 * total energy  :  -131.9196304 Eh     change       -0.1681159E-06 Eh
 * total energy  :  -131.9196304 Eh     change       -0.1285898E-07 Eh
 * total energy  :  -131.9196305 Eh     change       -0.9863692E-07 Eh
   *** GEOMETRY OPTIMIZATION CONVERGED AFTER 20 ITERATIONS ***

 final structure:
================
84
 xtb: 6.7.1 (edcfbbe)
C           -6.57190057206980       -0.96328414211299        0.27159135173542
C           -5.81176864555913       -0.24257393504783       -0.84593512990317
C           -6.08325232751931       -0.91234131553088       -2.19609621204100
C           -6.15988089901758        1.22960465333681       -0.88462504616184
C           -7.38060626639307        1.82307218023059       -1.11973636576542
C           -7.46480413573526        3.20953953424022       -1.10788859104105
C           -6.34293134873913        3.98651349058380       -0.86503443410048
C           -5.11112382354449        3.39846372427168       -0.62767630232733
C           -5.02447430949861        2.01621724263546       -0.63800840080823
C           -3.89132916326959        1.13334973353442       -0.42907885474253
C           -2.56627665419569        1.40449244666392       -0.13693601724904
C           -1.67032225218832        0.35853441425622        0.02800197940531
C           -2.10740097664996       -0.96492805327129       -0.11690811734068
C           -3.45083268459525       -1.23619452476481       -0.40078518729424
C           -4.33065920968443       -0.19230005152646       -0.54838923458405
N           -1.19909956880537       -2.01255177612814       -0.01307666564862
C           -1.70103086396008       -3.34078376941971        0.05521162295998
C           -2.13604890578915       -3.82764362321941        1.28065480398684
C           -2.64016587130781       -5.11314868551767        1.37012197994641
C           -2.70969555449732       -5.91286268781642        0.24149027818439
C           -2.27806753686390       -5.42565308184258       -0.98137657703984
C           -1.77628317444608       -4.14010113122411       -1.07938294301783
C            0.15050860420013       -1.78529411814590       -0.17843291691684
C            1.04162894387382       -2.82949569353579       -0.44679224641458
C            2.37594042993401       -2.57919568758308       -0.67043351783171
C            2.87363450217127       -1.27471134622692       -0.64325622525352
C            4.28246119661534       -0.98978164043828       -0.86972839360584
C            5.07161874972948       -1.75891557267545       -1.70834600549152
C            6.42469429416459       -1.49768608297236       -1.93333322251452
C            7.07731731926340       -0.44286230349429       -1.32225301961370
C            8.44209890871050       -0.18565319796549       -1.55523312622739
N            9.55476293479137        0.00557991644508       -1.75873591494909
C            6.32271365042844        0.37243707241340       -0.44747343073588
N            6.75307907863754        1.41953012585062        0.25270941003358
S            5.52893385619896        2.00037350786175        1.11506211624839
N            4.39744154539095        0.96146417024651        0.64509254673198
C            4.92642934889183        0.10016709207287       -0.22597888695909
C            1.98422683111781       -0.24170470416296       -0.34231223468049
C            0.65123176738965       -0.47887300251867       -0.08275731428495
C           -0.24313963610718        0.61860641957355        0.46130095190956
C            0.20303049828348        1.97616574373359       -0.05272244820528
C            0.47115131378443        3.05012400171201        0.78296769875030
C            0.86474712033952        4.26877016217359        0.25441095011813
C            0.98849157295337        4.43118342349501       -1.11339611162170
C            0.70727268009908        3.36785360233763       -1.95594535437480
C            0.31538682215848        2.15254286651313       -1.42908058321933
C           -0.13039789953691        0.51765982117172        1.98595254819564
C            1.12728771922118        0.53173879889293        2.58259862508821
C            1.25854080092084        0.42720286882442        3.95463559719882
C            0.13668776247732        0.30081196492873        4.75689719611373
C           -1.11632818211061        0.28808243537652        4.17257074493333
C           -1.24977027356621        0.39684087492652        2.79807464953614
H           -7.64174678652947       -0.93641937218104        0.07882315675424
H           -6.25455061432866       -2.00187810670269        0.33523565561511
H           -6.37942779689122       -0.48121216631676        1.22777059104440
H           -5.76277044205464       -1.95159141402443       -2.17342288506021
H           -7.14544754416050       -0.88021039906534       -2.42669787282915
H           -5.54063632645685       -0.39734303568687       -2.98601465127952
H           -8.26194517975926        1.22779693826754       -1.31079604667778
H           -8.41607676753369        3.68776377708545       -1.29058378219566
H           -6.43145570155655        5.06328408954652       -0.86136339593516
H           -4.23700281012734        4.00428642439958       -0.43974765838076
H           -2.22942276563239        2.42270204819059       -0.01584541835880
H           -3.78306989278121       -2.25792149545562       -0.50541137116069
H           -2.07602539273664       -3.19213720796061        2.15193295286062
H           -2.97765118869931       -5.49156016392818        2.32331335313177
H           -3.10239846805968       -6.91588291659461        0.31368349262422
H           -2.33627508022466       -6.04677492012172       -1.86281924736605
H           -1.44620728039684       -3.74725898541816       -2.03013007950941
H            0.68313442526176       -3.84729011941017       -0.46370947039441
H            3.04411952539022       -3.41013984671712       -0.83949490690499
H            4.62034185534978       -2.58689192677865       -2.23375218109683
H            6.97971171090138       -2.13297589462487       -2.60834034985284
H            2.35479016218420        0.76983735272952       -0.30948954608843
H            0.37179950356785        2.94171860273939        1.85259117256911
H            1.07342627921444        5.09499537885867        0.91851767294981
H            1.29780491491756        5.38151705022623       -1.52289134863286
H            0.79330465746090        3.48716766877125       -3.02617691349053
H            0.09412864256608        1.32484323716482       -2.08838581683561
H            2.01302842595310        0.62826205823698        1.97302271923346
H            2.24315232238075        0.44332391198667        4.39877472866104
H            0.23942240258651        0.21506489163705        5.82865364933641
H           -2.00036963511523        0.19471460148840        4.78689940972370
H           -2.23899664448846        0.39292348149785        2.36473832493363

          :  Hamiltonian                  GFN2-xTB          :
         :: gradient norm              0.000102288497 Eh/a0 ::
         :: HOMO-LUMO gap              1.051408305031 eV    ::
         :: SCC energy              -134.325538222730 Eh    ::
         :: -> dispersion             -0.131169879948 Eh    ::
         :: repulsion energy           2.405907686003 Eh    ::

    * Orbital Energies and Occupations

         #    Occupation            Energy/Eh            Energy/eV
      -------------------------------------------------------------
         1        2.0000           -0.7660581             -20.8455
       ...           ...                  ...                  ...
       111        2.0000           -0.4139196             -11.2633
       112        2.0000           -0.4118147             -11.2060
       113        2.0000           -0.4087307             -11.1221
       114        2.0000           -0.4073011             -11.0832
       115        2.0000           -0.4053394             -11.0298
       116        2.0000           -0.4035181             -10.9803
       117        2.0000           -0.4018874             -10.9359
       118        2.0000           -0.3996038             -10.8738
       119        2.0000           -0.3962088             -10.7814
       120        2.0000           -0.3954455             -10.7606
       121        2.0000           -0.3911263             -10.6431
       122        2.0000           -0.3848736             -10.4729
       123        2.0000           -0.3525143              -9.5924 (HOMO)
       124                         -0.3138758              -8.5410 (LUMO)
       125                         -0.2593170              -7.0564
       126                         -0.2481989              -6.7538
       127                         -0.2441638              -6.6440
       128                         -0.2439806              -6.6391
       129                         -0.2327011              -6.3321
       130                         -0.2293249              -6.2402
       131                         -0.2259416              -6.1482
       132                         -0.2240685              -6.0972
       133                         -0.2233128              -6.0766
       134                         -0.2210572              -6.0153
       ...                                ...                  ...
       245                          1.1827521              32.1843
      -------------------------------------------------------------
                  HL-Gap            0.0386385 Eh            1.0514 eV

     #   Z          covCN         q      C6AA      α(0)
     1   6 C        3.759    -0.098    22.418     6.750
     2   6 C        3.936     0.019    20.193     6.386
     3   6 C        3.758    -0.098    22.424     6.751
     4   6 C        3.057    -0.003    28.049     8.685
     5   6 C        2.915    -0.034    28.847     8.807
     6   6 C        2.922    -0.034    28.848     8.808
     7   6 C        2.921    -0.033    28.821     8.804
     8   6 C        2.914    -0.035    28.868     8.811
     9   6 C        3.038     0.001    27.980     8.676
    10   6 C        3.035    -0.011    28.248     8.718
    11   6 C        2.917    -0.040    29.000     8.831
    12   6 C        2.986    -0.011    28.274     8.722
    13   6 C        2.934     0.054    26.783     8.487
    14   6 C        2.918    -0.060    29.483     8.904
    15   6 C        3.056    -0.003    28.052     8.686
    16   7 N        2.755    -0.062    22.440     7.036
    17   6 C        2.928     0.068    26.476     8.438
    18   6 C        2.923    -0.037    28.912     8.818
    19   6 C        2.920    -0.027    28.669     8.780
    20   6 C        2.920    -0.030    28.746     8.792
    21   6 C        2.920    -0.028    28.705     8.786
    22   6 C        2.921    -0.038    28.936     8.821
    23   6 C        2.930     0.061    26.627     8.463
    24   6 C        2.919    -0.058    29.441     8.898
    25   6 C        2.923    -0.036    28.885     8.814
    26   6 C        2.974    -0.000    28.033     8.685
    27   6 C        2.965     0.008    27.845     8.655
    28   6 C        2.923    -0.041    29.028     8.835
    29   6 C        2.924    -0.022    28.563     8.764
    30   6 C        2.960    -0.001    28.051     8.687
    31   6 C        1.908     0.117    28.217     8.579
    32   7 N        0.911    -0.233    26.104     7.389
    33   6 C        3.361     0.081    23.374     7.589
    34   7 N        1.851    -0.270    27.866     7.824
    35  16 S        2.675     0.346   127.725    19.021
    36   7 N        1.855    -0.271    27.878     7.826
    37   6 C        3.338     0.072    24.029     7.759
    38   6 C        2.930    -0.037    28.912     8.818
    39   6 C        2.990    -0.007    28.190     8.709
    40   6 C        3.923     0.010    20.349     6.411
    41   6 C        2.978     0.015    27.668     8.628
    42   6 C        2.922    -0.035    28.875     8.812
    43   6 C        2.920    -0.030    28.760     8.794
    44   6 C        2.920    -0.032    28.804     8.801
    45   6 C        2.919    -0.030    28.751     8.793
    46   6 C        2.926    -0.032    28.797     8.800
    47   6 C        2.982     0.012    27.736     8.639
    48   6 C        2.924    -0.038    28.938     8.822
    49   6 C        2.920    -0.030    28.754     8.793
    50   6 C        2.919    -0.033    28.813     8.802
    51   6 C        2.920    -0.031    28.785     8.798
    52   6 C        2.923    -0.037    28.921     8.819
    53   1 H        0.925     0.041     2.434     2.440
    54   1 H        0.925     0.038     2.473     2.459
    55   1 H        0.925     0.036     2.507     2.476
    56   1 H        0.925     0.038     2.472     2.459
    57   1 H        0.925     0.041     2.435     2.440
    58   1 H        0.925     0.036     2.501     2.473
    59   1 H        0.926     0.026     2.644     2.543
    60   1 H        0.926     0.028     2.614     2.528
    61   1 H        0.926     0.028     2.612     2.527
    62   1 H        0.926     0.029     2.600     2.521
    63   1 H        0.926     0.034     2.525     2.485
    64   1 H        0.926     0.026     2.647     2.544
    65   1 H        0.926     0.043     2.411     2.428
    66   1 H        0.926     0.040     2.445     2.445
    67   1 H        0.926     0.039     2.461     2.453
    68   1 H        0.926     0.039     2.459     2.452
    69   1 H        0.926     0.042     2.425     2.435
    70   1 H        0.926     0.031     2.571     2.508
    71   1 H        0.926     0.034     2.535     2.490
    72   1 H        0.926     0.044     2.400     2.423
    73   1 H        0.926     0.046     2.371     2.408
    74   1 H        0.926     0.054     2.273     2.358
    75   1 H        0.926     0.033     2.550     2.497
    76   1 H        0.926     0.030     2.593     2.518
    77   1 H        0.926     0.030     2.592     2.518
    78   1 H        0.926     0.029     2.597     2.520
    79   1 H        0.926     0.026     2.643     2.542
    80   1 H        0.926     0.046     2.371     2.408
    81   1 H        0.926     0.029     2.596     2.520
    82   1 H        0.926     0.029     2.603     2.523
    83   1 H        0.926     0.028     2.620     2.531
    84   1 H        0.926     0.029     2.603     2.523

molecular dipole:
                 x           y           z       tot (Debye)
 q only:       -2.783      -1.029       0.411
   full:       -3.129      -1.393       0.291       8.737

 projected vibrational frequencies (cm⁻¹)
eigval :       -0.00    -0.00    -0.00    -0.00     0.00     0.00
eigval :        9.90    16.42    18.40    22.00    25.60    29.58
eigval :       32.11    33.23    46.08    50.23    53.50    57.97
eigval :       70.52    75.04    91.59    92.69   105.49   108.49
eigval :      116.01   134.07   151.64   156.94   161.53   180.83
eigval :      184.81   194.53   202.99   210.44   222.19   225.14
eigval :      231.06   240.85   250.77   255.79   272.84   276.17
eigval :      294.83   302.63   315.01   324.56   329.56   337.87
eigval :      369.30   373.92   375.23   388.06   392.29   402.05
eigval :      407.50   424.31   439.81   448.21   455.43   458.00
eigval :      470.16   483.87   488.37   496.19   505.78   517.03
eigval :      528.40   534.37   546.55   549.98   569.64   575.22
eigval :      585.22   588.76   590.90   592.85   593.65   595.49
eigval :      604.85   608.25   630.58   638.33   655.20   661.63
eigval :      667.70   670.25   672.84   680.48   690.92   698.48
eigval :      702.52   721.00   729.02   734.64   749.05   757.21
eigval :      758.42   776.23   779.56   794.87   818.73   827.45
eigval :      837.01   850.82   866.83   875.06   879.23   879.42
eigval :      879.69   880.75   886.80   895.87   901.93   903.72
eigval :      904.14   905.52   907.80   910.07   910.59   912.89
eigval :      917.83   927.28   931.01   931.72   932.20   933.23
eigval :      934.68   935.91   949.54   951.46   966.39   981.33
eigval :      985.13   998.29  1001.42  1010.45  1013.20  1059.82
eigval :     1070.13  1078.51  1078.63  1088.39  1092.49  1113.83
eigval :     1118.51  1124.49  1129.20  1131.98  1141.89  1152.48
eigval :     1160.86  1176.09  1180.55  1182.31  1182.60  1182.88
eigval :     1185.19  1194.66  1199.55  1204.71  1207.28  1214.15
eigval :     1222.89  1227.24  1237.61  1239.21  1242.15  1253.21
eigval :     1272.17  1273.20  1275.35  1281.45  1288.17  1293.34
eigval :     1304.13  1306.97  1310.70  1317.58  1321.44  1325.75
eigval :     1336.09  1337.53  1343.74  1362.81  1373.72  1382.71
eigval :     1395.46  1411.65  1422.23  1424.95  1432.78  1434.31
eigval :     1435.29  1446.35  1460.22  1469.99  1472.81  1474.61
eigval :     1476.43  1481.95  1487.60  1489.68  1497.86  1502.34
eigval :     1502.91  1521.06  1544.90  1552.25  1573.81  1583.25
eigval :     1586.70  1588.19  1589.91  1593.90  1596.27  1598.95
eigval :     1602.53  1603.14  1611.52  2364.27  3026.19  3030.27
eigval :     3030.37  3034.29  3038.27  3039.11  3069.48  3069.50
eigval :     3071.04  3073.80  3073.91  3076.29  3079.90  3080.72
eigval :     3082.02  3082.45  3083.65  3086.32  3087.09  3088.52
eigval :     3089.79  3089.99  3090.39  3092.72  3093.28  3095.42
eigval :     3095.87  3097.54  3099.69  3100.15  3101.56  3116.79

   temp. (K)  partition function   enthalpy   heat capacity  entropy
                                   cal/mol     cal/K/mol   cal/K/mol   J/K/mol
 298.15  VIB  0.722E+20            25049.546    154.735    156.308
         ROT  0.880E+08              888.752      2.981     39.333
         INT  0.636E+28            25938.298    157.716    195.641
         TR   0.173E+29             1481.254      4.968     45.433
         TOT                       27419.5519   162.6838   241.0737  1008.6525

       T/K    H(0)-H(T)+PV         H(T)/Eh          T*S/Eh         G(T)/Eh
   ------------------------------------------------------------------------
    298.15    0.436958E-01    0.683981E+00    0.114542E+00    0.569439E+00
   ------------------------------------------------------------------------

         :::::::::::::::::::::::::::::::::::::::::::::::::::::
         ::                  THERMODYNAMIC                  ::
         :::::::::::::::::::::::::::::::::::::::::::::::::::::
         :: total free energy        -131.350191515195 Eh   ::
         ::.................................................::
         :: total energy             -131.919630536719 Eh   ::
         :: zero point energy           0.640285093792 Eh   ::
         :: G(RRHO) w/o ZPVE           -0.070846072268 Eh   ::
         :: G(RRHO) contrib.            0.569439021524 Eh   ::
         :::::::::::::::::::::::::::::::::::::::::::::::::::::

           -------------------------------------------------
          | TOTAL ENERGY             -131.919630536719 Eh   |
          | TOTAL ENTHALPY           -131.235649605568 Eh   |
          | TOTAL FREE ENERGY        -131.350191515195 Eh   |
          | GRADIENT NORM               0.000102068162 Eh/α |
          | HOMO-LUMO GAP               1.051406215835 eV   |
           -------------------------------------------------

 * finished run on 2025/07/20 at 01:16:59.225
