   * xtb version 6.7.1 (edcfbbe) compiled by 'albert@albert-system' on 2024-07-22

   ID    Z sym.   atoms
    1    6 C      1-15, 17-31, 33, 37-52
    2    7 N      16, 32, 34, 36
    3   16 S      35
    4    1 H      53-84

          program call               : xtb data2507/gas/IABTCN/IABTCN_gas_T1_crest.xyz --gfn 2 --spinpol --tblite --uhf 2 --ohess vtight --parallel 40 --molden --ceasefiles --namespace data2507/gas/IABTCN/IABTCN_gas_T1_finalOpt
 * total energy  :  -131.8635050 Eh     change        0.1096453E-07 Eh
 * total energy  :  -131.8634999 Eh     change        0.5048100E-05 Eh
 * total energy  :  -131.8635229 Eh     change       -0.2299373E-04 Eh
 * total energy  :  -131.8635250 Eh     change       -0.2057716E-05 Eh
 * total energy  :  -131.8635266 Eh     change       -0.1627986E-05 Eh
 * total energy  :  -131.8635284 Eh     change       -0.1808746E-05 Eh
 * total energy  :  -131.8635315 Eh     change       -0.3137415E-05 Eh
 * total energy  :  -131.8635354 Eh     change       -0.3879572E-05 Eh
 * total energy  :  -131.8635391 Eh     change       -0.3690796E-05 Eh
 * total energy  :  -131.8635417 Eh     change       -0.2607932E-05 Eh
 * total energy  :  -131.8635537 Eh     change       -0.4010521E-06 Eh
 * total energy  :  -131.8635540 Eh     change       -0.2850098E-06 Eh
 * total energy  :  -131.8635542 Eh     change       -0.1950431E-06 Eh
 * total energy  :  -131.8635545 Eh     change       -0.2631594E-06 Eh
 * total energy  :  -131.8635546 Eh     change       -0.1311232E-06 Eh
 * total energy  :  -131.8635545 Eh     change        0.1237512E-06 Eh
 * total energy  :  -131.8635544 Eh     change        0.4555906E-07 Eh
 * total energy  :  -131.8635548 Eh     change       -0.3358072E-06 Eh
 * total energy  :  -131.8635549 Eh     change       -0.9684462E-07 Eh
   *** GEOMETRY OPTIMIZATION CONVERGED AFTER 26 ITERATIONS ***

 final structure:
================
84
 xtb: 6.7.1 (edcfbbe)
C           -6.57439529095518       -0.98853690588570        0.29812023807174
C           -5.81632358909975       -0.26104224222326       -0.81658457632058
C           -6.09317123883254       -0.91972149138815       -2.17131441831197
C           -6.16129229733121        1.21201551015505       -0.84330448752755
C           -7.38194510038943        1.80997131119435       -1.06692221609719
C           -7.46190108414732        3.19667315364167       -1.04530196828569
C           -6.33664823699641        3.97080768197882       -0.80388630184103
C           -5.10521744008726        3.37951534714544       -0.57760416888650
C           -5.02238320650833        1.99578914086868       -0.59770145036461
C           -3.89178909634327        1.11226826889791       -0.39888826721303
C           -2.56415743695717        1.38218771318827       -0.11058457842181
C           -1.66575477437617        0.33839243125420        0.04085822276429
C           -2.10589760131475       -0.98875899617712       -0.11106958928342
C           -3.45587019696108       -1.25876280359194       -0.38614224653129
C           -4.33414666860511       -0.21566860311597       -0.52444840637871
N           -1.20499721042004       -2.03380308352011       -0.02006177638991
C           -1.70714448714984       -3.36613138002909        0.00957320682824
C           -2.12711027461649       -3.89747200508563        1.22121411939943
C           -2.62333424039843       -5.18863586516071        1.26651044900503
C           -2.70055275151913       -5.94531409835476        0.10905244836088
C           -2.28177239332572       -5.41169958277401       -1.09900992426750
C           -1.78519123627277       -4.12152930948457       -1.15384876287735
C            0.14882925641427       -1.81935214450831       -0.09759326273249
C            1.04814761935919       -2.88019377515259       -0.30480567696030
C            2.38497606727644       -2.64987717594894       -0.47994930027817
C            2.91571961107001       -1.33702265716130       -0.45865983440755
C            4.30168119137156       -1.05999990614068       -0.64076847261247
C            5.19184217765303       -2.03181909166588       -1.20450271347838
C            6.51998177953849       -1.80958793081201       -1.39560196362546
C            7.13234297308821       -0.58005566045713       -1.02394223945860
C            8.49872936969077       -0.38037719423855       -1.21382188910230
N            9.63075176825828       -0.24905023519251       -1.38570200163133
C            6.30708765059328        0.41694264402788       -0.46504323002154
N            6.70077327104221        1.61383921428562       -0.05152649164074
S            5.41017895788456        2.42041639329971        0.53306359216618
N            4.29428891561806        1.23397281154688        0.27187379694014
C            4.89152758437418        0.18814063764154       -0.28254171011030
C            2.00074983785923       -0.29218116357432       -0.20379313324676
C            0.66349730040534       -0.51086566898778        0.00009623492447
C           -0.24251681192918        0.60820675851268        0.47030787369456
C            0.21065663383001        1.94251124536124       -0.10055377539115
C            0.40534031922577        3.07111530607348        0.68139868737509
C            0.81111741697371        4.26230467703749        0.10263019184890
C            1.01695601415808        4.34221728101280       -1.26247961894368
C            0.80252940166153        3.22514521628595       -2.05278856058901
C            0.39856450302658        2.03665641177499       -1.47602339542904
C           -0.14199687075459        0.57007388322966        2.00132639223849
C            1.10160430935940        0.72806739858959        2.60621478594071
C            1.22773981292072        0.67938739922433        3.98175169453976
C            0.11580641174993        0.46305312509554        4.77883965156985
C           -1.12251789395345        0.30320828732826        4.18558844051547
C           -1.25195979950622        0.35614612419349        2.80711718353436
H           -7.64453909869015       -0.95544398170280        0.10932209418587
H           -6.26191325813105       -2.02909859510336        0.35123990310550
H           -6.37694791226001       -0.51572006132307        1.25786028453926
H           -5.77920193356050       -1.96101643234997       -2.15679223202494
H           -7.15544948277022       -0.87970664996560       -2.39922356300048
H           -5.54953895467522       -0.40220514212307       -2.95880805728784
H           -8.26578511756420        1.21853065077514       -1.25672758203440
H           -8.41283512048721        3.67821109127892       -1.21939104901843
H           -6.42361780504830        5.04729870689641       -0.79282376190169
H           -4.22847150909628        3.98132110112385       -0.39078204225368
H           -2.22613460716810        2.39920580515476        0.01405611532957
H           -3.78852918967323       -2.27974548317986       -0.49434252504869
H           -2.05988533406714       -3.29595667825845        2.11562184774274
H           -2.94844408841182       -5.60398202794356        2.20819256854071
H           -3.08748232744742       -6.95212046620365        0.14765362908185
H           -2.34279746255419       -6.00021875945693       -2.00188963538999
H           -1.45900143529644       -3.69305353771389       -2.09015071131584
H            0.67699740733738       -3.89394469219444       -0.32124463323639
H            3.03865004474781       -3.49816973604386       -0.60440105170249
H            4.77914167008039       -2.97345790756403       -1.53007532314961
H            7.14463898813999       -2.56979547713473       -1.84098774328391
H            2.38654131137987        0.71305149503576       -0.17262089198715
H            0.24286804933236        3.02678712779347        1.74792847876608
H            0.96766248350173        5.13057496663141        0.72560642150807
H            1.33999892527891        5.27011041666923       -1.71027539467366
H            0.95280902594598        3.27965272872518       -3.12096667629106
H            0.23310961003101        1.16624967704088       -2.09562580665198
H            1.97906704040282        0.89587357274727        2.00104261190215
H            2.20057912234628        0.81001544376886        4.43163224113734
H            0.21472622420041        0.42128161815675        5.85333230981014
H           -1.99939251993500        0.13799042973348        4.79495266471116
H           -2.23275786114048        0.23835827261399        2.37003721053131

 projected vibrational frequencies (cm⁻¹)
eigval :       -0.00    -0.00    -0.00    -0.00    -0.00     0.00
eigval :        6.73    13.36    17.77    18.57    24.92    28.17
eigval :       31.39    32.04    46.74    49.71    51.56    55.11
eigval :       70.19    78.71    87.58    97.06   103.36   104.29
eigval :      110.45   121.63   145.76   157.23   166.73   179.94
eigval :      185.15   193.58   202.30   210.62   219.07   222.29
eigval :      227.86   235.30   247.89   255.73   265.95   272.70
eigval :      292.88   300.66   308.42   314.97   326.37   338.40
eigval :      367.70   370.18   373.13   375.12   387.66   398.78
eigval :      401.56   406.55   425.85   429.24   440.71   451.92
eigval :      459.11   469.92   480.76   496.57   503.54   516.91
eigval :      520.43   532.61   542.73   543.79   565.79   567.68
eigval :      573.09   584.90   586.58   589.55   592.10   593.48
eigval :      598.56   599.47   613.23   631.51   651.37   660.41
eigval :      666.27   669.84   670.59   677.60   686.72   693.87
eigval :      700.12   712.35   721.73   726.89   737.14   755.30
eigval :      757.61   769.68   779.02   781.37   783.75   793.45
eigval :      807.25   824.56   841.91   850.25   873.30   876.74
eigval :      878.12   878.71   879.95   884.35   887.85   894.45
eigval :      899.48   903.38   904.15   906.21   909.61   911.55
eigval :      914.14   928.00   930.35   930.63   931.27   933.25
eigval :      934.70   936.75   944.42   950.50   966.39   978.65
eigval :      984.01   995.62   999.62  1000.43  1012.92  1048.97
eigval :     1069.84  1077.38  1078.17  1088.85  1092.27  1114.13
eigval :     1116.06  1119.00  1127.42  1132.50  1136.69  1151.05
eigval :     1162.36  1175.48  1179.78  1181.68  1182.06  1182.38
eigval :     1184.29  1188.22  1197.56  1204.39  1206.13  1213.11
eigval :     1222.23  1227.97  1235.05  1237.10  1238.18  1241.98
eigval :     1256.66  1271.45  1272.77  1279.67  1285.95  1288.84
eigval :     1293.82  1310.11  1315.31  1317.90  1319.36  1322.58
eigval :     1336.62  1337.19  1349.19  1367.02  1374.07  1391.73
eigval :     1395.33  1410.15  1412.26  1418.71  1428.41  1431.95
eigval :     1433.96  1435.69  1441.70  1448.79  1457.29  1463.47
eigval :     1469.24  1471.69  1474.63  1477.49  1486.15  1487.96
eigval :     1492.67  1496.55  1500.92  1540.54  1555.62  1569.44
eigval :     1582.96  1585.89  1587.37  1590.28  1591.36  1592.33
eigval :     1597.05  1602.31  1606.36  2290.40  3027.77  3032.09
eigval :     3032.86  3035.55  3041.00  3042.50  3068.74  3072.32
eigval :     3074.38  3077.77  3079.30  3081.76  3083.33  3084.38
eigval :     3084.84  3086.31  3086.90  3087.80  3088.06  3091.59
eigval :     3092.22  3093.87  3094.29  3094.65  3097.29  3097.44
eigval :     3100.22  3101.43  3104.67  3107.59  3109.13  3120.31

   temp. (K)  partition function   enthalpy   heat capacity  entropy
                                   cal/mol     cal/K/mol   cal/K/mol   J/K/mol
 298.15  VIB  0.279E+21            25325.538    155.894    158.739
         ROT  0.880E+08              888.752      2.981     39.333
         INT  0.246E+29            26214.290    158.875    198.071
         TR   0.173E+29             1481.254      4.968     45.433
         TOT                       27695.5440   163.8433   243.5038  1018.8200

       T/K    H(0)-H(T)+PV         H(T)/Eh          T*S/Eh         G(T)/Eh
   ------------------------------------------------------------------------
    298.15    0.441357E-01    0.682000E+00    0.115697E+00    0.566304E+00
   ------------------------------------------------------------------------

         :::::::::::::::::::::::::::::::::::::::::::::::::::::
         ::                  THERMODYNAMIC                  ::
         :::::::::::::::::::::::::::::::::::::::::::::::::::::
         :: total free energy        -131.297251267435 Eh   ::
         ::.................................................::
         :: total energy             -131.863554892203 Eh   ::
         :: zero point energy           0.637864489285 Eh   ::
         :: G(RRHO) w/o ZPVE           -0.071560864517 Eh   ::
         :: G(RRHO) contrib.            0.566303624768 Eh   ::
         :::::::::::::::::::::::::::::::::::::::::::::::::::::

           -------------------------------------------------
          | TOTAL ENERGY             -131.863554892203 Eh   |
          | TOTAL ENTHALPY           -131.181554744192 Eh   |
          | TOTAL FREE ENERGY        -131.297251267435 Eh   |
          | GRADIENT NORM               0.000099144963 Eh/α |
           -------------------------------------------------

 * finished run on 2025/07/20 at 01:21:39.762
