   * xtb version 6.7.1 (edcfbbe) compiled by 'albert@albert-system' on 2024-07-22

   ID    Z sym.   atoms
    1    6 C      1-15, 17-31, 33, 37-52
    2    7 N      16, 32, 34, 36
    3   16 S      35
    4    1 H      53-84

          program call               : xtb data2507/gas/IABTCN/IABTCN_gas_S0_finalOpt.xtbopt.xyz --gfn 2 --spinpol --tblite --uhf 2 --ohess vtight --parallel 40 --molden --ceasefiles --namespace data2507/gas/IABTCN/IABTCN_gas_T1_preOpt
 * total energy  :  -131.8566542 Eh     change       -0.2714631E-07 Eh
 * total energy  :  -131.8611348 Eh     change       -0.4480636E-02 Eh
 * total energy  :  -131.8625901 Eh     change       -0.1455298E-02 Eh
 * total energy  :  -131.8626357 Eh     change       -0.4555403E-04 Eh
 * total energy  :  -131.8628189 Eh     change       -0.1832778E-03 Eh
 * total energy  :  -131.8628854 Eh     change       -0.6643593E-04 Eh
 * total energy  :  -131.8629877 Eh     change       -0.1023091E-03 Eh
 * total energy  :  -131.8630581 Eh     change       -0.7039035E-04 Eh
 * total energy  :  -131.8631307 Eh     change       -0.7257038E-04 Eh
 * total energy  :  -131.8631923 Eh     change       -0.6160329E-04 Eh
 * total energy  :  -131.8635483 Eh     change       -0.2749222E-05 Eh
 * total energy  :  -131.8635506 Eh     change       -0.2299169E-05 Eh
 * total energy  :  -131.8635524 Eh     change       -0.1855353E-05 Eh
 * total energy  :  -131.8635536 Eh     change       -0.1181321E-05 Eh
 * total energy  :  -131.8635546 Eh     change       -0.1030034E-05 Eh
 * total energy  :  -131.8635552 Eh     change       -0.5532178E-06 Eh
 * total energy  :  -131.8635554 Eh     change       -0.1893807E-06 Eh
 * total energy  :  -131.8635556 Eh     change       -0.2162479E-06 Eh
 * total energy  :  -131.8635557 Eh     change       -0.9915706E-07 Eh
   *** GEOMETRY OPTIMIZATION CONVERGED AFTER 41 ITERATIONS ***

 final structure:
================
84
 xtb: 6.7.1 (edcfbbe)
C           -6.57884374252616       -0.97251870418439        0.28698796398804
C           -5.82213632643564       -0.23512819266380       -0.82222946971158
C           -6.10004613702041       -0.88236925851657       -2.18217535903705
C           -6.16795917879543        1.23789645827953       -0.83499562299172
C           -7.38858396108846        1.83728564063910       -1.05491093019798
C           -7.46938855032698        3.22365868812486       -1.01996514782351
C           -6.34504275360502        3.99604012850866       -0.76889453337660
C           -5.11368955463103        3.40327935127651       -0.54604015093476
C           -5.02998768819245        2.01986880177218       -0.57953084241314
C           -3.89880531765533        1.13515803259243       -0.38925522634920
C           -2.57134073569759        1.40341336819294       -0.09805558970680
C           -1.67145617353195        0.35894573056043        0.03784397357996
C           -2.10996577804321       -0.96661286942498       -0.13182596888082
C           -3.45998523090045       -1.23532545118577       -0.40701225956659
C           -4.33983005401855       -0.19159886343864       -0.53052617073006
N           -1.20598323373314       -2.01085534839157       -0.06110933387933
C           -1.70610272559142       -3.34360041793177       -0.03344142447302
C           -2.12870231569547       -3.87449376226522        1.17761329256136
C           -2.62402734875563       -5.16592837733331        1.22273530390256
C           -2.69774331960825       -5.92358538120280        0.06565899935901
C           -2.27668996293287       -5.39043429061364       -1.14179623162050
C           -1.78122543792674       -4.09980326985362       -1.19654809600610
C            0.14598914832888       -1.79117784168119       -0.15495111889062
C            1.04644995298333       -2.84454194591887       -0.39222784292127
C            2.37870929301096       -2.60487050058362       -0.58839311478519
C            2.90411557878687       -1.28985288170920       -0.55767973528681
C            4.28310679758619       -1.00230418101824       -0.77273604870388
C            5.16441745675120       -1.96501780360768       -1.36580932877891
C            6.48510615427355       -1.73281525433897       -1.59281312976020
C            7.09900738693729       -0.50034777403019       -1.23374859855775
C            8.45784230210583       -0.28988798167016       -1.46228122731708
N            9.58337226976864       -0.14978304506583       -1.66676234248053
C            6.28269594207975        0.48826738225544       -0.64766318567471
N            6.67920084073997        1.68697423255032       -0.24211033094996
S            5.40047242505780        2.48251871369343        0.38127049335759
N            4.28600413474050        1.28877553554786        0.14829674023704
C            4.87445422560262        0.24861772447786       -0.42552216727978
C            1.99034302622293       -0.25433964623208       -0.26190011589657
C            0.65756282326968       -0.48254880589553       -0.04115096126125
C           -0.24706244666779        0.62065320431937        0.46837115370048
C            0.20082322117552        1.97384674488439       -0.05990540270886
C            0.39659231326148        3.07557003437276        0.75924831612729
C            0.79863329089269        4.28639275383416        0.21999354504884
C            0.99990253069300        4.41288776698483       -1.14224800087187
C            0.78411739978982        3.32304555939716       -1.96933990966573
C            0.38356301624396        2.11506137937020       -1.43206105847476
C           -0.13779576720867        0.53262212045178        1.99651604082746
C            1.11086014048897        0.66440893220578        2.59716443570151
C            1.24674689745578        0.56901815276395        3.96926159172454
C            0.13933031201077        0.33126631824319        4.76660427658240
C           -1.10420935467483        0.19847834700293        4.17756074166659
C           -1.24336812874042        0.29856369479651        2.80263614211941
H           -7.64914439820035       -0.93866455629617        0.09917045863562
H           -6.26545541203666       -2.01322493562666        0.33126380902971
H           -6.38113097895283       -0.50747609267088        1.25047041920357
H           -5.78605441521631       -1.92374588710571       -2.17661139736381
H           -7.16250855451472       -0.84058497492623       -2.40889564769939
H           -5.55707421310432       -0.35830590443121       -2.96577725298398
H           -8.27167397704904        1.24720333357879       -1.25229101083911
H           -8.42023348026803        3.70634003886679       -1.19135047492183
H           -6.43262913112612        5.07232757896818       -0.74771616355865
H           -4.23760855722777        4.00375762681406       -0.35194083206172
H           -2.23492484324732        2.41926635404298        0.03964163035415
H           -3.79101616206902       -2.25534272339546       -0.52864677990751
H           -2.06400055624627       -3.27211592619192        2.07166224918314
H           -2.95111993235572       -5.58079992624338        2.16394334745682
H           -3.08394225248499       -6.93067916121992        0.10407990339449
H           -2.33539632606099       -5.97958998941194       -2.04442179660116
H           -1.45432923631815       -3.67146575371744       -2.13267511508911
H            0.68006832885223       -3.85983093773512       -0.41681511249347
H            3.03315786801979       -3.44836567989219       -0.73839569037122
H            4.75007211132111       -2.90847535850205       -1.68367842255975
H            7.10226408275441       -2.48688888437656       -2.05861429619525
H            2.37398274046387        0.75112843935678       -0.21332090075850
H            0.23783458078152        2.99480482783331        1.82421590323496
H            0.95592925486239        5.13324215818277        0.87161497486915
H            1.32037279715309        5.35587765037808       -1.55928502146847
H            0.93080310640933        3.41404353545540       -3.03551330682067
H            0.21692976445772        1.26608913818182       -2.08036456759282
H            1.98403439106980        0.84846994265421        1.99036405734660
H            2.22332601664554        0.67970710885541        4.41639529645089
H            0.24578263558372        0.25241564376810        5.83829094503542
H           -1.97751503605930        0.01778045745746        4.78766722334014
H           -2.22790011212408        0.20178663329715        2.36873393240552

 projected vibrational frequencies (cm⁻¹)
eigval :       -0.00     0.00     0.00     0.00     0.00     0.00
eigval :        6.24    13.37    17.83    19.72    25.04    28.91
eigval :       31.83    32.17    46.84    49.61    51.66    55.12
eigval :       70.39    78.51    87.85    97.34   103.09   104.73
eigval :      110.70   122.23   145.78   157.10   167.10   179.98
eigval :      185.99   194.11   202.17   210.83   218.78   222.88
eigval :      227.81   235.31   248.24   255.59   265.47   271.90
eigval :      292.58   300.52   308.56   315.45   326.67   338.63
eigval :      367.74   370.10   373.38   375.16   387.50   398.83
eigval :      401.24   406.46   425.68   429.30   440.51   451.86
eigval :      459.24   469.80   480.74   496.80   503.80   516.87
eigval :      520.34   532.67   542.84   543.87   565.80   567.69
eigval :      572.96   584.89   586.51   589.38   592.11   593.32
eigval :      598.61   599.47   613.23   631.81   651.01   660.43
eigval :      666.36   669.81   670.69   677.90   686.68   693.94
eigval :      700.30   712.42   721.77   726.54   737.39   755.33
eigval :      757.71   769.59   779.18   781.38   783.51   793.37
eigval :      806.82   824.86   842.52   850.48   873.36   877.09
eigval :      878.42   878.87   880.08   884.27   887.91   894.52
eigval :      899.28   903.50   904.21   906.50   909.70   911.72
eigval :      914.32   928.20   930.54   930.85   931.51   933.34
eigval :      934.78   936.47   944.26   950.46   966.48   978.43
eigval :      984.05   995.61   999.84  1000.19  1013.02  1048.65
eigval :     1069.52  1077.39  1078.25  1088.78  1092.14  1114.15
eigval :     1116.03  1118.76  1127.46  1131.98  1136.64  1150.91
eigval :     1162.05  1175.37  1179.86  1181.88  1182.08  1182.32
eigval :     1184.10  1188.50  1196.08  1204.21  1205.93  1212.94
eigval :     1221.19  1228.05  1235.41  1236.97  1238.44  1242.90
eigval :     1257.13  1271.40  1272.82  1279.76  1286.69  1288.66
eigval :     1293.38  1310.20  1315.40  1317.92  1319.52  1322.63
eigval :     1336.57  1337.48  1349.05  1366.84  1374.28  1392.05
eigval :     1395.63  1410.46  1412.71  1418.87  1428.67  1431.87
eigval :     1434.12  1435.46  1441.88  1448.91  1457.38  1463.97
eigval :     1469.19  1471.55  1474.69  1477.15  1486.41  1488.30
eigval :     1491.89  1496.80  1501.25  1540.69  1555.59  1569.48
eigval :     1582.97  1585.96  1587.63  1590.43  1591.41  1592.21
eigval :     1597.22  1602.58  1606.38  2290.39  3027.47  3031.80
eigval :     3032.65  3035.30  3040.14  3041.79  3069.03  3072.19
eigval :     3074.20  3077.65  3079.10  3081.50  3083.29  3084.53
eigval :     3084.81  3086.03  3086.66  3087.42  3088.19  3091.30
eigval :     3091.96  3093.50  3094.03  3094.46  3097.11  3097.22
eigval :     3100.74  3101.39  3104.40  3106.32  3109.63  3119.14

   temp. (K)  partition function   enthalpy   heat capacity  entropy
                                   cal/mol     cal/K/mol   cal/K/mol   J/K/mol
 298.15  VIB  0.266E+21            25318.764    155.917    158.697
         ROT  0.881E+08              888.752      2.981     39.335
         INT  0.234E+29            26207.516    158.898    198.032
         TR   0.173E+29             1481.254      4.968     45.433
         TOT                       27688.7703   163.8659   243.4649  1018.6571

       T/K    H(0)-H(T)+PV         H(T)/Eh          T*S/Eh         G(T)/Eh
   ------------------------------------------------------------------------
    298.15    0.441249E-01    0.681995E+00    0.115678E+00    0.566317E+00
   ------------------------------------------------------------------------

         :::::::::::::::::::::::::::::::::::::::::::::::::::::
         ::                  THERMODYNAMIC                  ::
         :::::::::::::::::::::::::::::::::::::::::::::::::::::
         :: total free energy        -131.297238637811 Eh   ::
         ::.................................................::
         :: total energy             -131.863555761482 Eh   ::
         :: zero point energy           0.637870283295 Eh   ::
         :: G(RRHO) w/o ZPVE           -0.071553159623 Eh   ::
         :: G(RRHO) contrib.            0.566317123671 Eh   ::
         :::::::::::::::::::::::::::::::::::::::::::::::::::::

           -------------------------------------------------
          | TOTAL ENERGY             -131.863555761482 Eh   |
          | TOTAL ENTHALPY           -131.181560613976 Eh   |
          | TOTAL FREE ENERGY        -131.297238637811 Eh   |
          | GRADIENT NORM               0.000189998960 Eh/α |
           -------------------------------------------------

 * finished run on 2025/07/20 at 01:17:10.347
