   * xtb version 6.7.1 (edcfbbe) compiled by 'albert@albert-system' on 2024-07-22

   ID    Z sym.   atoms
    1    6 C      1-15, 17-31, 33, 37-52
    2    7 N      16, 32, 34, 36
    3   16 S      35
    4    1 H      53-84

          program call               : xtb data2507/gas/IABTCN/IABTCN.xyz --gfn 2 --ohess vtight --parallel 40 --molden --ceasefiles --namespace data2507/gas/IABTCN/IABTCN_gas_S0_preOpt
          :  Hamiltonian                  GFN2-xTB          :
 * total energy  :  -131.8590031 Eh     change       -0.6145143E-08 Eh
 * total energy  :  -131.8824736 Eh     change       -0.2347049E-01 Eh
 * total energy  :  -131.8921123 Eh     change       -0.9638699E-02 Eh
 * total energy  :  -131.8956336 Eh     change       -0.3521244E-02 Eh
 * total energy  :  -131.8972810 Eh     change       -0.1647412E-02 Eh
 * total energy  :  -131.8967157 Eh     change        0.5653083E-03 Eh
 * total energy  :  -131.8981490 Eh     change       -0.1433295E-02 Eh
 * total energy  :  -131.8984179 Eh     change       -0.2689662E-03 Eh
 * total energy  :  -131.8987424 Eh     change       -0.3244989E-03 Eh
 * total energy  :  -131.8991055 Eh     change       -0.3631034E-03 Eh
 * total energy  :  -131.9007072 Eh     change       -0.1370246E-06 Eh
 * total energy  :  -131.9007073 Eh     change       -0.1044997E-06 Eh
 * total energy  :  -131.9007075 Eh     change       -0.1335800E-06 Eh
 * total energy  :  -131.9007076 Eh     change       -0.1424684E-06 Eh
 * total energy  :  -131.9007077 Eh     change       -0.1332479E-06 Eh
 * total energy  :  -131.9007079 Eh     change       -0.1397441E-06 Eh
 * total energy  :  -131.9007080 Eh     change       -0.1474941E-06 Eh
 * total energy  :  -131.9007082 Eh     change       -0.1762037E-06 Eh
 * total energy  :  -131.9007082 Eh     change       -0.2717115E-09 Eh
   *** GEOMETRY OPTIMIZATION CONVERGED AFTER 68 ITERATIONS ***

 final structure:
================
84
 xtb: 6.7.1 (edcfbbe)
C           -5.62113189528665       -0.48426179801195       -0.49525148696611
C           -4.60908897180428        0.23223359002759       -1.39477651991436
C           -4.63723105410076       -0.35818114213454       -2.80742815247173
C           -4.85906720586717        1.72422818136337       -1.41987733742098
C           -5.96891174846160        2.40728469212646       -1.86628801995699
C           -5.97806983452492        3.79418520595223       -1.78962465310439
C           -4.89191029950541        4.48311937369377       -1.27332715743492
C           -3.77175465956279        3.80438231114980       -0.82160375535766
C           -3.75922477373075        2.42145914881944       -0.89777720582659
C           -2.74783889402549        1.45629039446286       -0.50497853433864
C           -1.51473640403075        1.63705439482727        0.10254246282712
C           -0.75686773250694        0.52378220760598        0.42028639523664
C           -1.15975803044457       -0.74423427011705       -0.04108824898906
C           -2.42307496378482       -0.93247462849470       -0.59874816639196
C           -3.22103775350128        0.17015891941004       -0.79948721757561
N           -0.20880767582715       -1.76669220011525       -0.01460744725086
C           -0.61530841639532       -3.11129182844389       -0.22792227367506
C           -0.83601156765774       -3.91664411277036        0.88057486663910
C           -1.23801445278704       -5.22955313879937        0.70626885122556
C           -1.42029146455421       -5.73842066903108       -0.56862431693595
C           -1.20242842404298       -4.93308806752172       -1.67446415595516
C           -0.80123099312330       -3.61946804965139       -1.50853427037526
C            1.09786105404561       -1.37796230510464       -0.25647749083557
C            2.00594814843475       -2.14995573835159       -0.97663505068452
C            3.20927301569783       -1.60675581942463       -1.37072997909951
C            3.50804535531527       -0.26637300977005       -1.11445654849681
C            4.71706740063817        0.35351121853307       -1.64131787798568
C            4.76918441450573        1.70067423826255       -1.95922305027629
C            5.91171449963666        2.32363676225898       -2.46591216445025
C            7.08641355719106        1.62878960070692       -2.68405920497380
C            8.23603457830656        2.26154337271907       -3.19555328524895
N            9.16204424019867        2.79456713850831       -3.61288663215319
C            7.09366744116524        0.24929534842705       -2.37453363839360
N            8.11285552612595       -0.59766956332652       -2.49678774933014
S            7.63599459167016       -2.05016153094944       -2.00534306997980
N            6.12110080604131       -1.68207552369894       -1.61849598573446
C            5.90834728227856       -0.38763672959952       -1.85984366132677
C            2.62883257979327        0.47280373819483       -0.31450606070334
C            1.48730850631433       -0.10083321911973        0.19889368855136
C            0.53137262199472        0.48218527801572        1.21849654575269
C            0.95261717056364        1.72068443470138        1.98409450431550
C            0.00316529295190        2.56807541605264        2.54909462972050
C            0.38174151198448        3.65575279372534        3.31550129493932
C            1.71887542991019        3.90386660400185        3.56765913657803
C            2.66707188527147        3.01740295008018        3.08998336385571
C            2.28663931549725        1.92991620909883        2.32415272548651
C            0.36077426302462       -0.53436180791669        2.35963038810674
C            1.43656131322173       -1.29897061894406        2.79180718017628
C            1.29229724427902       -2.18360275909580        3.84543150078732
C            0.07294760181122       -2.30923607849846        4.48861222356688
C           -0.99918007808086       -1.53754512070719        4.07430186269393
C           -0.85514923701148       -0.65350387992036        3.02007375681481
H           -6.62492892228238       -0.38403082796328       -0.90126365336969
H           -5.37745134483572       -1.54189058483560       -0.42192949241765
H           -5.60638182225651       -0.05394333854233        0.50391658499266
H           -4.39771420984410       -1.41880589137773       -2.77898320270001
H           -5.62403187389041       -0.23624449163207       -3.24766677932339
H           -3.91006249325270        0.14695804850724       -3.43973432117374
H           -6.82183626658801        1.88082069172368       -2.26988294107000
H           -6.84212845395564        4.34212754420806       -2.13613258707777
H           -4.92040579283299        5.56197717793410       -1.22274791701043
H           -2.92656208601890        4.34363713512064       -0.41974065335015
H           -1.15971567059371        2.63105725461845        0.32242041479283
H           -2.74742714253393       -1.92011617633612       -0.88960822771450
H           -0.68982783123772       -3.50635584572931        1.86858545424736
H           -1.40861941615353       -5.85620074267767        1.56875958102869
H           -1.73348453585567       -6.76304728460275       -0.70191530246205
H           -1.34682685979127       -5.32808261578196       -2.66923781857762
H           -0.63419615322981       -2.98143726483787       -2.36464862416815
H            1.75680548204318       -3.16400142580183       -1.24914811957526
H            3.90613732584188       -2.20664191783540       -1.93237559708631
H            3.88073105796616        2.30102478857169       -1.83507502064766
H            5.87757640271367        3.37780413887455       -2.69979195709042
H            2.87257289204311        1.49316185630824       -0.06544100171150
H           -1.04854374225507        2.36852348833852        2.42098377262702
H           -0.37694114571146        4.30467962708887        3.72851070394516
H            2.01583274075704        4.75759905190543        4.15830216213735
H            3.71160082243308        3.16266841673459        3.32478007330561
H            3.04310145245479        1.22437989329662        2.01981085895467
H            2.39238526953704       -1.21479461391864        2.29586080674114
H            2.13638206200702       -2.77785333974202        4.16350583401108
H           -0.04048895944829       -3.00226341386921        5.30920423776144
H           -1.95399300556682       -1.62463651886290        4.57217569699377
H           -1.70118989693288       -0.06200373208347        2.70226902727307

          :  Hamiltonian                  GFN2-xTB          :
         :: gradient norm              0.000081411404 Eh/a0 ::
         :: HOMO-LUMO gap              1.143002741262 eV    ::
         :: SCC energy              -134.303721292480 Eh    ::
         :: -> dispersion             -0.131702044048 Eh    ::
         :: repulsion energy           2.403013080882 Eh    ::

    * Orbital Energies and Occupations

         #    Occupation            Energy/Eh            Energy/eV
      -------------------------------------------------------------
         1        2.0000           -0.7669982             -20.8711
       ...           ...                  ...                  ...
       111        2.0000           -0.4144165             -11.2768
       112        2.0000           -0.4138644             -11.2618
       113        2.0000           -0.4099042             -11.1541
       114        2.0000           -0.4089042             -11.1269
       115        2.0000           -0.4080262             -11.1030
       116        2.0000           -0.4043828             -11.0038
       117        2.0000           -0.4031373             -10.9699
       118        2.0000           -0.4011263             -10.9152
       119        2.0000           -0.3988633             -10.8536
       120        2.0000           -0.3923411             -10.6761
       121        2.0000           -0.3884283             -10.5697
       122        2.0000           -0.3804406             -10.3523
       123        2.0000           -0.3567576              -9.7079 (HOMO)
       124                         -0.3147530              -8.5649 (LUMO)
       125                         -0.2594629              -7.0603
       126                         -0.2479885              -6.7481
       127                         -0.2431614              -6.6168
       128                         -0.2415858              -6.5739
       129                         -0.2391483              -6.5076
       130                         -0.2312873              -6.2936
       131                         -0.2302936              -6.2666
       132                         -0.2279176              -6.2020
       133                         -0.2232862              -6.0759
       134                         -0.2207659              -6.0073
       ...                                ...                  ...
       245                          1.1822026              32.1694
      -------------------------------------------------------------
                  HL-Gap            0.0420046 Eh            1.1430 eV

     #   Z          covCN         q      C6AA      α(0)
     1   6 C        3.759    -0.098    22.416     6.750
     2   6 C        3.936     0.019    20.189     6.385
     3   6 C        3.758    -0.098    22.422     6.751
     4   6 C        3.056    -0.003    28.050     8.686
     5   6 C        2.915    -0.034    28.843     8.807
     6   6 C        2.922    -0.034    28.848     8.808
     7   6 C        2.921    -0.033    28.826     8.805
     8   6 C        2.914    -0.036    28.885     8.813
     9   6 C        3.038     0.000    27.987     8.677
    10   6 C        3.037    -0.012    28.277     8.722
    11   6 C        2.914    -0.044    29.093     8.845
    12   6 C        3.014    -0.011    28.273     8.722
    13   6 C        2.955     0.053    26.801     8.491
    14   6 C        2.915    -0.058    29.431     8.896
    15   6 C        3.057    -0.005    28.080     8.690
    16   7 N        2.756    -0.072    22.643     7.067
    17   6 C        2.923     0.068    26.487     8.440
    18   6 C        2.923    -0.037    28.925     8.820
    19   6 C        2.920    -0.027    28.664     8.780
    20   6 C        2.920    -0.030    28.737     8.791
    21   6 C        2.920    -0.029    28.718     8.788
    22   6 C        2.921    -0.037    28.926     8.820
    23   6 C        2.952     0.062    26.616     8.462
    24   6 C        2.916    -0.054    29.347     8.883
    25   6 C        2.924    -0.034    28.854     8.809
    26   6 C        2.975    -0.001    28.036     8.685
    27   6 C        2.965     0.008    27.836     8.654
    28   6 C        2.924    -0.041    29.022     8.834
    29   6 C        2.924    -0.022    28.555     8.763
    30   6 C        2.960    -0.000    28.035     8.685
    31   6 C        1.908     0.117    28.214     8.578
    32   7 N        0.911    -0.232    26.078     7.386
    33   6 C        3.362     0.081    23.339     7.578
    34   7 N        1.851    -0.269    27.845     7.821
    35  16 S        2.677     0.345   127.773    19.025
    36   7 N        1.855    -0.267    27.786     7.813
    37   6 C        3.338     0.071    24.041     7.760
    38   6 C        2.925    -0.043    29.070     8.842
    39   6 C        3.012    -0.007    28.182     8.708
    40   6 C        3.931     0.012    20.317     6.406
    41   6 C        2.991     0.015    27.679     8.630
    42   6 C        2.926    -0.038    28.942     8.822
    43   6 C        2.920    -0.031    28.776     8.797
    44   6 C        2.919    -0.032    28.806     8.801
    45   6 C        2.920    -0.031    28.779     8.797
    46   6 C        2.926    -0.039    28.959     8.825
    47   6 C        3.003     0.014    27.676     8.630
    48   6 C        2.923    -0.034    28.857     8.809
    49   6 C        2.920    -0.030    28.757     8.794
    50   6 C        2.920    -0.034    28.836     8.806
    51   6 C        2.920    -0.031    28.769     8.796
    52   6 C        2.923    -0.034    28.854     8.809
    53   1 H        0.925     0.041     2.434     2.440
    54   1 H        0.925     0.039     2.466     2.456
    55   1 H        0.925     0.036     2.507     2.476
    56   1 H        0.925     0.038     2.472     2.459
    57   1 H        0.925     0.041     2.436     2.441
    58   1 H        0.925     0.036     2.509     2.477
    59   1 H        0.926     0.026     2.643     2.542
    60   1 H        0.926     0.028     2.614     2.529
    61   1 H        0.926     0.028     2.613     2.528
    62   1 H        0.926     0.028     2.609     2.526
    63   1 H        0.926     0.040     2.445     2.445
    64   1 H        0.926     0.027     2.634     2.538
    65   1 H        0.926     0.044     2.399     2.422
    66   1 H        0.926     0.040     2.451     2.448
    67   1 H        0.926     0.039     2.463     2.454
    68   1 H        0.926     0.039     2.467     2.456
    69   1 H        0.926     0.041     2.431     2.438
    70   1 H        0.926     0.033     2.551     2.498
    71   1 H        0.926     0.053     2.286     2.364
    72   1 H        0.926     0.045     2.382     2.414
    73   1 H        0.926     0.047     2.364     2.404
    74   1 H        0.926     0.043     2.415     2.430
    75   1 H        0.926     0.037     2.488     2.467
    76   1 H        0.926     0.029     2.595     2.519
    77   1 H        0.926     0.030     2.593     2.518
    78   1 H        0.926     0.029     2.602     2.522
    79   1 H        0.926     0.035     2.521     2.483
    80   1 H        0.926     0.029     2.602     2.522
    81   1 H        0.926     0.030     2.585     2.514
    82   1 H        0.926     0.029     2.598     2.520
    83   1 H        0.926     0.029     2.596     2.520
    84   1 H        0.926     0.029     2.594     2.518

molecular dipole:
                 x           y           z       tot (Debye)
 q only:       -2.380      -1.670       0.709
   full:       -2.836      -1.660       0.838       8.619

 projected vibrational frequencies (cm⁻¹)
eigval :       -0.00    -0.00     0.00     0.00     0.00     0.00
eigval :       12.82    17.67    19.12    25.81    28.18    30.76
eigval :       37.49    40.79    50.71    53.78    64.05    69.46
eigval :       76.07    82.81    94.75   104.00   106.78   116.91
eigval :      124.15   142.16   152.43   153.51   168.33   181.39
eigval :      184.97   194.89   201.98   216.86   223.26   227.02
eigval :      230.73   241.37   245.75   255.24   264.66   276.93
eigval :      284.65   307.77   316.93   326.00   336.09   341.21
eigval :      373.00   375.74   378.73   387.97   398.07   406.98
eigval :      417.56   421.44   441.27   446.27   451.90   461.82
eigval :      471.55   478.80   488.72   506.02   515.59   519.29
eigval :      527.23   535.31   546.81   555.25   567.70   573.12
eigval :      583.55   588.53   591.74   592.95   593.89   596.51
eigval :      602.73   619.51   626.06   627.86   647.99   656.83
eigval :      665.52   669.81   683.58   687.34   693.49   702.02
eigval :      706.00   720.99   728.75   734.73   747.30   753.31
eigval :      765.11   771.02   779.32   790.13   819.87   823.70
eigval :      835.83   852.61   865.08   866.79   876.49   878.51
eigval :      879.07   881.93   887.12   897.81   900.96   903.38
eigval :      905.70   907.47   909.92   910.45   913.00   918.56
eigval :      924.66   927.21   929.39   931.92   933.41   936.09
eigval :      942.52   950.18   956.13   962.67   966.36   979.01
eigval :      984.65   994.61  1001.69  1012.52  1013.02  1059.23
eigval :     1068.99  1078.90  1079.39  1088.11  1092.94  1113.33
eigval :     1115.07  1120.45  1124.60  1130.57  1136.17  1147.13
eigval :     1153.24  1175.59  1180.20  1180.66  1181.71  1182.49
eigval :     1183.24  1186.59  1186.71  1197.07  1205.41  1209.70
eigval :     1213.66  1224.48  1233.78  1236.56  1254.35  1257.78
eigval :     1262.43  1272.50  1274.98  1282.53  1288.77  1295.72
eigval :     1306.08  1308.21  1310.83  1314.94  1321.20  1322.30
eigval :     1333.28  1334.61  1343.76  1358.62  1369.31  1373.27
eigval :     1395.47  1411.90  1421.79  1426.90  1432.81  1434.96
eigval :     1438.85  1444.61  1460.26  1466.72  1470.07  1472.62
eigval :     1478.38  1481.76  1487.57  1489.62  1497.90  1498.01
eigval :     1502.77  1521.50  1539.82  1553.40  1564.52  1581.90
eigval :     1583.85  1586.34  1589.91  1593.47  1595.45  1597.86
eigval :     1600.30  1601.92  1609.32  2365.09  3026.80  3030.07
eigval :     3030.93  3033.93  3038.09  3039.15  3069.87  3072.93
eigval :     3073.51  3073.56  3075.90  3077.13  3077.38  3081.44
eigval :     3082.62  3083.83  3086.25  3087.98  3088.38  3088.54
eigval :     3090.06  3091.05  3093.49  3093.89  3095.84  3097.90
eigval :     3101.47  3102.48  3103.98  3107.73  3109.05  3119.77

   temp. (K)  partition function   enthalpy   heat capacity  entropy
                                   cal/mol     cal/K/mol   cal/K/mol   J/K/mol
 298.15  VIB  0.109E+20            24879.220    155.523    154.325
         ROT  0.964E+08              888.752      2.981     39.515
         INT  0.105E+28            25767.972    158.503    193.841
         TR   0.173E+29             1481.254      4.968     45.433
         TOT                       27249.2260   163.4716   239.2730  1001.1183

       T/K    H(0)-H(T)+PV         H(T)/Eh          T*S/Eh         G(T)/Eh
   ------------------------------------------------------------------------
    298.15    0.434244E-01    0.683993E+00    0.113686E+00    0.570307E+00
   ------------------------------------------------------------------------

         :::::::::::::::::::::::::::::::::::::::::::::::::::::
         ::                  THERMODYNAMIC                  ::
         :::::::::::::::::::::::::::::::::::::::::::::::::::::
         :: total free energy        -131.330401216328 Eh   ::
         ::.................................................::
         :: total energy             -131.900708211596 Eh   ::
         :: zero point energy           0.640568924354 Eh   ::
         :: G(RRHO) w/o ZPVE           -0.070261929085 Eh   ::
         :: G(RRHO) contrib.            0.570306995269 Eh   ::
         :::::::::::::::::::::::::::::::::::::::::::::::::::::

           -------------------------------------------------
          | TOTAL ENERGY             -131.900708211596 Eh   |
          | TOTAL ENTHALPY           -131.216714881556 Eh   |
          | TOTAL FREE ENERGY        -131.330401216328 Eh   |
          | GRADIENT NORM               0.000081320221 Eh/α |
          | HOMO-LUMO GAP               1.143002556013 eV   |
           -------------------------------------------------

 * finished run on 2025/07/20 at 01:12:07.665
