   * xtb version 6.7.1 (edcfbbe) compiled by 'albert@albert-system' on 2024-07-22

   ID    Z sym.   atoms
    1    6 C      1-12, 14-17, 19-22, 24-33, 35-39
    2    7 N      13, 23, 34
    3   16 S      18
    4    1 H      40-60

          program call               : xtb data2507/gas/ZDN/ZDN.xyz --gfn 2 --ohess vtight --parallel 40 --molden --ceasefiles --namespace data2507/gas/ZDN/ZDN_gas_S0_preOpt
          :  Hamiltonian                  GFN2-xTB          :
 * total energy  :   -97.7497677 Eh     change       -0.1490505E-08 Eh
 * total energy  :   -97.7653661 Eh     change       -0.1559839E-01 Eh
 * total energy  :   -97.7690273 Eh     change       -0.3661163E-02 Eh
 * total energy  :   -97.7696714 Eh     change       -0.6441358E-03 Eh
 * total energy  :   -97.7700918 Eh     change       -0.4204048E-03 Eh
 * total energy  :   -97.7702472 Eh     change       -0.1553301E-03 Eh
 * total energy  :   -97.7703548 Eh     change       -0.1076014E-03 Eh
 * total energy  :   -97.7704096 Eh     change       -0.5484357E-04 Eh
 * total energy  :   -97.7704558 Eh     change       -0.4616578E-04 Eh
 * total energy  :   -97.7704801 Eh     change       -0.2428895E-04 Eh
 * total energy  :   -97.7708092 Eh     change       -0.2515787E-05 Eh
 * total energy  :   -97.7708118 Eh     change       -0.2611978E-05 Eh
 * total energy  :   -97.7708141 Eh     change       -0.2343561E-05 Eh
 * total energy  :   -97.7708158 Eh     change       -0.1719765E-05 Eh
 * total energy  :   -97.7708169 Eh     change       -0.1070524E-05 Eh
 * total energy  :   -97.7708177 Eh     change       -0.8167884E-06 Eh
 * total energy  :   -97.7708185 Eh     change       -0.7402428E-06 Eh
 * total energy  :   -97.7708193 Eh     change       -0.8566235E-06 Eh
 * total energy  :   -97.7708193 Eh     change       -0.8769561E-08 Eh
   *** GEOMETRY OPTIMIZATION CONVERGED AFTER 44 ITERATIONS ***

 final structure:
================
60
 xtb: 6.7.1 (edcfbbe)
C            3.91507214231214       -3.18318226677214       -2.61449362983614
C            2.84222037104828       -2.32271637582857       -2.83643211538052
C            2.70383279660024       -1.14387640355798       -2.12901214075812
C            3.66726413651709       -0.84252454674518       -1.17713068293001
C            4.77134090997619       -1.69879283645663       -0.96087410386322
C            4.88880170747562       -2.87792246670319       -1.68488817599096
C            5.58436468546445       -1.07161958731343        0.04309304718364
C            6.76827505060423       -1.42976315269539        0.67433775465799
C            7.28520796344359       -0.58735506271806        1.63800820716718
C            6.62846160876273        0.59095467198034        1.98603151987874
C            5.44972872109007        0.96875950632707        1.37210608248841
C            4.93891000015440        0.13898791266496        0.38427607034694
N            3.78245282392467        0.26538656085287       -0.36026877005653
C            2.88802375969878        1.34251981630210       -0.30856622530284
C            3.37532723261616        2.65124584787956       -0.40886561083173
C            2.51799389283620        3.72963346104169       -0.34940000113645
C            1.15995006572212        3.49347819862232       -0.20616691143186
S           -0.09046662569270        4.71236856539251       -0.10560563259418
C           -1.31608016747142        3.47447305139977        0.05026173541610
C           -2.67572543238714        3.68863354860250        0.20767910627405
C           -3.51156014915023        2.59686669211379        0.31795319141652
C           -3.00021434985339        1.29597381857925        0.24790077395138
N           -3.86294634730448        0.19619293001053        0.35719299224256
C           -5.12931019877573        0.07031005806063       -0.18985932670344
C           -5.79673011741417        0.89524269793467       -1.08413396751042
C           -7.05977630951143        0.51570382824081       -1.49796460451989
C           -7.65249478056397       -0.66152798232397       -1.04787958838669
C           -6.98190141921032       -1.50632831140500       -0.18677833886921
C           -5.71058899887072       -1.14627238775235        0.24039107765965
C           -4.73801949393391       -1.78741222409809        1.07637482381781
C           -4.67092619327187       -2.97040264372469        1.79511281196025
C           -3.49931377897032       -3.22651783336419        2.49001090666277
C           -2.45594548425817       -2.30680353743087        2.44447694439060
N           -2.49025567278471       -1.16931925509163        1.76894332443745
C           -3.60889361512200       -0.92836267058624        1.10574922001897
C           -1.63735737135776        1.08379044688316        0.10752558089474
C           -0.78253087494414        2.17474369633693        0.01787718422800
C            0.65056973660232        2.18637548656524       -0.12239113222673
C            1.52830577208681        1.11007499988155       -0.16328619765232
H            3.98615179797093       -4.09629197242129       -3.18663274005885
H            2.10331490441887       -2.58090151723650       -3.58078242416635
H            1.87823013051691       -0.47554465729443       -2.32263539565531
H            5.72873381931296       -3.53668937236858       -1.52346931589114
H            7.26793508609014       -2.35134975028709        0.41634829796694
H            8.20619187771601       -0.84571676478414        2.13915349030489
H            7.04792598487397        1.22175973762633        2.75592830008469
H            4.93880994152945        1.87437977434504        1.66278769265023
H            4.43410963218332        2.80906148503414       -0.54568143070286
H            2.89223912161272        4.73879482885881       -0.42143863023058
H           -3.06884726006970        4.69202279696620        0.25666452375674
H           -4.56709184496559        2.74572051543162        0.48346528921899
H           -5.34162770459081        1.79640705605167       -1.46482311756724
H           -7.59715289999644        1.14518965162697       -2.19162368436427
H           -8.64300250086798       -0.91964452187314       -1.39115798612135
H           -7.42764718199683       -2.43181452784419        0.14504765614737
H           -5.49847990752023       -3.66453119193676        1.81231159529919
H           -3.38796466436666       -4.13237162314900        3.06492527115250
H           -1.53354763023956       -2.49111201723363        2.97869187979009
H           -1.24950980665575        0.07924689146459        0.08546381118377
H            1.15616710895258        0.10237292791976       -0.06384728190976

          :  Hamiltonian                  GFN2-xTB          :
         :: gradient norm              0.000065809259 Eh/a0 ::
         :: HOMO-LUMO gap              2.561542077260 eV    ::
         :: SCC energy               -99.551789805485 Eh    ::
         :: -> dispersion             -0.085739083077 Eh    ::
         :: repulsion energy           1.780970484999 Eh    ::

    * Orbital Energies and Occupations

         #    Occupation            Energy/Eh            Energy/eV
      -------------------------------------------------------------
         1        2.0000           -0.7301346             -19.8680
       ...           ...                  ...                  ...
        79        2.0000           -0.4222237             -11.4893
        80        2.0000           -0.4202345             -11.4352
        81        2.0000           -0.4183417             -11.3837
        82        2.0000           -0.4165023             -11.3336
        83        2.0000           -0.4157155             -11.3122
        84        2.0000           -0.4031610             -10.9706
        85        2.0000           -0.3986701             -10.8484
        86        2.0000           -0.3900724             -10.6144
        87        2.0000           -0.3863482             -10.5131
        88        2.0000           -0.3764604             -10.2440
        89        2.0000           -0.3721410             -10.1265
        90        2.0000           -0.3701422             -10.0721
        91        2.0000           -0.3593249              -9.7777 (HOMO)
        92                         -0.2651899              -7.2162 (LUMO)
        93                         -0.2614842              -7.1153
        94                         -0.2468460              -6.7170
        95                         -0.2426282              -6.6022
        96                         -0.2370489              -6.4504
        97                         -0.2341068              -6.3704
        98                         -0.2197143              -5.9787
        99                         -0.2108701              -5.7381
       100                         -0.2102630              -5.7215
       101                         -0.1992724              -5.4225
       102                         -0.1966608              -5.3514
       ...                                ...                  ...
       182                          0.7481701              20.3587
      -------------------------------------------------------------
                  HL-Gap            0.0941349 Eh            2.5615 eV

     #   Z          covCN         q      C6AA      α(0)
     1   6 C        2.920    -0.041    29.015     8.833
     2   6 C        2.924    -0.033    28.830     8.805
     3   6 C        2.910    -0.051    29.264     8.870
     4   6 C        3.075     0.046    26.880     8.500
     5   6 C        3.068    -0.017    28.355     8.731
     6   6 C        2.913    -0.033    28.815     8.802
     7   6 C        3.068    -0.017    28.358     8.732
     8   6 C        2.913    -0.033    28.816     8.802
     9   6 C        2.920    -0.041    29.014     8.833
    10   6 C        2.924    -0.033    28.830     8.805
    11   6 C        2.910    -0.051    29.264     8.870
    12   6 C        3.075     0.046    26.880     8.500
    13   7 N        2.803    -0.043    22.074     6.978
    14   6 C        2.911     0.061    26.635     8.463
    15   6 C        2.926    -0.044    29.093     8.845
    16   6 C        2.934    -0.038    28.949     8.824
    17   6 C        3.003     0.035    27.210     8.557
    18  16 S        2.210    -0.083   144.502    20.232
    19   6 C        3.003     0.035    27.206     8.556
    20   6 C        2.935    -0.039    28.960     8.826
    21   6 C        2.925    -0.045    29.119     8.849
    22   6 C        2.912     0.064    26.560     8.451
    23   7 N        2.800    -0.044    22.088     6.980
    24   6 C        3.080     0.047    26.859     8.496
    25   6 C        2.910    -0.049    29.207     8.862
    26   6 C        2.924    -0.031    28.784     8.798
    27   6 C        2.920    -0.039    28.962     8.825
    28   6 C        2.912    -0.031    28.780     8.797
    29   6 C        3.066    -0.017    28.368     8.734
    30   6 C        3.066    -0.028    28.633     8.774
    31   6 C        2.919    -0.017    28.431     8.744
    32   6 C        2.918    -0.052    29.297     8.876
    33   6 C        2.931     0.058    26.702     8.475
    34   7 N        1.832    -0.258    27.560     7.780
    35   6 C        3.093     0.135    24.949     8.187
    36   6 C        2.921    -0.043    29.062     8.840
    37   6 C        3.105     0.000    27.885     8.652
    38   6 C        3.105    -0.000    27.900     8.655
    39   6 C        2.920    -0.046    29.147     8.853
    40   1 H        0.926     0.028     2.619     2.531
    41   1 H        0.926     0.028     2.608     2.525
    42   1 H        0.926     0.026     2.639     2.540
    43   1 H        0.926     0.031     2.573     2.509
    44   1 H        0.926     0.031     2.575     2.509
    45   1 H        0.926     0.028     2.616     2.529
    46   1 H        0.926     0.029     2.600     2.521
    47   1 H        0.926     0.027     2.628     2.535
    48   1 H        0.926     0.048     2.350     2.397
    49   1 H        0.926     0.046     2.369     2.407
    50   1 H        0.926     0.046     2.368     2.406
    51   1 H        0.926     0.047     2.354     2.399
    52   1 H        0.926     0.034     2.530     2.487
    53   1 H        0.926     0.034     2.532     2.488
    54   1 H        0.926     0.032     2.552     2.498
    55   1 H        0.926     0.034     2.527     2.486
    56   1 H        0.926     0.034     2.529     2.487
    57   1 H        0.926     0.033     2.543     2.494
    58   1 H        0.925     0.037     2.496     2.470
    59   1 H        0.926     0.063     2.160     2.298
    60   1 H        0.926     0.051     2.303     2.373

molecular dipole:
                 x           y           z       tot (Debye)
 q only:       -0.428       0.242      -0.178
   full:       -0.748      -0.131      -0.120       1.954

 projected vibrational frequencies (cm⁻¹)
eigval :       -0.00    -0.00    -0.00    -0.00     0.00     0.00
eigval :       15.04    16.10    22.50    34.08    46.15    50.62
eigval :       88.31   101.73   109.48   111.61   120.52   140.34
eigval :      144.02   157.73   169.44   177.56   226.53   237.74
eigval :      270.29   273.54   275.99   279.00   280.18   319.40
eigval :      326.10   365.41   384.67   393.58   397.44   398.91
eigval :      420.10   421.65   424.42   435.83   437.08   441.05
eigval :      457.43   506.15   516.69   519.05   524.54   531.10
eigval :      536.75   541.25   547.25   549.57   571.71   587.80
eigval :      592.63   597.66   625.02   645.56   663.13   666.72
eigval :      668.83   673.76   688.38   690.36   708.51   719.42
eigval :      724.43   741.23   756.49   767.19   769.50   775.39
eigval :      780.81   795.28   816.30   822.43   826.49   857.41
eigval :      866.05   873.35   875.57   884.09   898.16   901.88
eigval :      903.06   903.78   904.26   911.83   914.89   915.93
eigval :      916.86   922.92   925.13   928.61   929.35   999.80
eigval :     1011.30  1013.21  1021.24  1051.88  1070.56  1073.48
eigval :     1073.98  1087.77  1091.10  1114.89  1121.67  1150.58
eigval :     1152.43  1161.67  1164.30  1172.65  1177.59  1181.44
eigval :     1182.79  1189.77  1219.21  1222.73  1224.95  1230.37
eigval :     1237.26  1246.39  1272.29  1286.89  1299.03  1300.49
eigval :     1305.15  1331.95  1335.70  1339.70  1344.16  1352.84
eigval :     1357.53  1360.19  1363.56  1394.25  1405.37  1415.72
eigval :     1424.10  1428.36  1446.74  1459.54  1466.01  1474.96
eigval :     1479.95  1483.54  1488.54  1549.37  1551.97  1564.36
eigval :     1574.15  1574.83  1584.01  1586.92  1589.36  1593.84
eigval :     1599.40  1613.68  1615.23  3063.09  3075.05  3075.59
eigval :     3076.24  3080.36  3080.73  3081.89  3085.93  3087.66
eigval :     3089.38  3094.08  3094.61  3095.05  3096.47  3096.54
eigval :     3099.00  3100.17  3102.10  3105.45  3107.32  3124.08

   temp. (K)  partition function   enthalpy   heat capacity  entropy
                                   cal/mol     cal/K/mol   cal/K/mol   J/K/mol
 298.15  VIB  0.476E+12            16399.680    109.345     98.727
         ROT  0.503E+08              888.752      2.981     38.221
         INT  0.239E+20            17288.432    112.326    136.947
         TR   0.113E+29             1481.254      4.968     44.587
         TOT                       18769.6858   117.2945   181.5341   759.5387

       T/K    H(0)-H(T)+PV         H(T)/Eh          T*S/Eh         G(T)/Eh
   ------------------------------------------------------------------------
    298.15    0.299114E-01    0.478304E+00    0.862527E-01    0.392051E+00
   ------------------------------------------------------------------------

         :::::::::::::::::::::::::::::::::::::::::::::::::::::
         ::                  THERMODYNAMIC                  ::
         :::::::::::::::::::::::::::::::::::::::::::::::::::::
         :: total free energy         -97.378768172391 Eh   ::
         ::.................................................::
         :: total energy              -97.770819320486 Eh   ::
         :: zero point energy           0.448392458721 Eh   ::
         :: G(RRHO) w/o ZPVE           -0.056341310626 Eh   ::
         :: G(RRHO) contrib.            0.392051148095 Eh   ::
         :::::::::::::::::::::::::::::::::::::::::::::::::::::

           -------------------------------------------------
          | TOTAL ENERGY              -97.770819320486 Eh   |
          | TOTAL ENTHALPY            -97.292515463495 Eh   |
          | TOTAL FREE ENERGY         -97.378768172391 Eh   |
          | GRADIENT NORM               0.000065802007 Eh/α |
          | HOMO-LUMO GAP               2.561542236792 eV   |
           -------------------------------------------------

 * finished run on 2025/07/16 at 19:35:12.319
