   * xtb version 6.7.1 (edcfbbe) compiled by 'albert@albert-system' on 2024-07-22

   ID    Z sym.   atoms
    1    6 C      1-12, 14-17, 19-22, 24-33, 35-39
    2    7 N      13, 23, 34
    3   16 S      18
    4    1 H      40-60

          program call               : xtb data2507/gas/ZDN/ZDN_gas_S0_crest.xyz --gfn 2 --ohess vtight --parallel 40 --molden --ceasefiles --namespace data2507/gas/ZDN/ZDN_gas_S0_finalOpt
          :  Hamiltonian                  GFN2-xTB          :
 * total energy  :   -97.7712261 Eh     change       -0.6766072E-09 Eh
 * total energy  :   -97.7712275 Eh     change       -0.1378371E-05 Eh
 * total energy  :   -97.7712298 Eh     change       -0.2340730E-05 Eh
 * total energy  :   -97.7712330 Eh     change       -0.3178031E-05 Eh
 * total energy  :   -97.7712358 Eh     change       -0.2843528E-05 Eh
 * total energy  :   -97.7712384 Eh     change       -0.2612106E-05 Eh
 * total energy  :   -97.7712415 Eh     change       -0.3025962E-05 Eh
 * total energy  :   -97.7712449 Eh     change       -0.3457499E-05 Eh
 * total energy  :   -97.7712477 Eh     change       -0.2770036E-05 Eh
 * total energy  :   -97.7712494 Eh     change       -0.1754413E-05 Eh
 * total energy  :   -97.7712534 Eh     change       -0.7378099E-06 Eh
 * total energy  :   -97.7712541 Eh     change       -0.7745825E-06 Eh
 * total energy  :   -97.7712552 Eh     change       -0.1081223E-05 Eh
 * total energy  :   -97.7712569 Eh     change       -0.1698789E-05 Eh
 * total energy  :   -97.7712592 Eh     change       -0.2244030E-05 Eh
 * total energy  :   -97.7712611 Eh     change       -0.1890673E-05 Eh
 * total energy  :   -97.7712622 Eh     change       -0.1182765E-05 Eh
 * total energy  :   -97.7712629 Eh     change       -0.6424249E-06 Eh
 * total energy  :   -97.7712629 Eh     change       -0.4517887E-08 Eh
   *** GEOMETRY OPTIMIZATION CONVERGED AFTER 22 ITERATIONS ***

 final structure:
================
60
 xtb: 6.7.1 (edcfbbe)
C            7.19054024399629       -0.35516296728482       -2.40631609161389
C            6.51717038379295        0.86418784733043       -2.42803455397045
C            5.38524122651876        1.07744672252164       -1.66486234162296
C            4.93932407361898        0.03705452021205       -0.86233407785340
C            5.60093568266813       -1.21234447759029       -0.85404000950756
C            6.73690952679528       -1.40237738534734       -1.62967590071733
C            4.85510030834652       -2.06348004549238        0.03008247415106
C            5.01641061060755       -3.37686870514764        0.45142877869110
C            4.10623731837113       -3.90046412195454        1.34740753204175
C            3.05442097942102       -3.12703434710719        1.83343054093971
C            2.87326634490505       -1.81802767913965        1.42987725806781
C            3.77184881234581       -1.29334744540826        0.51182439516342
N            3.83667976073376       -0.02492211033017       -0.03314352909711
C            2.94345441612269        1.02197923471026        0.22778873236319
C            3.43528656533806        2.28136431203524        0.59168624511777
C            2.57406385756120        3.32406299541689        0.86213019443368
C            1.20891370175939        3.09814457041965        0.78434452888628
S           -0.05000165818329        4.26748693481434        1.11376744791798
C           -1.28129060916592        3.06982421518219        0.78274700026961
C           -2.65074227513731        3.25914088916621        0.87318122838134
C           -3.48815385044324        2.19990197934794        0.59018695698151
C           -2.96663659928330        0.96281306524327        0.19486002065467
N           -3.82797983913278       -0.10680882708897       -0.08720779916738
C           -5.03970542578625       -0.05089495085531       -0.75574882345716
C           -5.63471153799124        1.00662379653031       -1.42896364250984
C           -6.85186283859550        0.78113601883842       -2.04395460721931
C           -7.46866369988569       -0.46703765657401       -2.00650373788634
C           -6.86745951614650       -1.53396231070310       -1.37001676285015
C           -5.64307676927632       -1.33110296539400       -0.74705354089359
C           -4.74061354212600       -2.20038613414598       -0.05007758913761
C           -4.72339227769685       -3.54148323497708        0.29880413050110
C           -3.61393674261373       -4.00492751296720        0.98838428371249
C           -2.58083889393582       -3.12672377419839        1.30138338745898
N           -2.56884781924978       -1.84202359545441        0.98391133995724
C           -3.62790241779796       -1.40310956024029        0.32408698115376
C           -1.59587014929601        0.77198596968391        0.11624088455911
C           -0.74200601346082        1.82402427425952        0.41980771199800
C            0.69741279343807        1.83959162565519        0.42546397806485
C            1.57675148531841        0.80379045897977        0.13672988913031
H            8.07351986837214       -0.48108585289817       -3.01509056602614
H            6.88571274608687        1.65986486906967       -3.05867865092739
H            4.86008348443195        2.02000659721192       -1.70404493319317
H            7.24845016421360       -2.35309657165098       -1.62558792684605
H            5.84095964884940       -3.97029580109820        0.08601456337343
H            4.21205766380456       -4.92043171578119        1.68610852406085
H            2.36616443075619       -3.55872599033437        2.54510341625029
H            2.06421847049601       -1.22427288171163        1.82768982366250
H            4.50138755787738        2.42538076960603        0.67695643186983
H            2.95193604845597        4.29441525284468        1.14374632790046
H           -3.05177527821741        4.21395460548015        1.17526215595165
H           -4.55490209012598        2.31777672151532        0.69903080161511
H           -5.15774624891908        1.97232558768304       -1.49237917598557
H           -7.33275085092766        1.59167215719332       -2.57117152065028
H           -8.42176266039364       -0.60067148083615       -2.49569975743781
H           -7.33026394858375       -2.50917903549527       -1.35991603658628
H           -5.54159680365900       -4.19863581614321        0.04255383020126
H           -3.54309604617740       -5.03997948457257        1.28359627504681
H           -1.70613227154084       -3.47142370871192        1.83640790663118
H           -1.20248965188973       -0.19164767580306       -0.16049608881111
H            1.19871830683491       -0.16142154921501       -0.16180950368995

          :  Hamiltonian                  GFN2-xTB          :
         :: gradient norm              0.000049875059 Eh/a0 ::
         :: HOMO-LUMO gap              2.554576047449 eV    ::
         :: SCC energy               -99.552391842865 Eh    ::
         :: -> dispersion             -0.086190089094 Eh    ::
         :: repulsion energy           1.781128951343 Eh    ::

    * Orbital Energies and Occupations

         #    Occupation            Energy/Eh            Energy/eV
      -------------------------------------------------------------
         1        2.0000           -0.7300043             -19.8644
       ...           ...                  ...                  ...
        79        2.0000           -0.4221718             -11.4879
        80        2.0000           -0.4199312             -11.4269
        81        2.0000           -0.4182406             -11.3809
        82        2.0000           -0.4161616             -11.3243
        83        2.0000           -0.4153954             -11.3035
        84        2.0000           -0.4028716             -10.9627
        85        2.0000           -0.3985953             -10.8463
        86        2.0000           -0.3901090             -10.6154
        87        2.0000           -0.3861898             -10.5088
        88        2.0000           -0.3761757             -10.2363
        89        2.0000           -0.3723660             -10.1326
        90        2.0000           -0.3703516             -10.0778
        91        2.0000           -0.3589762              -9.7682 (HOMO)
        92                         -0.2650972              -7.2137 (LUMO)
        93                         -0.2615582              -7.1174
        94                         -0.2467361              -6.7140
        95                         -0.2425051              -6.5989
        96                         -0.2369398              -6.4475
        97                         -0.2340857              -6.3698
        98                         -0.2194349              -5.9711
        99                         -0.2111481              -5.7456
       100                         -0.2098189              -5.7095
       101                         -0.1993428              -5.4244
       102                         -0.1965358              -5.3480
       ...                                ...                  ...
       182                          0.7483485              20.3636
      -------------------------------------------------------------
                  HL-Gap            0.0938789 Eh            2.5546 eV

     #   Z          covCN         q      C6AA      α(0)
     1   6 C        2.920    -0.041    29.017     8.833
     2   6 C        2.924    -0.033    28.834     8.806
     3   6 C        2.910    -0.051    29.271     8.872
     4   6 C        3.074     0.046    26.887     8.502
     5   6 C        3.068    -0.017    28.359     8.732
     6   6 C        2.913    -0.033    28.817     8.803
     7   6 C        3.068    -0.017    28.359     8.732
     8   6 C        2.913    -0.033    28.820     8.803
     9   6 C        2.920    -0.041    29.015     8.833
    10   6 C        2.924    -0.033    28.819     8.804
    11   6 C        2.910    -0.051    29.260     8.870
    12   6 C        3.074     0.046    26.886     8.501
    13   7 N        2.803    -0.044    22.079     6.979
    14   6 C        2.911     0.061    26.635     8.463
    15   6 C        2.925    -0.044    29.095     8.846
    16   6 C        2.934    -0.038    28.948     8.824
    17   6 C        3.002     0.035    27.212     8.557
    18  16 S        2.210    -0.083   144.510    20.233
    19   6 C        3.002     0.035    27.206     8.556
    20   6 C        2.934    -0.039    28.959     8.826
    21   6 C        2.925    -0.045    29.120     8.849
    22   6 C        2.912     0.064    26.561     8.451
    23   7 N        2.800    -0.044    22.087     6.980
    24   6 C        3.080     0.047    26.858     8.496
    25   6 C        2.910    -0.049    29.207     8.862
    26   6 C        2.924    -0.031    28.784     8.798
    27   6 C        2.920    -0.039    28.962     8.825
    28   6 C        2.912    -0.031    28.779     8.797
    29   6 C        3.066    -0.017    28.369     8.734
    30   6 C        3.066    -0.028    28.633     8.774
    31   6 C        2.919    -0.017    28.431     8.744
    32   6 C        2.918    -0.052    29.299     8.876
    33   6 C        2.931     0.058    26.701     8.474
    34   7 N        1.832    -0.258    27.564     7.780
    35   6 C        3.093     0.135    24.951     8.187
    36   6 C        2.921    -0.043    29.064     8.841
    37   6 C        3.106     0.000    27.884     8.652
    38   6 C        3.106    -0.000    27.899     8.654
    39   6 C        2.920    -0.047    29.155     8.855
    40   1 H        0.926     0.028     2.619     2.531
    41   1 H        0.926     0.029     2.605     2.524
    42   1 H        0.926     0.027     2.636     2.539
    43   1 H        0.926     0.031     2.575     2.510
    44   1 H        0.926     0.031     2.578     2.511
    45   1 H        0.926     0.028     2.621     2.532
    46   1 H        0.926     0.029     2.597     2.520
    47   1 H        0.926     0.030     2.587     2.515
    48   1 H        0.926     0.048     2.349     2.397
    49   1 H        0.926     0.046     2.370     2.407
    50   1 H        0.926     0.046     2.368     2.406
    51   1 H        0.926     0.047     2.355     2.400
    52   1 H        0.926     0.034     2.530     2.487
    53   1 H        0.926     0.034     2.532     2.488
    54   1 H        0.926     0.032     2.552     2.498
    55   1 H        0.926     0.034     2.528     2.486
    56   1 H        0.926     0.034     2.530     2.487
    57   1 H        0.926     0.033     2.543     2.494
    58   1 H        0.925     0.037     2.495     2.470
    59   1 H        0.926     0.063     2.160     2.298
    60   1 H        0.926     0.051     2.308     2.376

molecular dipole:
                 x           y           z       tot (Debye)
 q only:       -0.426       0.282      -0.135
   full:       -0.744      -0.083      -0.223       1.985

 projected vibrational frequencies (cm⁻¹)
eigval :       -0.00    -0.00     0.00     0.00     0.00     0.00
eigval :       14.71    16.40    22.31    34.49    46.68    50.22
eigval :       88.58   101.91   107.90   112.37   120.00   139.59
eigval :      143.41   163.49   170.10   176.01   218.89   247.99
eigval :      270.66   272.81   274.26   277.76   279.29   314.76
eigval :      334.38   361.71   385.75   393.71   397.94   398.51
eigval :      420.96   422.73   424.19   434.93   437.01   440.44
eigval :      457.37   506.28   516.60   519.13   524.38   530.38
eigval :      540.91   541.81   545.16   548.67   567.24   586.91
eigval :      592.70   607.66   617.69   647.44   663.15   665.85
eigval :      669.02   673.78   688.30   690.29   708.58   719.39
eigval :      724.45   741.06   756.40   767.17   769.65   775.35
eigval :      780.90   795.12   815.87   823.03   826.23   857.21
eigval :      866.05   873.31   875.50   884.63   898.06   901.82
eigval :      903.05   903.14   904.86   911.83   914.91   915.80
eigval :      916.77   923.36   925.08   928.50   929.24   999.97
eigval :     1011.17  1013.25  1021.29  1051.81  1070.84  1073.48
eigval :     1074.24  1087.94  1091.34  1115.14  1121.71  1150.63
eigval :     1152.64  1161.62  1164.30  1172.69  1177.62  1181.28
eigval :     1182.79  1190.11  1219.23  1223.20  1225.18  1230.75
eigval :     1237.34  1246.40  1272.63  1286.97  1298.97  1300.55
eigval :     1305.12  1332.29  1335.98  1339.88  1344.28  1352.90
eigval :     1357.56  1360.21  1363.20  1394.32  1405.51  1415.77
eigval :     1424.05  1428.29  1446.93  1459.60  1466.06  1474.85
eigval :     1480.40  1483.60  1488.51  1549.46  1552.19  1564.20
eigval :     1574.13  1574.87  1584.41  1587.51  1589.15  1593.91
eigval :     1599.27  1613.70  1615.07  3062.89  3075.03  3075.87
eigval :     3076.39  3080.40  3080.97  3082.31  3085.97  3088.08
eigval :     3090.08  3094.17  3094.76  3095.22  3096.47  3096.64
eigval :     3098.97  3100.28  3102.76  3105.56  3107.33  3124.48

   temp. (K)  partition function   enthalpy   heat capacity  entropy
                                   cal/mol     cal/K/mol   cal/K/mol   J/K/mol
 298.15  VIB  0.471E+12            16397.022    109.350     98.715
         ROT  0.501E+08              888.752      2.981     38.216
         INT  0.236E+20            17285.775    112.331    136.931
         TR   0.113E+29             1481.254      4.968     44.587
         TOT                       18767.0287   117.2987   181.5177   759.4702

       T/K    H(0)-H(T)+PV         H(T)/Eh          T*S/Eh         G(T)/Eh
   ------------------------------------------------------------------------
    298.15    0.299072E-01    0.478325E+00    0.862449E-01    0.392080E+00
   ------------------------------------------------------------------------

         :::::::::::::::::::::::::::::::::::::::::::::::::::::
         ::                  THERMODYNAMIC                  ::
         :::::::::::::::::::::::::::::::::::::::::::::::::::::
         :: total free energy         -97.379182589190 Eh   ::
         ::.................................................::
         :: total energy              -97.771262891521 Eh   ::
         :: zero point energy           0.448418068061 Eh   ::
         :: G(RRHO) w/o ZPVE           -0.056337765730 Eh   ::
         :: G(RRHO) contrib.            0.392080302331 Eh   ::
         :::::::::::::::::::::::::::::::::::::::::::::::::::::

           -------------------------------------------------
          | TOTAL ENERGY              -97.771262891521 Eh   |
          | TOTAL ENTHALPY            -97.292937659513 Eh   |
          | TOTAL FREE ENERGY         -97.379182589190 Eh   |
          | GRADIENT NORM               0.000049868304 Eh/α |
          | HOMO-LUMO GAP               2.554576062533 eV   |
           -------------------------------------------------

 * finished run on 2025/07/16 at 19:37:38.191
