   * xtb version 6.7.1 (edcfbbe) compiled by 'albert@albert-system' on 2024-07-22

   ID    Z sym.   atoms
    1    6 C      1-12, 14-17, 19-22, 24-33, 35-39
    2    7 N      13, 23, 34
    3   16 S      18
    4    1 H      40-60

          program call               : xtb data2507/gas/ZDN/ZDN_gas_S0_finalOpt.xtbopt.xyz --gfn 2 --spinpol --tblite --uhf 2 --ohess vtight --parallel 40 --molden --ceasefiles --namespace data2507/gas/ZDN/ZDN_gas_T1_preOpt
 * total energy  :   -97.6695674 Eh     change       -0.3758137E-07 Eh
 * total energy  :   -97.6715119 Eh     change       -0.1944518E-02 Eh
 * total energy  :   -97.6720533 Eh     change       -0.5414247E-03 Eh
 * total energy  :   -97.6721015 Eh     change       -0.4819376E-04 Eh
 * total energy  :   -97.6721314 Eh     change       -0.2986180E-04 Eh
 * total energy  :   -97.6721403 Eh     change       -0.8967228E-05 Eh
 * total energy  :   -97.6721521 Eh     change       -0.1176709E-04 Eh
 * total energy  :   -97.6721445 Eh     change        0.7631822E-05 Eh
 * total energy  :   -97.6721554 Eh     change       -0.1094140E-04 Eh
 * total energy  :   -97.6721610 Eh     change       -0.5586902E-05 Eh
 * total energy  :   -97.6721994 Eh     change       -0.2553781E-06 Eh
 * total energy  :   -97.6721998 Eh     change       -0.3497230E-06 Eh
 * total energy  :   -97.6722002 Eh     change       -0.4382513E-06 Eh
 * total energy  :   -97.6722007 Eh     change       -0.4764710E-06 Eh
 * total energy  :   -97.6722011 Eh     change       -0.4172682E-06 Eh
 * total energy  :   -97.6722014 Eh     change       -0.2975550E-06 Eh
 * total energy  :   -97.6722016 Eh     change       -0.1919947E-06 Eh
 * total energy  :   -97.6722016 Eh     change        0.3633832E-07 Eh
 * total energy  :   -97.6722016 Eh     change       -0.3660278E-07 Eh
   *** GEOMETRY OPTIMIZATION CONVERGED AFTER 45 ITERATIONS ***

 final structure:
================
60
 xtb: 6.7.1 (edcfbbe)
C            7.23810103431083       -0.34913342116665       -2.34841853614569
C            6.57867188764852        0.87702406883717       -2.36415883319359
C            5.43860589771644        1.09321717634714       -1.61232241993019
C            4.97265437476690        0.04811144329532       -0.82613214523464
C            5.62059884433549       -1.20989269853140       -0.82779844486347
C            6.76211038732019       -1.40363045937895       -1.59048725332411
C            4.84925264505573       -2.06641541676144        0.03279696076981
C            4.98929691520380       -3.38478198510696        0.43893247048883
C            4.05723243868205       -3.90877120560429        1.31630432544771
C            3.01055928343901       -3.12841799702562        1.80010404086550
C            2.85244019501401       -1.81070016625555        1.41205338072053
C            3.76701164846274       -1.28824310469076        0.50719055685839
N            3.85592941904540       -0.01391102276437       -0.01751640523130
C            2.96223350136683        1.03127312757923        0.23303696172973
C            3.45731918194796        2.29867749250051        0.56961422815008
C            2.56706295086129        3.34275070260063        0.83018439342860
C            1.21760190165503        3.10160800976069        0.74599285183759
S           -0.05881190041408        4.27113367592193        1.03821192712656
C           -1.29151390161196        3.07467757530382        0.72828382140967
C           -2.65279494257839        3.27091220270892        0.80348382759846
C           -3.50646330597745        2.21213178223532        0.52113424726672
C           -2.97109276160464        0.95264766608100        0.16855961163420
N           -3.82314672166300       -0.10716923995390       -0.10485502781242
C           -5.06367193528199       -0.04381195340478       -0.72582773301375
C           -5.67117414556819        1.01030459715699       -1.38557321176070
C           -6.91599622662609        0.78996717772413       -1.96262538229885
C           -7.53115954659950       -0.45627486140877       -1.89934991245142
C           -6.91192377791455       -1.52859129098515       -1.28263191643570
C           -5.66479610081344       -1.33076436662380       -0.69896819324598
C           -4.73765596491394       -2.20345484079414       -0.05118234689979
C           -4.71310988292914       -3.55645864392297        0.29237410247139
C           -3.57513039345189       -4.02377770704087        0.93281881967714
C           -2.52489041890502       -3.15666978482900        1.21043578531886
N           -2.52501683318998       -1.86058832479741        0.89285220048611
C           -3.60467668990649       -1.41822314528835        0.27989041275883
C           -1.59765271834401        0.74809380334337        0.11704460240445
C           -0.72497037309942        1.80637840285399        0.39071954831610
C            0.68907987544668        1.82666511725871        0.40123558424815
C            1.59745207057337        0.78850952146493        0.14211592912622
H            8.12727883997657       -0.47847067192781       -2.94705579055804
H            6.96296655637950        1.67582201926784       -2.98069144024901
H            4.92181746170853        2.03967504246450       -1.64762294481073
H            7.26238181494184       -2.36009623440445       -1.59492127802222
H            5.81186955497303       -3.98438525077799        0.07979835750225
H            4.14629124276367       -4.93437821244419        1.64191270014092
H            2.30898321611628       -3.55912411198210        2.49860718294760
H            2.05021199540760       -1.20907816912968        1.81019536555108
H            4.51855704315858        2.45259616466045        0.67237628376761
H            2.93780288066876        4.31592961565108        1.11126633030760
H           -3.05302929563134        4.22928388117764        1.09607560969256
H           -4.56974678062000        2.33004539928783        0.64096992644824
H           -5.19063666792667        1.97156615924436       -1.47674209505773
H           -7.40864682454435        1.60132699223622       -2.47616872588640
H           -8.50095824743491       -0.59005852491448       -2.35542090712594
H           -7.37728261707595       -2.50203178134650       -1.25969623371460
H           -5.54515994540404       -4.20660433165222        0.06956035624720
H           -3.49667226834978       -5.06101837454218        1.22042885629985
H           -1.63059384327854       -3.50272358401844        1.70854440344644
H           -1.20982824707856       -0.22103212214421       -0.14566869395641
H            1.23368046209620       -0.17907257168541       -0.16402956377546

 projected vibrational frequencies (cm⁻¹)
eigval :       -0.00    -0.00    -0.00     0.00     0.00     0.00
eigval :       15.28    16.08    22.74    35.31    45.79    50.00
eigval :       85.22   101.31   108.01   111.37   118.90   136.67
eigval :      142.15   157.42   168.98   176.82   208.01   239.04
eigval :      265.46   267.25   269.48   273.03   277.56   304.06
eigval :      320.38   353.05   363.49   376.60   380.13   396.01
eigval :      397.73   417.74   420.10   429.87   433.36   436.61
eigval :      453.76   500.32   505.57   515.34   517.20   521.10
eigval :      524.97   531.44   537.30   548.59   555.35   577.19
eigval :      584.01   594.73   602.66   629.96   643.11   648.95
eigval :      657.94   658.75   674.39   674.79   702.58   703.68
eigval :      709.96   734.00   752.75   756.44   758.41   765.70
eigval :      766.21   773.39   774.62   781.80   794.04   808.79
eigval :      814.57   849.68   855.61   856.92   865.27   874.21
eigval :      875.21   889.99   896.53   897.29   899.92   904.41
eigval :      905.59   908.92   915.55   921.68   922.56   960.06
eigval :      988.09  1009.73  1011.39  1026.50  1033.75  1067.04
eigval :     1069.14  1071.39  1081.46  1103.53  1108.00  1134.90
eigval :     1137.15  1145.37  1147.06  1160.86  1167.90  1170.14
eigval :     1179.10  1181.83  1192.51  1197.74  1214.86  1219.86
eigval :     1223.45  1231.82  1234.80  1256.69  1265.80  1280.59
eigval :     1288.98  1292.08  1306.04  1317.45  1327.53  1337.64
eigval :     1346.56  1357.05  1359.72  1369.10  1373.53  1376.53
eigval :     1390.29  1400.58  1415.45  1421.23  1427.66  1435.47
eigval :     1451.78  1460.38  1462.99  1464.84  1480.96  1483.16
eigval :     1491.89  1518.62  1531.84  1556.83  1567.88  1572.69
eigval :     1582.75  1585.17  1601.52  3070.81  3079.42  3080.82
eigval :     3081.15  3081.40  3086.56  3088.04  3089.32  3092.77
eigval :     3093.96  3094.18  3095.37  3095.50  3096.03  3100.16
eigval :     3100.92  3102.49  3104.14  3113.65  3121.11  3126.89

   temp. (K)  partition function   enthalpy   heat capacity  entropy
                                   cal/mol     cal/K/mol   cal/K/mol   J/K/mol
 298.15  VIB  0.716E+12            16768.155    111.869    100.814
         ROT  0.500E+08              888.752      2.981     38.212
         INT  0.358E+20            17656.907    114.850    139.026
         TR   0.113E+29             1481.254      4.968     44.587
         TOT                       19138.1610   119.8180   183.6125   768.2345

       T/K    H(0)-H(T)+PV         H(T)/Eh          T*S/Eh         G(T)/Eh
   ------------------------------------------------------------------------
    298.15    0.304986E-01    0.473005E+00    0.872402E-01    0.385765E+00
   ------------------------------------------------------------------------

         :::::::::::::::::::::::::::::::::::::::::::::::::::::
         ::                  THERMODYNAMIC                  ::
         :::::::::::::::::::::::::::::::::::::::::::::::::::::
         :: total free energy         -97.286436360032 Eh   ::
         ::.................................................::
         :: total energy              -97.672201546210 Eh   ::
         :: zero point energy           0.442506786473 Eh   ::
         :: G(RRHO) w/o ZPVE           -0.056741600295 Eh   ::
         :: G(RRHO) contrib.            0.385765186178 Eh   ::
         :::::::::::::::::::::::::::::::::::::::::::::::::::::

           -------------------------------------------------
          | TOTAL ENERGY              -97.672201546210 Eh   |
          | TOTAL ENTHALPY            -97.199196158900 Eh   |
          | TOTAL FREE ENERGY         -97.286436360032 Eh   |
          | GRADIENT NORM               0.000109667894 Eh/α |
           -------------------------------------------------

 * finished run on 2025/07/16 at 19:37:46.346
