   * xtb version 6.7.1 (edcfbbe) compiled by 'albert@albert-system' on 2024-07-22

   ID    Z sym.   atoms
    1    6 C      1-12, 14-17, 19-22, 24-33, 35-39
    2    7 N      13, 23, 34
    3   16 S      18
    4    1 H      40-60

          program call               : xtb data2507/gas/ZDN/ZDN_gas_T1_crest.xyz --gfn 2 --spinpol --tblite --uhf 2 --ohess vtight --parallel 40 --molden --ceasefiles --namespace data2507/gas/ZDN/ZDN_gas_T1_finalOpt
 * total energy  :   -97.6721769 Eh     change        0.8014008E-07 Eh
 * total energy  :   -97.6721873 Eh     change       -0.1039511E-04 Eh
 * total energy  :   -97.6721942 Eh     change       -0.6980052E-05 Eh
 * total energy  :   -97.6721958 Eh     change       -0.1595880E-05 Eh
 * total energy  :   -97.6721971 Eh     change       -0.1247332E-05 Eh
 * total energy  :   -97.6721979 Eh     change       -0.8572831E-06 Eh
 * total energy  :   -97.6721989 Eh     change       -0.9969555E-06 Eh
 * total energy  :   -97.6722002 Eh     change       -0.1209389E-05 Eh
 * total energy  :   -97.6722016 Eh     change       -0.1455091E-05 Eh
 * total energy  :   -97.6722026 Eh     change       -0.1024892E-05 Eh
 * total energy  :   -97.6722034 Eh     change       -0.8074792E-06 Eh
 * total energy  :   -97.6722037 Eh     change       -0.3066869E-06 Eh
 * total energy  :   -97.6722040 Eh     change       -0.2517219E-06 Eh
 * total energy  :   -97.6722042 Eh     change       -0.2406300E-06 Eh
 * total energy  :   -97.6722046 Eh     change       -0.3543979E-06 Eh
 * total energy  :   -97.6722048 Eh     change       -0.2068255E-06 Eh
 * total energy  :   -97.6722050 Eh     change       -0.2433874E-06 Eh
 * total energy  :   -97.6722053 Eh     change       -0.2754107E-06 Eh
 * total energy  :   -97.6722054 Eh     change       -0.6061831E-07 Eh
   *** GEOMETRY OPTIMIZATION CONVERGED AFTER 19 ITERATIONS ***

 final structure:
================
60
 xtb: 6.7.1 (edcfbbe)
C            7.26663007268352       -0.36620928041961       -2.28883944906850
C            6.61699028145164        0.86519681307486       -2.29838391844670
C            5.46723792297387        1.08058745919531       -1.56117823150159
C            4.98137502538645        0.02927859501214       -0.79555866287222
C            5.61916383368990       -1.23386379334601       -0.80475605063722
C            6.77057543085140       -1.42680024903064       -1.55261854491075
C            4.82853198607151       -2.09550583020869        0.03287113474951
C            4.95186035604377       -3.42063579010330        0.42207101853957
C            4.00337297704701       -3.94895201448341        1.27897726289549
C            2.95712343147447       -3.16625135074669        1.75982385268945
C            2.81551237934038       -1.84186454713915        1.38840590638918
C            3.74626798513293       -1.31474969793518        0.50290648485805
N            3.85273082097062       -0.03418570595792       -0.00351459275227
C            2.96410241878336        1.01471574795601        0.24860805781167
C            3.46447391524959        2.27557990978484        0.60211241217020
C            2.57908486088049        3.32363253881044        0.86290676569396
C            1.22874982460674        3.09252443732648        0.76496854085122
S           -0.04246011532133        4.26762600829299        1.05696437355936
C           -1.28033539123344        3.08004524270635        0.73348704777773
C           -2.64087107258110        3.28208464006773        0.80706164994576
C           -3.49894968186133        2.22834066546031        0.51914825528882
C           -2.96891246525642        0.96780461094855        0.16234768654699
N           -3.82466022260183       -0.08917532874042       -0.11022194946912
C           -5.06949679908149       -0.02216479493798       -0.72225304919159
C           -5.67941794084422        1.03393166741081       -1.37656001291919
C           -6.92945754582217        0.81734989922526       -1.94374438623678
C           -7.54751834653729       -0.42723748176254       -1.87634519732111
C           -6.92610086442536       -1.50168618789935       -1.26561796628749
C           -5.67374947534525       -1.30762588181654       -0.69194834657193
C           -4.74415261714299       -2.18331726728831       -0.05188896873077
C           -4.72060084632650       -3.53677777828476        0.29013493989362
C           -3.57931162750190       -4.00765406051547        0.92200276788668
C           -2.52501892616822       -3.14348997376761        1.19314525037728
N           -2.52426419148523       -1.84699431085172        0.87707462813894
C           -3.60694127923922       -1.40130369777711        0.27191447501115
C           -1.59617553816929        0.75842701051793        0.10878615718121
C           -0.71920941978488        1.81128910596577        0.38917706744273
C            0.69490183742319        1.82372930124767        0.40600577998000
C            1.59848946430314        0.78245227768937        0.14316798408530
H            8.16405619438944       -0.49466790382275       -2.87522897202707
H            7.01686734042231        1.66900795383894       -2.89826642983035
H            4.95844222999895        2.03148434145047       -1.59237310758141
H            7.26322306962289       -2.38717531972779       -1.56223762097359
H            5.77418111638900       -4.02218103845884        0.06562219704042
H            4.07907021819125       -4.97987360876612        1.59089379464763
H            2.24258634844680       -3.60045750462396        2.44284912563483
H            2.01334945600460       -1.23910944754058        1.78491260395342
H            4.52557492509884        2.42097862971826        0.71771382871084
H            2.95392505046976        4.29182213758859        1.15556106097783
H           -3.03727759242426        4.24071743042279        1.10398837752256
H           -4.56168481623354        2.35057653140133        0.63931806305815
H           -5.19717369774122        1.99399765732528       -1.47114432422754
H           -7.42406131032745        1.63043392359551       -2.45265636053959
H           -8.52141269912399       -0.55804523337160       -2.32448945252591
H           -7.39383539769068       -2.47390852495197       -1.23956996345024
H           -5.55583600868485       -4.18458424638245        0.07252646547638
H           -3.50149808380248       -5.04535857712768        1.20811318399269
H           -1.62812405500304       -3.49213006745104        1.68471679300908
H           -1.21214496575901       -0.21104207460544       -0.15808048166350
H            1.23065041302271       -0.17915221899093       -0.17656285125200

 projected vibrational frequencies (cm⁻¹)
eigval :       -0.00    -0.00    -0.00     0.00     0.00     0.00
eigval :       14.51    16.07    22.85    35.22    46.02    49.85
eigval :       85.16   101.34   107.94   111.27   118.83   136.59
eigval :      142.15   157.56   168.96   176.96   208.31   239.19
eigval :      265.27   267.44   269.38   273.10   277.81   304.11
eigval :      320.67   353.08   363.54   376.66   380.05   396.04
eigval :      397.71   418.05   420.14   429.95   433.39   436.65
eigval :      453.66   500.36   505.61   515.35   517.24   521.15
eigval :      525.03   531.44   537.26   548.77   555.45   577.41
eigval :      584.07   594.84   602.65   629.96   643.00   649.09
eigval :      657.99   658.68   674.36   674.82   702.52   703.63
eigval :      709.93   733.75   752.35   756.24   758.31   765.46
eigval :      766.04   773.27   774.78   781.77   793.81   809.39
eigval :      814.56   849.42   855.36   856.78   865.02   874.22
eigval :      875.22   889.82   896.44   897.21   899.98   904.35
eigval :      905.53   908.71   915.74   921.56   922.43   959.70
eigval :      987.51  1009.60  1011.37  1026.39  1033.74  1066.73
eigval :     1069.03  1071.04  1081.01  1103.79  1108.07  1134.70
eigval :     1137.06  1145.22  1146.93  1160.65  1167.49  1169.98
eigval :     1178.81  1181.58  1193.75  1197.60  1214.65  1219.10
eigval :     1223.88  1231.72  1235.41  1256.58  1265.74  1280.49
eigval :     1289.05  1292.12  1306.11  1317.49  1327.43  1337.59
eigval :     1346.58  1357.47  1359.95  1369.72  1373.32  1376.78
eigval :     1390.33  1400.93  1415.84  1421.61  1429.85  1435.26
eigval :     1451.71  1461.00  1463.93  1465.42  1480.78  1483.22
eigval :     1492.07  1518.71  1531.69  1556.45  1567.94  1573.09
eigval :     1582.84  1585.15  1601.48  3071.20  3079.74  3081.12
eigval :     3081.47  3081.68  3086.88  3088.37  3089.56  3093.25
eigval :     3094.49  3094.76  3095.87  3096.13  3096.50  3100.57
eigval :     3101.24  3102.78  3104.86  3114.42  3121.78  3127.29

   temp. (K)  partition function   enthalpy   heat capacity  entropy
                                   cal/mol     cal/K/mol   cal/K/mol   J/K/mol
 298.15  VIB  0.749E+12            16768.341    111.868    100.854
         ROT  0.500E+08              888.752      2.981     38.208
         INT  0.374E+20            17657.094    114.849    139.062
         TR   0.113E+29             1481.254      4.968     44.587
         TOT                       19138.3477   119.8174   183.6493   768.3889

       T/K    H(0)-H(T)+PV         H(T)/Eh          T*S/Eh         G(T)/Eh
   ------------------------------------------------------------------------
    298.15    0.304989E-01    0.473032E+00    0.872577E-01    0.385775E+00
   ------------------------------------------------------------------------

         :::::::::::::::::::::::::::::::::::::::::::::::::::::
         ::                  THERMODYNAMIC                  ::
         :::::::::::::::::::::::::::::::::::::::::::::::::::::
         :: total free energy         -97.286430624342 Eh   ::
         ::.................................................::
         :: total energy              -97.672205366731 Eh   ::
         :: zero point energy           0.442533574659 Eh   ::
         :: G(RRHO) w/o ZPVE           -0.056758832270 Eh   ::
         :: G(RRHO) contrib.            0.385774742389 Eh   ::
         :::::::::::::::::::::::::::::::::::::::::::::::::::::

           -------------------------------------------------
          | TOTAL ENERGY              -97.672205366731 Eh   |
          | TOTAL ENTHALPY            -97.199172893644 Eh   |
          | TOTAL FREE ENERGY         -97.286430624342 Eh   |
          | GRADIENT NORM               0.000091059293 Eh/α |
           -------------------------------------------------

 * finished run on 2025/07/16 at 19:42:11.192
