   * xtb version 6.7.1 (edcfbbe) compiled by 'albert@albert-system' on 2024-07-22

   ID    Z sym.   atoms
    1    7 N      1, 15, 23, 31
    2    6 C      2-8, 10-14, 16-22, 24-30, 32, 33
    3   16 S      9
    4    1 H      34-49

          program call               : xtb data2507/toluene/2Trz6CNDBT/2Trz6CNDBT_toluene_S0_crest.xyz --gfn 2 --gbsa toluene --ohess vtight --parallel 40 --molden --ceasefiles --namespace data2507/toluene/2Trz6CNDBT/2Trz6CNDBT_toluene_S0_finalOpt
      * Solvation model:               GBSA
        Solvent                        toluene
        Solvent mass                       9.2140E+01 g/mol
          :  Hamiltonian                  GFN2-xTB          :
 * total energy  :   -83.0867342 Eh     change       -0.2034781E-08 Eh
 * total energy  :   -83.0867727 Eh     change       -0.3854278E-04 Eh
 * total energy  :   -83.0867830 Eh     change       -0.1031879E-04 Eh
 * total energy  :   -83.0867889 Eh     change       -0.5815402E-05 Eh
 * total energy  :   -83.0867919 Eh     change       -0.3011952E-05 Eh
 * total energy  :   -83.0867939 Eh     change       -0.2072908E-05 Eh
 * total energy  :   -83.0867950 Eh     change       -0.1061477E-05 Eh
 * total energy  :   -83.0867958 Eh     change       -0.8321957E-06 Eh
 * total energy  :   -83.0867966 Eh     change       -0.7347857E-06 Eh
 * total energy  :   -83.0867974 Eh     change       -0.7902227E-06 Eh
 * total energy  :   -83.0868021 Eh     change       -0.9002365E-06 Eh
 * total energy  :   -83.0868028 Eh     change       -0.6674092E-06 Eh
 * total energy  :   -83.0868033 Eh     change       -0.4905998E-06 Eh
 * total energy  :   -83.0868037 Eh     change       -0.4163994E-06 Eh
 * total energy  :   -83.0868040 Eh     change       -0.2672085E-06 Eh
 * total energy  :   -83.0868040 Eh     change       -0.3624771E-07 Eh
 * total energy  :   -83.0868041 Eh     change       -0.1222852E-06 Eh
 * total energy  :   -83.0868043 Eh     change       -0.1185183E-06 Eh
 * total energy  :   -83.0868043 Eh     change       -0.2110758E-07 Eh
   *** GEOMETRY OPTIMIZATION CONVERGED AFTER 24 ITERATIONS ***

 final structure:
================
49
 xtb: 6.7.1 (edcfbbe)
N            8.37086373110182       -1.11918290541780       -0.04581665869143
C            7.41687934758539       -0.48269589704343       -0.00003910025216
C            6.24957222097315        0.30799157197891        0.05419382197014
C            6.34488140551680        1.69658435265670        0.15115725424295
C            5.20017848339659        2.47809121589840        0.20284697538889
C            3.94443049225879        1.90044339308052        0.15778277743158
C            3.82187242548948        0.51727182811393        0.06095644196829
C            4.98033483292488       -0.27674417638727        0.01008811580029
S            4.63514280102364       -1.98517146884070       -0.10846069666219
C            2.91680001951874       -1.65809477744656       -0.09651733736970
C            1.90988408284668       -2.61028918096701       -0.17063041791748
C            0.59921722157958       -2.18570025111118       -0.15033186518903
C            0.28578851687861       -0.82293463732623       -0.05893350226589
C           -1.11360309029623       -0.39434893124311       -0.04039304165193
N           -2.05379389253571       -1.33465612525642       -0.02664680705917
C           -3.31232715930505       -0.90003719292682       -0.00132084068561
C           -4.38282816530373       -1.89623803901598        0.02702366823681
C           -5.71770497616459       -1.49348840269104        0.00213384508254
C           -6.72664129731249       -2.43686110030215        0.03151194213610
C           -6.41506133507718       -3.78712011225148        0.08541955341840
C           -5.08960084689611       -4.19405520835439        0.11020549195817
C           -4.07612787082618       -3.25555776783478        0.08122586895342
N           -3.65350821568320        0.38601102459557        0.00059231124942
C           -2.64950747662501        1.25879355395215       -0.02207299158015
C           -2.97777020095751        2.68434952289995       -0.03048562832812
C           -1.96508105908772        3.63883615733105       -0.12053808616166
C           -2.27908401314594        4.98419158280217       -0.13031035928296
C           -3.60277614454353        5.39000153602086       -0.05102904001274
C           -4.61457798597869        4.44589213176154        0.03851408302671
C           -4.30680327409504        3.09901375686439        0.04852168969088
N           -1.36375994298798        0.91253308877048       -0.03787785142187
C            1.29927562336619        0.12468061641113        0.01511703531075
C            2.62502448879202       -0.28453050393442       -0.00253924102322
H            7.32299934923142        2.15221134527571        0.18510329539404
H            5.29593214799334        3.55006827551797        0.27835103682659
H            3.05730380535231        2.51265156447811        0.19746473041854
H            2.15444029198051       -3.65838761101532       -0.24278761882442
H           -0.20981409501908       -2.89594631077628       -0.20758882580958
H           -5.94153527018690       -0.43902205331171       -0.04116253199130
H           -7.75909982008635       -2.12075400890243        0.01201838572625
H           -7.20564762861909       -4.52248345821944        0.10795709243355
H           -4.84740774922642       -5.24568068278502        0.15203925047982
H           -3.03962901205416       -3.55406282516734        0.10196526284061
H           -0.94127588461412        3.30505550509852       -0.18485158575344
H           -1.49167220057093        5.71995561484147       -0.20068666077995
H           -3.84597026048299        6.44219252286185       -0.05889837149282
H           -5.64534462088892        4.76202457689130        0.10031697801161
H           -5.08102019907046        2.35103088511168        0.11862410632113
H            1.03906569053271        1.16820038081436        0.08735264498923

          :  Hamiltonian                  GFN2-xTB          :
         :: gradient norm              0.000200866321 Eh/a0 ::
         :: HOMO-LUMO gap              2.306663910509 eV    ::
         :: SCC energy               -84.588881075632 Eh    ::
         :: -> dispersion             -0.065144759985 Eh    ::
         :: -> Gsolv                  -0.044761388903 Eh    ::
         :: repulsion energy           1.502076801285 Eh    ::

    * Orbital Energies and Occupations

         #    Occupation            Energy/Eh            Energy/eV
      -------------------------------------------------------------
         1        2.0000           -0.7461967             -20.3050
       ...           ...                  ...                  ...
        65        2.0000           -0.4367577             -11.8848
        66        2.0000           -0.4349856             -11.8366
        67        2.0000           -0.4325660             -11.7707
        68        2.0000           -0.4321829             -11.7603
        69        2.0000           -0.4314854             -11.7413
        70        2.0000           -0.4186218             -11.3913
        71        2.0000           -0.4180751             -11.3764
        72        2.0000           -0.4156317             -11.3099
        73        2.0000           -0.4148041             -11.2874
        74        2.0000           -0.4113245             -11.1927
        75        2.0000           -0.3932648             -10.7013
        76        2.0000           -0.3845898             -10.4652
        77        2.0000           -0.3836670             -10.4401 (HOMO)
        78                         -0.2988987              -8.1334 (LUMO)
        79                         -0.2961840              -8.0596
        80                         -0.2880287              -7.8377
        81                         -0.2701861              -7.3521
        82                         -0.2551579              -6.9432
        83                         -0.2357635              -6.4155
        84                         -0.2352154              -6.4005
        85                         -0.2309055              -6.2833
        86                         -0.2280444              -6.2054
        87                         -0.2120680              -5.7707
        88                         -0.2118767              -5.7655
       ...                                ...                  ...
       153                          1.1553692              31.4392
      -------------------------------------------------------------
                  HL-Gap            0.0847683 Eh            2.3067 eV

     #   Z          covCN         q      C6AA      α(0)
     1   7 N        0.911    -0.261    26.758     7.481
     2   6 C        1.910     0.121    28.128     8.565
     3   6 C        2.986     0.007    27.850     8.657
     4   6 C        2.927    -0.019    28.476     8.751
     5   6 C        2.916    -0.028    28.698     8.785
     6   6 C        2.916    -0.022    28.552     8.762
     7   6 C        3.099     0.003    27.826     8.645
     8   6 C        3.006     0.042    27.048     8.531
     9  16 S        2.203    -0.056   143.364    20.152
    10   6 C        3.003     0.042    27.042     8.530
    11   6 C        2.934    -0.035    28.874     8.812
    12   6 C        2.927    -0.026    28.651     8.778
    13   6 C        2.982    -0.011    28.295     8.725
    14   6 C        2.981     0.215    23.458     7.945
    15   7 N        1.844    -0.321    29.178     8.005
    16   6 C        2.979     0.217    23.437     7.941
    17   6 C        2.983    -0.010    28.251     8.719
    18   6 C        2.923    -0.026    28.640     8.776
    19   6 C        2.918    -0.027    28.673     8.781
    20   6 C        2.920    -0.022    28.545     8.761
    21   6 C        2.918    -0.027    28.673     8.781
    22   6 C        2.923    -0.026    28.644     8.777
    23   7 N        1.844    -0.320    29.148     8.001
    24   6 C        2.979     0.216    23.445     7.942
    25   6 C        2.983    -0.010    28.248     8.718
    26   6 C        2.923    -0.026    28.647     8.777
    27   6 C        2.918    -0.027    28.678     8.782
    28   6 C        2.920    -0.022    28.547     8.762
    29   6 C        2.918    -0.027    28.670     8.780
    30   6 C        2.924    -0.025    28.638     8.776
    31   7 N        1.844    -0.322    29.187     8.007
    32   6 C        2.922    -0.027    28.681     8.782
    33   6 C        3.102     0.001    27.878     8.652
    34   1 H        0.926     0.055     2.256     2.349
    35   1 H        0.926     0.060     2.204     2.322
    36   1 H        0.926     0.060     2.195     2.317
    37   1 H        0.926     0.059     2.216     2.328
    38   1 H        0.926     0.063     2.168     2.303
    39   1 H        0.926     0.051     2.307     2.375
    40   1 H        0.926     0.048     2.345     2.395
    41   1 H        0.926     0.050     2.316     2.380
    42   1 H        0.926     0.048     2.346     2.395
    43   1 H        0.926     0.051     2.313     2.378
    44   1 H        0.926     0.050     2.318     2.381
    45   1 H        0.926     0.048     2.343     2.394
    46   1 H        0.926     0.050     2.317     2.381
    47   1 H        0.926     0.048     2.348     2.396
    48   1 H        0.926     0.051     2.310     2.377
    49   1 H        0.926     0.064     2.147     2.292

molecular dipole:
                 x           y           z       tot (Debye)
 q only:       -1.630       1.141       0.076
   full:       -2.031       1.421       0.094       6.304

 projected vibrational frequencies (cm⁻¹)
eigval :       -0.00    -0.00    -0.00    -0.00    -0.00     0.00
eigval :       17.94    25.15    29.98    32.02    32.39    51.97
eigval :       59.68    81.90    88.30    91.33   107.88   121.50
eigval :      135.48   179.22   183.22   191.52   205.12   208.22
eigval :      248.24   263.72   287.66   293.90   362.12   366.13
eigval :      372.41   376.16   387.11   396.81   399.70   403.94
eigval :      404.59   436.61   452.00   473.18   526.78   530.56
eigval :      542.04   563.71   577.23   587.23   588.15   592.41
eigval :      612.43   627.03   638.23   648.30   650.35   662.20
eigval :      673.29   686.71   693.16   701.01   738.83   751.19
eigval :      774.80   793.97   797.37   830.66   831.86   846.74
eigval :      871.70   874.87   876.26   893.27   909.81   911.78
eigval :      915.11   918.10   929.04   930.37   932.89   934.19
eigval :      937.19   982.56   989.35  1016.59  1047.64  1053.36
eigval :     1073.82  1074.41  1082.82  1105.86  1108.06  1111.40
eigval :     1118.99  1148.51  1165.83  1169.82  1175.44  1177.11
eigval :     1180.47  1191.57  1201.33  1205.51  1217.23  1231.49
eigval :     1267.35  1268.00  1287.24  1325.73  1327.69  1332.22
eigval :     1343.09  1349.27  1366.11  1370.22  1370.85  1415.51
eigval :     1427.80  1429.93  1443.19  1461.07  1463.19  1474.21
eigval :     1504.13  1510.15  1547.26  1553.72  1564.60  1578.61
eigval :     1581.07  1583.45  1592.20  1592.85  2361.11  3077.85
eigval :     3077.95  3082.61  3082.81  3090.95  3092.08  3092.38
eigval :     3098.06  3099.76  3103.92  3104.40  3105.26  3106.28
eigval :     3107.43  3114.40  3115.41

   temp. (K)  partition function   enthalpy   heat capacity  entropy
                                   cal/mol     cal/K/mol   cal/K/mol   J/K/mol
 298.15  VIB  0.237E+12            14820.064     92.052     91.987
         ROT  0.382E+08              888.752      2.981     37.675
         INT  0.904E+19            15708.817     95.032    129.661
         TR   0.895E+28             1481.254      4.968     44.118
         TOT                       17190.0707   100.0006   173.7793   727.0925

       T/K    H(0)-H(T)+PV         H(T)/Eh          T*S/Eh         G(T)/Eh
   ------------------------------------------------------------------------
    298.15    0.273941E-01    0.380830E+00    0.825681E-01    0.298262E+00
   ------------------------------------------------------------------------

         :::::::::::::::::::::::::::::::::::::::::::::::::::::
         ::                  THERMODYNAMIC                  ::
         :::::::::::::::::::::::::::::::::::::::::::::::::::::
         :: total free energy         -82.788542368176 Eh   ::
         ::.................................................::
         :: total energy              -83.086804276167 Eh   ::
         :: zero point energy           0.353435930804 Eh   ::
         :: G(RRHO) w/o ZPVE           -0.055174022813 Eh   ::
         :: G(RRHO) contrib.            0.298261907991 Eh   ::
         :::::::::::::::::::::::::::::::::::::::::::::::::::::

           -------------------------------------------------
          | TOTAL ENERGY              -83.086804276167 Eh   |
          | TOTAL ENTHALPY            -82.705974224020 Eh   |
          | TOTAL FREE ENERGY         -82.788542368176 Eh   |
          | GRADIENT NORM               0.000200843259 Eh/α |
          | HOMO-LUMO GAP               2.306663822738 eV   |
           -------------------------------------------------

 * finished run on 2025/08/25 at 22:18:25.510
