   * xtb version 6.7.1 (edcfbbe) compiled by 'albert@albert-system' on 2024-07-22

   ID    Z sym.   atoms
    1    7 N      1, 15, 23, 31
    2    6 C      2-8, 10-14, 16-22, 24-30, 32, 33
    3   16 S      9
    4    1 H      34-49

          program call               : xtb data2507/toluene/2Trz6CNDBT/2Trz6CNDBT_toluene_T1_crest.xyz --gfn 2 --uhf 2 --gbsa toluene --ohess vtight --parallel 40 --molden --ceasefiles --namespace data2507/toluene/2Trz6CNDBT/2Trz6CNDBT_toluene_T1_finalOpt
      * Solvation model:               GBSA
        Solvent                        toluene
        Solvent mass                       9.2140E+01 g/mol
          :  Hamiltonian                  GFN2-xTB          :
 * total energy  :   -82.9997591 Eh     change       -0.9806911E-10 Eh
 * total energy  :   -82.9998054 Eh     change       -0.4625654E-04 Eh
 * total energy  :   -82.9998187 Eh     change       -0.1333209E-04 Eh
 * total energy  :   -82.9998220 Eh     change       -0.3312772E-05 Eh
 * total energy  :   -82.9998246 Eh     change       -0.2514490E-05 Eh
 * total energy  :   -82.9998259 Eh     change       -0.1291916E-05 Eh
 * total energy  :   -82.9998267 Eh     change       -0.8638975E-06 Eh
 * total energy  :   -82.9998273 Eh     change       -0.5319140E-06 Eh
 * total energy  :   -82.9998278 Eh     change       -0.5691534E-06 Eh
 * total energy  :   -82.9998285 Eh     change       -0.6975366E-06 Eh
 * total energy  :   -82.9998293 Eh     change       -0.7754905E-06 Eh
 * total energy  :   -82.9998300 Eh     change       -0.7004379E-06 Eh
 * total energy  :   -82.9998304 Eh     change       -0.4511644E-06 Eh
 * total energy  :   -82.9998307 Eh     change       -0.2493601E-06 Eh
 * total energy  :   -82.9998309 Eh     change       -0.1772489E-06 Eh
 * total energy  :   -82.9998310 Eh     change       -0.1238753E-06 Eh
 * total energy  :   -82.9998311 Eh     change       -0.1061475E-06 Eh
 * total energy  :   -82.9998312 Eh     change       -0.1074636E-06 Eh
 * total energy  :   -82.9998313 Eh     change       -0.8687826E-07 Eh
   *** GEOMETRY OPTIMIZATION CONVERGED AFTER 19 ITERATIONS ***

 final structure:
================
49
 xtb: 6.7.1 (edcfbbe)
N            8.38931469684874       -1.09661605654421        0.00726465442505
C            7.43267420468159       -0.46122298788784        0.01066580293423
C            6.26488946001654        0.32758666628779        0.01494065379321
C            6.35684378624906        1.72221714671355        0.02751143667210
C            5.21146103984537        2.49986220483153        0.03184315472171
C            3.95321319586623        1.91561316420817        0.02355302042003
C            3.83305199243795        0.53198260499980        0.01089513732776
C            4.99486844792763       -0.26065430768717        0.00702590685192
S            4.65464724864297       -1.97166700196770       -0.00759607346454
C            2.93391839512611       -1.65530694000990       -0.00849208534888
C            1.92412648551327       -2.61643178403897       -0.01729422979013
C            0.61689636689190       -2.20223037036121       -0.01637623176181
C            0.28145764327166       -0.82537958197412       -0.00761259490332
C           -1.07642687423563       -0.41267780656825       -0.00682153801116
N           -2.07507950812891       -1.32872422606295       -0.00596199992618
C           -3.31981275628864       -0.93218736542889       -0.00189697165797
C           -4.38800409464614       -1.92038516170675        0.00201772844759
C           -4.08835672768937       -3.28502438567406        0.00311724290608
C           -5.10560668449056       -4.21738212107767        0.00785419487782
C           -6.43088748178662       -3.80519614302353        0.01154365696731
C           -6.73564483665337       -2.45201560020367        0.01038132904371
C           -5.72373299580691       -1.51272135798383        0.00557603814490
N           -3.65801954821803        0.37496663721933       -0.00027486471087
C           -2.64743691310790        1.26811741837995       -0.00467985910349
C           -2.98374723156756        2.68557636631172       -0.00755482956327
C           -4.31979152133855        3.09124835311815        0.00293667695757
C           -4.63716169591254        4.43509553907352       -0.00087533332163
C           -3.63072226955981        5.38929664771707       -0.01555220734018
C           -2.30070274566649        4.99318376733115       -0.02597345719633
C           -1.97535813761116        3.65209367688448       -0.02214871830802
N           -1.39125092852132        0.90817218172290       -0.00675401482929
C            1.31736138747709        0.13227521985129        0.00108663749361
C            2.63358176889680       -0.27581160586039        0.00135572569310
H            7.33407497934841        2.18083533386555        0.03368726932668
H            5.30205340740162        3.57495018142194        0.04176483936461
H            3.06601529189042        2.52891101524308        0.02705129282436
H            2.17497220894035       -3.66585356474870       -0.02429122697563
H           -0.18699229827964       -2.92094578013756       -0.02267899332097
H           -3.05304278020351       -3.59032047639937        0.00041283734287
H           -4.86774660460351       -5.27090906905517        0.00874964228929
H           -7.22421979088003       -4.53759969885297        0.01535817797919
H           -7.76668268919502       -2.13047173694952        0.01325875261676
H           -5.94397831039457       -0.45616886714876        0.00466841926766
H           -5.09161014980611        2.33701011884444        0.01409987494072
H           -5.67273702385711        4.74160936361137        0.00720872825779
H           -3.88156187269087        6.43950391388971       -0.01869383907652
H           -1.51657954728899        5.73580928062004       -0.03730371812842
H           -0.94562597348264        3.32918426938180       -0.03064622748116
H            1.05639853523802        1.17809009802507        0.00815941923213

          :  Hamiltonian                  GFN2-xTB          :
         :: gradient norm              0.000080594868 Eh/a0 ::
         :: HOMO-LUMO gap              0.177068679178 eV    ::
         :: SCC energy               -84.496079377797 Eh    ::
         :: -> dispersion             -0.064987494343 Eh    ::
         :: -> Gsolv                  -0.043203646923 Eh    ::
         :: repulsion energy           1.496248081826 Eh    ::

    * Orbital Energies and Occupations

         #    Occupation            Energy/Eh            Energy/eV
      -------------------------------------------------------------
         1        2.0000           -0.7473666             -20.3369
       ...           ...                  ...                  ...
        66        2.0000           -0.4354716             -11.8498
        67        2.0000           -0.4325299             -11.7697
        68        2.0000           -0.4316945             -11.7470
        69        2.0000           -0.4257860             -11.5862
        70        2.0000           -0.4184483             -11.3866
        71        2.0000           -0.4178683             -11.3708
        72        2.0000           -0.4155287             -11.3071
        73        2.0000           -0.4141746             -11.2703
        74        2.0000           -0.4068584             -11.0712
        75        1.7666           -0.3924362             -10.6787
        76        1.6488           -0.3918896             -10.6639
        77        1.5846           -0.3916312             -10.6568
        78        0.9685           -0.3013506              -8.2002 (HOMO)
        79        0.0315           -0.2948431              -8.0231 (LUMO)
        80        0.0000           -0.2868527              -7.8057
        81                         -0.2669955              -7.2653
        82                         -0.2554943              -6.9524
        83                         -0.2351858              -6.3997
        84                         -0.2345619              -6.3828
        85                         -0.2297828              -6.2527
        86                         -0.2231548              -6.0724
        87                         -0.2111592              -5.7459
        88                         -0.2081025              -5.6628
        89                         -0.2021989              -5.5021
       ...                                ...                  ...
       153                          1.1543437              31.4113
      -------------------------------------------------------------
                  HL-Gap            0.0065075 Eh            0.1771 eV

     #   Z          covCN         q      C6AA      α(0)
     1   7 N        0.911    -0.262    26.796     7.487
     2   6 C        1.910     0.120    28.160     8.570
     3   6 C        2.986     0.008    27.838     8.655
     4   6 C        2.926    -0.020    28.507     8.756
     5   6 C        2.916    -0.026    28.651     8.778
     6   6 C        2.916    -0.023    28.576     8.766
     7   6 C        3.099     0.006    27.767     8.636
     8   6 C        3.004     0.039    27.122     8.543
     9  16 S        2.200    -0.021   141.932    20.051
    10   6 C        3.000     0.021    27.519     8.605
    11   6 C        2.928    -0.033    28.828     8.805
    12   6 C        2.924    -0.038    28.942     8.822
    13   6 C        2.975    -0.009    28.244     8.717
    14   6 C        2.922     0.158    24.591     8.132
    15   7 N        1.847    -0.252    27.407     7.759
    16   6 C        2.918     0.201    23.741     7.990
    17   6 C        2.983    -0.006    28.153     8.704
    18   6 C        2.923    -0.027    28.687     8.783
    19   6 C        2.918    -0.027    28.671     8.781
    20   6 C        2.920    -0.025    28.618     8.773
    21   6 C        2.917    -0.027    28.671     8.781
    22   6 C        2.923    -0.027    28.670     8.781
    23   7 N        1.846    -0.299    28.590     7.924
    24   6 C        2.919     0.201    23.732     7.989
    25   6 C        2.983    -0.005    28.144     8.702
    26   6 C        2.923    -0.027    28.666     8.780
    27   6 C        2.918    -0.027    28.669     8.780
    28   6 C        2.920    -0.025    28.617     8.772
    29   6 C        2.918    -0.027    28.675     8.781
    30   6 C        2.923    -0.027    28.688     8.783
    31   7 N        1.846    -0.257    27.544     7.778
    32   6 C        2.920    -0.038    28.955     8.824
    33   6 C        3.094    -0.000    27.920     8.660
    34   1 H        0.926     0.055     2.261     2.351
    35   1 H        0.926     0.060     2.203     2.321
    36   1 H        0.926     0.060     2.204     2.322
    37   1 H        0.926     0.051     2.311     2.377
    38   1 H        0.926     0.049     2.334     2.389
    39   1 H        0.926     0.046     2.367     2.406
    40   1 H        0.926     0.047     2.353     2.399
    41   1 H        0.926     0.048     2.340     2.392
    42   1 H        0.926     0.047     2.355     2.400
    43   1 H        0.926     0.049     2.336     2.390
    44   1 H        0.926     0.048     2.340     2.392
    45   1 H        0.926     0.047     2.357     2.401
    46   1 H        0.926     0.048     2.340     2.392
    47   1 H        0.926     0.048     2.349     2.397
    48   1 H        0.926     0.047     2.364     2.404
    49   1 H        0.926     0.052     2.297     2.370

molecular dipole:
                 x           y           z       tot (Debye)
 q only:       -1.678       1.175       0.007
   full:       -2.090       1.457       0.008       6.475

 projected vibrational frequencies (cm⁻¹)
eigval :       -0.00    -0.00    -0.00     0.00     0.00     0.00
eigval :       -5.15    13.41    22.27    28.18    30.00    48.30
eigval :       56.07    79.37    90.41    92.61   110.45   118.02
eigval :      133.13   171.48   181.40   186.69   199.80   207.61
eigval :      243.03   247.62   272.25   275.72   304.68   362.97
eigval :      366.61   366.79   368.44   374.93   378.70   395.82
eigval :      401.59   407.53   417.84   455.15   477.44   505.72
eigval :      525.98   538.11   552.64   553.76   572.43   577.95
eigval :      587.26   590.26   591.38   602.86   607.90   640.79
eigval :      648.19   648.65   657.67   665.50   679.54   686.32
eigval :      723.76   759.92   761.50   791.68   798.83   801.31
eigval :      803.94   830.28   865.79   868.14   887.05   895.70
eigval :      899.83   901.28   914.35   918.07   925.15   926.51
eigval :      928.67   929.71   941.85   979.83   983.67  1002.77
eigval :     1044.08  1058.83  1071.88  1073.63  1088.01  1106.98
eigval :     1107.36  1116.27  1133.87  1151.68  1155.15  1174.70
eigval :     1175.25  1176.21  1178.46  1184.93  1203.81  1223.27
eigval :     1229.20  1264.16  1265.27  1266.38  1277.37  1323.26
eigval :     1328.08  1329.22  1333.34  1337.62  1346.53  1363.99
eigval :     1402.22  1425.09  1428.82  1433.07  1442.60  1447.68
eigval :     1456.71  1464.55  1482.08  1526.47  1541.66  1556.02
eigval :     1566.28  1567.26  1579.91  1584.88  2341.66  3077.67
eigval :     3077.81  3080.73  3080.95  3090.34  3090.53  3090.96
eigval :     3092.86  3095.62  3096.60  3097.97  3098.68  3099.75
eigval :     3106.12  3106.80  3108.76

   temp. (K)  partition function   enthalpy   heat capacity  entropy
                                   cal/mol     cal/K/mol   cal/K/mol   J/K/mol
 298.15  VIB  0.493E+13            15455.351     95.280     97.175
         ROT  0.385E+08              888.752      2.981     37.689
         INT  0.190E+21            16344.104     98.260    134.864
         TR   0.895E+28             1481.254      4.968     44.118
         TOT                       17825.3575   103.2286   178.9817   748.8596

       T/K    H(0)-H(T)+PV         H(T)/Eh          T*S/Eh         G(T)/Eh
   ------------------------------------------------------------------------
    298.15    0.284065E-01    0.375125E+00    0.850400E-01    0.290085E+00
   ------------------------------------------------------------------------

         :::::::::::::::::::::::::::::::::::::::::::::::::::::
         ::                  THERMODYNAMIC                  ::
         :::::::::::::::::::::::::::::::::::::::::::::::::::::
         :: total free energy         -82.709746082994 Eh   ::
         ::.................................................::
         :: total energy              -82.999831294891 Eh   ::
         :: zero point energy           0.346718698912 Eh   ::
         :: G(RRHO) w/o ZPVE           -0.056633487014 Eh   ::
         :: G(RRHO) contrib.            0.290085211898 Eh   ::
         :::::::::::::::::::::::::::::::::::::::::::::::::::::

           -------------------------------------------------
          | TOTAL ENERGY              -82.999831294891 Eh   |
          | TOTAL ENTHALPY            -82.624706080647 Eh   |
          | TOTAL FREE ENERGY         -82.709746082994 Eh   |
          | GRADIENT NORM               0.000080625308 Eh/α |
          | HOMO-LUMO GAP               0.177077534271 eV   |
           -------------------------------------------------

 * finished run on 2025/08/25 at 22:21:26.973
