   * xtb version 6.7.1 (edcfbbe) compiled by 'albert@albert-system' on 2024-07-22

   ID    Z sym.   atoms
    1    7 N      1, 15, 23, 31
    2    6 C      2-8, 10-14, 16-22, 24-30, 32, 33
    3   16 S      9
    4    1 H      34-49

          program call               : xtb data2507/toluene/2Trz6CNDBT/2Trz6CNDBT_toluene_S0_finalOpt.xtbopt.xyz --gfn 2 --uhf 2 --gbsa toluene --ohess vtight --parallel 40 --molden --ceasefiles --namespace data2507/toluene/2Trz6CNDBT/2Trz6CNDBT_toluene_T1_preOpt
      * Solvation model:               GBSA
        Solvent                        toluene
        Solvent mass                       9.2140E+01 g/mol
          :  Hamiltonian                  GFN2-xTB          :
 * total energy  :   -82.9957520 Eh     change       -0.2228688E-09 Eh
 * total energy  :   -82.9981259 Eh     change       -0.2373868E-02 Eh
 * total energy  :   -82.9993916 Eh     change       -0.1265695E-02 Eh
 * total energy  :   -82.9993395 Eh     change        0.5207939E-04 Eh
 * total energy  :   -82.9996541 Eh     change       -0.3146222E-03 Eh
 * total energy  :   -82.9997548 Eh     change       -0.1006550E-03 Eh
 * total energy  :   -82.9997941 Eh     change       -0.3930709E-04 Eh
 * total energy  :   -82.9998031 Eh     change       -0.9049010E-05 Eh
 * total energy  :   -82.9998065 Eh     change       -0.3408681E-05 Eh
 * total energy  :   -82.9998081 Eh     change       -0.1543249E-05 Eh
 * total energy  :   -82.9998242 Eh     change       -0.1198125E-05 Eh
 * total energy  :   -82.9998254 Eh     change       -0.1241505E-05 Eh
 * total energy  :   -82.9998266 Eh     change       -0.1213549E-05 Eh
 * total energy  :   -82.9998279 Eh     change       -0.1233333E-05 Eh
 * total energy  :   -82.9998294 Eh     change       -0.1504816E-05 Eh
 * total energy  :   -82.9998290 Eh     change        0.4088720E-06 Eh
 * total energy  :   -82.9998298 Eh     change       -0.8449964E-06 Eh
 * total energy  :   -82.9998300 Eh     change       -0.1562942E-06 Eh
 * total energy  :   -82.9998301 Eh     change       -0.9816320E-07 Eh
   *** GEOMETRY OPTIMIZATION CONVERGED AFTER 25 ITERATIONS ***

 final structure:
================
49
 xtb: 6.7.1 (edcfbbe)
N            8.38577282877889       -1.12271432944509        0.02839606188505
C            7.43168741073726       -0.48352860901051        0.03777535253738
C            6.26650545534393        0.30904798445117        0.04957109786249
C            6.36260438803795        1.70296356949678        0.08639998299460
C            5.21954787177109        2.48396024075786        0.09791558139998
C            3.95958258661246        1.90389275367610        0.07285619303205
C            3.83527509602391        0.52103319350258        0.03609991934674
C            4.99475487220596       -0.27497375702968        0.02532930358025
S            4.64969385902929       -1.98449986741484       -0.01862621485133
C            2.92999797080636       -1.66298163935768       -0.02285165304223
C            1.91760434477504       -2.62100285072529       -0.05069598936648
C            0.61156015953581       -2.20318159222929       -0.04821957793386
C            0.27995363116234       -0.82564790866652       -0.02034858290921
C           -1.07685635676789       -0.40943792140797       -0.01749723299309
N           -2.07747083161734       -1.32213516967323       -0.01219236521206
C           -3.32144875976175       -0.92351539701048       -0.00088014337930
C           -4.39161833841585       -1.90876898585344        0.01297438535008
C           -5.72653767431379       -1.49810938635791        0.01153731361998
C           -6.74052187055391       -2.43498944790979        0.02756348844041
C           -6.43889604014697       -3.78879244455300        0.04497639717985
C           -5.11450809853256       -4.20399330732854        0.04611366341020
C           -4.09516717570054       -3.27413284172529        0.03020173311645
N           -3.65611674442016        0.38533322263083        0.00099261647475
C           -2.64369849825562        1.27500853221768       -0.01300790001407
C           -2.97670717126518        2.69373797934418       -0.02214539840430
C           -1.96711910822987        3.65684005564867       -0.08519610493992
C           -2.28919299710176        4.99877353810310       -0.09556209576024
C           -3.61708253658629        5.39866968668030       -0.04363663814044
C           -4.62466010361528        4.44764582493670        0.01915520772828
C           -4.31054251220299        3.10300378365672        0.02942141602386
N           -1.38810591403744        0.91306374287019       -0.01918439214206
C            1.31840915473143        0.12891001237456        0.00646181535607
C            2.63350359082570       -0.28291738223574        0.00705917899029
H            7.34115115488213        2.15840103138799        0.10547733042592
H            5.31336919342483        3.55844316490543        0.12675202542971
H            3.07430502988841        2.51990325039795        0.08198559999057
H            2.16562315678863       -3.67089823815590       -0.07272716531337
H           -0.19430944980690       -2.91943799396553       -0.06876800926992
H           -5.94442649805386       -0.44115379992225       -0.00249398453705
H           -7.77084143740707       -2.11111365649421        0.02646067611552
H           -7.23390194223582       -4.51927414542064        0.05765171796932
H           -4.87905900114358       -5.25798966334943        0.05951181713956
H           -3.06053811266687       -3.58180409168582        0.03172798927981
H           -0.93920439433541        3.33068973283781       -0.12710782229833
H           -1.50419924672925        5.73892364321434       -0.14484394716703
H           -3.86547928089064        6.44942798016466       -0.05205256871121
H           -5.65857438644445        4.75717846338703        0.05946042461454
H           -5.08322685568004        2.35113793691413        0.07813009501914
H            1.06008828642815        1.17521010190748        0.02873727879209

          :  Hamiltonian                  GFN2-xTB          :
         :: gradient norm              0.000107462987 Eh/a0 ::
         :: HOMO-LUMO gap              0.177393381775 eV    ::
         :: SCC energy               -84.496062676859 Eh    ::
         :: -> dispersion             -0.064985085234 Eh    ::
         :: -> Gsolv                  -0.043219099986 Eh    ::
         :: repulsion energy           1.496232608295 Eh    ::

    * Orbital Energies and Occupations

         #    Occupation            Energy/Eh            Energy/eV
      -------------------------------------------------------------
         1        2.0000           -0.7473712             -20.3370
       ...           ...                  ...                  ...
        66        2.0000           -0.4354871             -11.8502
        67        2.0000           -0.4325115             -11.7692
        68        2.0000           -0.4316950             -11.7470
        69        2.0000           -0.4257835             -11.5862
        70        2.0000           -0.4185525             -11.3894
        71        2.0000           -0.4177581             -11.3678
        72        2.0000           -0.4155809             -11.3085
        73        2.0000           -0.4141154             -11.2687
        74        2.0000           -0.4068600             -11.0712
        75        1.7674           -0.3924371             -10.6788
        76        1.6502           -0.3918921             -10.6639
        77        1.5824           -0.3916189             -10.6565
        78        0.9687           -0.3013375              -8.1998 (HOMO)
        79        0.0313           -0.2948185              -8.0224 (LUMO)
        80        0.0000           -0.2868512              -7.8056
        81                         -0.2669943              -7.2653
        82                         -0.2554759              -6.9519
        83                         -0.2353191              -6.4034
        84                         -0.2344311              -6.3792
        85                         -0.2297871              -6.2528
        86                         -0.2231582              -6.0724
        87                         -0.2111626              -5.7460
        88                         -0.2081182              -5.6632
        89                         -0.2022149              -5.5025
       ...                                ...                  ...
       153                          1.1542900              31.4098
      -------------------------------------------------------------
                  HL-Gap            0.0065190 Eh            0.1774 eV

     #   Z          covCN         q      C6AA      α(0)
     1   7 N        0.911    -0.262    26.796     7.487
     2   6 C        1.910     0.120    28.160     8.570
     3   6 C        2.986     0.008    27.838     8.655
     4   6 C        2.926    -0.020    28.507     8.756
     5   6 C        2.916    -0.026    28.652     8.778
     6   6 C        2.916    -0.023    28.576     8.766
     7   6 C        3.099     0.006    27.767     8.636
     8   6 C        3.004     0.039    27.122     8.543
     9  16 S        2.200    -0.021   141.931    20.051
    10   6 C        3.000     0.021    27.519     8.605
    11   6 C        2.928    -0.033    28.828     8.805
    12   6 C        2.924    -0.038    28.942     8.822
    13   6 C        2.975    -0.009    28.244     8.717
    14   6 C        2.922     0.158    24.591     8.132
    15   7 N        1.847    -0.251    27.386     7.756
    16   6 C        2.919     0.200    23.750     7.992
    17   6 C        2.982    -0.006    28.155     8.704
    18   6 C        2.923    -0.027    28.672     8.781
    19   6 C        2.917    -0.027    28.672     8.781
    20   6 C        2.920    -0.025    28.621     8.773
    21   6 C        2.918    -0.027    28.671     8.781
    22   6 C        2.923    -0.028    28.690     8.784
    23   7 N        1.846    -0.299    28.590     7.924
    24   6 C        2.919     0.202    23.723     7.987
    25   6 C        2.983    -0.005    28.141     8.702
    26   6 C        2.923    -0.027    28.685     8.783
    27   6 C        2.918    -0.027    28.674     8.781
    28   6 C        2.920    -0.024    28.614     8.772
    29   6 C        2.918    -0.027    28.668     8.780
    30   6 C        2.923    -0.027    28.664     8.780
    31   7 N        1.846    -0.258    27.567     7.781
    32   6 C        2.920    -0.038    28.955     8.824
    33   6 C        3.094    -0.000    27.920     8.660
    34   1 H        0.926     0.055     2.261     2.351
    35   1 H        0.926     0.060     2.203     2.321
    36   1 H        0.926     0.060     2.204     2.321
    37   1 H        0.926     0.051     2.311     2.377
    38   1 H        0.926     0.049     2.335     2.390
    39   1 H        0.926     0.049     2.337     2.391
    40   1 H        0.926     0.047     2.356     2.401
    41   1 H        0.926     0.048     2.342     2.393
    42   1 H        0.926     0.047     2.355     2.400
    43   1 H        0.926     0.046     2.369     2.407
    44   1 H        0.926     0.047     2.362     2.403
    45   1 H        0.926     0.048     2.348     2.396
    46   1 H        0.926     0.049     2.338     2.391
    47   1 H        0.926     0.047     2.355     2.400
    48   1 H        0.926     0.048     2.339     2.392
    49   1 H        0.926     0.052     2.297     2.370

molecular dipole:
                 x           y           z       tot (Debye)
 q only:       -1.669       1.194       0.020
   full:       -2.080       1.477       0.024       6.484

 projected vibrational frequencies (cm⁻¹)
eigval :       -0.00    -0.00    -0.00    -0.00     0.00     0.00
eigval :       11.37    21.34    25.92    28.71    29.97    48.52
eigval :       56.35    79.62    89.95    93.19   110.57   117.54
eigval :      132.69   171.64   181.46   187.34   200.04   207.59
eigval :      243.24   248.08   271.78   275.94   306.17   363.82
eigval :      365.50   367.39   368.81   374.91   379.02   395.64
eigval :      401.98   408.68   418.01   455.28   478.28   505.53
eigval :      526.65   537.94   552.64   553.88   572.30   577.87
eigval :      587.16   590.30   592.12   602.94   607.99   641.06
eigval :      648.14   649.12   657.87   665.18   679.45   686.37
eigval :      723.63   759.29   760.87   791.73   798.67   801.66
eigval :      803.74   829.88   863.93   868.09   887.02   895.55
eigval :      898.85   900.51   914.42   918.12   923.17   926.94
eigval :      928.19   928.71   941.68   979.71   983.79  1002.69
eigval :     1044.12  1058.97  1071.89  1073.68  1088.38  1107.02
eigval :     1107.59  1116.03  1133.60  1151.00  1155.50  1174.69
eigval :     1175.27  1175.88  1178.30  1185.31  1203.70  1224.03
eigval :     1228.87  1264.06  1265.23  1266.54  1277.71  1322.89
eigval :     1328.18  1329.32  1333.41  1337.46  1346.30  1363.90
eigval :     1402.30  1425.07  1428.80  1432.75  1443.00  1447.67
eigval :     1456.90  1464.61  1482.07  1526.42  1541.62  1555.89
eigval :     1565.95  1567.90  1579.94  1584.97  2341.51  3077.57
eigval :     3077.74  3080.64  3080.86  3090.21  3090.52  3090.93
eigval :     3092.62  3095.49  3096.38  3097.87  3098.51  3099.59
eigval :     3105.67  3106.54  3108.26

   temp. (K)  partition function   enthalpy   heat capacity  entropy
                                   cal/mol     cal/K/mol   cal/K/mol   J/K/mol
 298.15  VIB  0.122E+13            15425.654     95.351     95.852
         ROT  0.385E+08              888.752      2.981     37.689
         INT  0.468E+20            16314.406     98.332    133.541
         TR   0.895E+28             1481.254      4.968     44.118
         TOT                       17795.6602   103.3001   177.6585   743.3231

       T/K    H(0)-H(T)+PV         H(T)/Eh          T*S/Eh         G(T)/Eh
   ------------------------------------------------------------------------
    298.15    0.283592E-01    0.375113E+00    0.844113E-01    0.290702E+00
   ------------------------------------------------------------------------

         :::::::::::::::::::::::::::::::::::::::::::::::::::::
         ::                  THERMODYNAMIC                  ::
         :::::::::::::::::::::::::::::::::::::::::::::::::::::
         :: total free energy         -82.709128453009 Eh   ::
         ::.................................................::
         :: total energy              -82.999830068093 Eh   ::
         :: zero point energy           0.346753703291 Eh   ::
         :: G(RRHO) w/o ZPVE           -0.056052088207 Eh   ::
         :: G(RRHO) contrib.            0.290701615084 Eh   ::
         :::::::::::::::::::::::::::::::::::::::::::::::::::::

           -------------------------------------------------
          | TOTAL ENERGY              -82.999830068093 Eh   |
          | TOTAL ENTHALPY            -82.624717175112 Eh   |
          | TOTAL FREE ENERGY         -82.709128453009 Eh   |
          | GRADIENT NORM               0.000105492123 Eh/α |
          | HOMO-LUMO GAP               0.177391996980 eV   |
           -------------------------------------------------

 * finished run on 2025/08/25 at 22:18:28.759
