   * xtb version 6.7.1 (edcfbbe) compiled by 'albert@albert-system' on 2024-07-22

   ID    Z sym.   atoms
    1    7 N      1, 15, 23, 31
    2    6 C      2-8, 10-14, 16-22, 24-30, 32, 33
    3   16 S      9
    4    1 H      34-49

          program call               : xtb data2507/toluene/2Trz6CNDBT/2Trz6CNDBT.xyz --gfn 2 --gbsa toluene --ohess vtight --parallel 40 --molden --ceasefiles --namespace data2507/toluene/2Trz6CNDBT/2Trz6CNDBT_toluene_S0_preOpt
      * Solvation model:               GBSA
        Solvent                        toluene
        Solvent mass                       9.2140E+01 g/mol
          :  Hamiltonian                  GFN2-xTB          :
 * total energy  :   -83.0736201 Eh     change       -0.2214350E-08 Eh
 * total energy  :   -83.0832675 Eh     change       -0.9647474E-02 Eh
 * total energy  :   -83.0859139 Eh     change       -0.2646350E-02 Eh
 * total energy  :   -83.0865097 Eh     change       -0.5958608E-03 Eh
 * total energy  :   -83.0866633 Eh     change       -0.1536019E-03 Eh
 * total energy  :   -83.0866880 Eh     change       -0.2466016E-04 Eh
 * total energy  :   -83.0867040 Eh     change       -0.1603663E-04 Eh
 * total energy  :   -83.0867014 Eh     change        0.2674283E-05 Eh
 * total energy  :   -83.0867100 Eh     change       -0.8682810E-05 Eh
 * total energy  :   -83.0867122 Eh     change       -0.2101679E-05 Eh
 * total energy  :   -83.0867128 Eh     change       -0.6310546E-06 Eh
 * total energy  :   -83.0867136 Eh     change       -0.7905717E-06 Eh
 * total energy  :   -83.0867143 Eh     change       -0.7669262E-06 Eh
 * total energy  :   -83.0867150 Eh     change       -0.6164286E-06 Eh
 * total energy  :   -83.0867153 Eh     change       -0.3460634E-06 Eh
 * total energy  :   -83.0867154 Eh     change       -0.1392509E-06 Eh
 * total energy  :   -83.0867155 Eh     change       -0.9701408E-07 Eh
   *** GEOMETRY OPTIMIZATION CONVERGED AFTER 17 ITERATIONS ***

 final structure:
================
49
 xtb: 6.7.1 (edcfbbe)
N            8.77830277889583       -2.54486060169805       -0.00005247540084
C            7.92026732859540       -1.78254754189189       -0.00008988572384
C            6.86969379026727       -0.84068243674054       -0.00008358708800
C            7.14706857028825        0.52648203493362       -0.00018499585443
C            6.11489154231838        1.45309355432265       -0.00020980751088
C            4.79389737433145        1.04359673979188       -0.00014103448450
C            4.49020428547464       -0.31483023742640       -0.00003700869779
C            5.53443885709717       -1.25529258672287       -0.00000318989468
S            4.96894335915593       -2.90781593749990        0.00014000821815
C            3.30793149238603       -2.35894118427718        0.00014416549697
C            2.18477242604163       -3.17408795700162        0.00023547003855
C            0.94100008536900       -2.58135718836501        0.00022825124506
C            0.80842918576460       -1.18630860485649        0.00011740907983
C           -0.52362006635590       -0.57973846236884        0.00004940702472
N           -1.57775836477390       -1.39052843173189        0.00003591280806
C           -2.76975736380477       -0.79693787017712       -0.00001695174850
C           -3.96025619903537       -1.64661545107556       -0.00006733621463
C           -3.83252623268082       -3.03532002778800        0.00005498967990
C           -4.95917992702962       -3.83488081830797        0.00003603443520
C           -6.22074690752935       -3.25910067179284       -0.00011410875319
C           -6.35455346895553       -1.87879409569346       -0.00024227997910
C           -5.23175214964006       -1.07382230352067       -0.00021690655954
N           -2.94187178382826        0.52249142960643       -0.00004207764201
C           -1.83324298602187        1.25808894333868        0.00002962981576
C           -1.97359627431455        2.71420099388955        0.00002813599815
C           -0.84189045943640        3.52897206520452        0.00015103003880
C           -0.97708455903684        4.90382440186112        0.00020632600787
C           -2.23929052809852        5.47819365266241        0.00013342602620
C           -3.36877156974584        4.67369061206999        0.00000387391784
C           -3.23994334404008        3.29804845384840       -0.00005220981005
N           -0.60292425724264        0.74845143746614        0.00006415431906
C            1.93755059346860       -0.37653612545280        0.00003645218725
C            3.19847930468277       -0.95581747366804        0.00004831731136
H            8.17666741594354        0.85111758739101       -0.00024722426473
H            6.35092680822733        2.50588353290165       -0.00029135313095
H            3.99502201407050        1.76828150034362       -0.00017016340046
H            2.28923929761543       -4.24761927494874        0.00031966193443
H            0.04570097493335       -3.18189176185669        0.00027979005023
H           -2.84376297572566       -3.46669194743219        0.00018992988862
H           -4.85528517521529       -4.90977217610283        0.00015505021295
H           -7.09989808896233       -3.88628823574018       -0.00013088742917
H           -7.33709659363910       -1.43073827522334       -0.00037944182458
H           -5.31697570341469        0.00158429204886       -0.00032672020835
H            0.13159702627848        3.06431387828505        0.00025843578047
H           -0.09800178905040        5.53111171921277        0.00032357542294
H           -2.34291342403071        6.55311662016667        0.00014726442359
H           -4.35137929387713        5.12160569502414       -0.00009788495129
H           -4.10767843740616        2.65712490009823       -0.00015807420072
H            1.81673441168653        0.69454563489387       -0.00006209658964

          :  Hamiltonian                  GFN2-xTB          :
         :: gradient norm              0.000088408601 Eh/a0 ::
         :: HOMO-LUMO gap              2.304463174069 eV    ::
         :: SCC energy               -84.588943683301 Eh    ::
         :: -> dispersion             -0.065160168151 Eh    ::
         :: -> Gsolv                  -0.044659193541 Eh    ::
         :: repulsion energy           1.502228144764 Eh    ::

    * Orbital Energies and Occupations

         #    Occupation            Energy/Eh            Energy/eV
      -------------------------------------------------------------
         1        2.0000           -0.7462136             -20.3055
       ...           ...                  ...                  ...
        65        2.0000           -0.4367275             -11.8840
        66        2.0000           -0.4349921             -11.8367
        67        2.0000           -0.4325451             -11.7702
        68        2.0000           -0.4321841             -11.7603
        69        2.0000           -0.4314849             -11.7413
        70        2.0000           -0.4186230             -11.3913
        71        2.0000           -0.4180727             -11.3763
        72        2.0000           -0.4156278             -11.3098
        73        2.0000           -0.4147832             -11.2868
        74        2.0000           -0.4113202             -11.1926
        75        2.0000           -0.3932689             -10.7014
        76        2.0000           -0.3845482             -10.4641
        77        2.0000           -0.3836375             -10.4393 (HOMO)
        78                         -0.2989500              -8.1348 (LUMO)
        79                         -0.2961953              -8.0599
        80                         -0.2880290              -7.8377
        81                         -0.2701625              -7.3515
        82                         -0.2551931              -6.9442
        83                         -0.2357566              -6.4153
        84                         -0.2351972              -6.4000
        85                         -0.2309440              -6.2843
        86                         -0.2280374              -6.2052
        87                         -0.2120348              -5.7698
        88                         -0.2118032              -5.7635
       ...                                ...                  ...
       153                          1.1552491              31.4359
      -------------------------------------------------------------
                  HL-Gap            0.0846875 Eh            2.3045 eV

     #   Z          covCN         q      C6AA      α(0)
     1   7 N        0.911    -0.261    26.757     7.481
     2   6 C        1.910     0.121    28.128     8.565
     3   6 C        2.986     0.007    27.851     8.657
     4   6 C        2.927    -0.019    28.475     8.751
     5   6 C        2.916    -0.028    28.698     8.785
     6   6 C        2.916    -0.022    28.552     8.762
     7   6 C        3.099     0.003    27.827     8.645
     8   6 C        3.007     0.042    27.048     8.531
     9  16 S        2.203    -0.056   143.363    20.152
    10   6 C        3.003     0.042    27.042     8.530
    11   6 C        2.934    -0.035    28.874     8.812
    12   6 C        2.927    -0.026    28.652     8.778
    13   6 C        2.982    -0.012    28.296     8.726
    14   6 C        2.981     0.215    23.460     7.945
    15   7 N        1.844    -0.321    29.178     8.005
    16   6 C        2.979     0.217    23.437     7.941
    17   6 C        2.983    -0.010    28.251     8.719
    18   6 C        2.923    -0.026    28.644     8.777
    19   6 C        2.918    -0.027    28.674     8.781
    20   6 C        2.920    -0.022    28.545     8.761
    21   6 C        2.918    -0.027    28.673     8.781
    22   6 C        2.923    -0.026    28.640     8.776
    23   7 N        1.844    -0.320    29.149     8.001
    24   6 C        2.979     0.216    23.445     7.943
    25   6 C        2.983    -0.010    28.249     8.718
    26   6 C        2.924    -0.026    28.647     8.777
    27   6 C        2.918    -0.027    28.678     8.782
    28   6 C        2.920    -0.022    28.548     8.762
    29   6 C        2.918    -0.027    28.670     8.781
    30   6 C        2.923    -0.025    28.637     8.776
    31   7 N        1.844    -0.322    29.186     8.007
    32   6 C        2.922    -0.027    28.680     8.782
    33   6 C        3.102     0.001    27.878     8.652
    34   1 H        0.926     0.055     2.256     2.349
    35   1 H        0.926     0.060     2.204     2.322
    36   1 H        0.926     0.060     2.195     2.317
    37   1 H        0.926     0.059     2.216     2.328
    38   1 H        0.926     0.063     2.167     2.302
    39   1 H        0.926     0.050     2.314     2.379
    40   1 H        0.926     0.048     2.346     2.395
    41   1 H        0.926     0.050     2.316     2.380
    42   1 H        0.926     0.048     2.345     2.395
    43   1 H        0.926     0.051     2.307     2.375
    44   1 H        0.926     0.050     2.317     2.380
    45   1 H        0.926     0.048     2.343     2.394
    46   1 H        0.926     0.050     2.317     2.381
    47   1 H        0.926     0.048     2.348     2.396
    48   1 H        0.926     0.051     2.310     2.377
    49   1 H        0.926     0.064     2.147     2.291

molecular dipole:
                 x           y           z       tot (Debye)
 q only:       -1.462       1.349      -0.000
   full:       -1.821       1.680      -0.000       6.297

 projected vibrational frequencies (cm⁻¹)
eigval :       -0.00    -0.00     0.00     0.00     0.00     0.00
eigval :      -17.40    -9.83    16.11    19.77    31.73    48.85
eigval :       59.35    79.86    86.26    89.80   101.16   121.11
eigval :      132.81   175.94   179.77   191.54   205.63   205.75
eigval :      245.80   263.28   287.81   292.50   359.10   361.60
eigval :      372.54   372.85   387.99   396.87   398.92   400.94
eigval :      402.03   433.92   451.80   469.15   523.65   530.35
eigval :      542.23   563.40   577.24   587.16   588.15   588.89
eigval :      612.25   625.11   638.10   645.86   650.54   658.83
eigval :      671.16   685.29   689.70   701.14   738.93   749.76
eigval :      772.54   793.49   798.14   829.46   831.95   846.60
eigval :      870.18   873.53   874.78   892.81   908.24   909.72
eigval :      914.20   920.11   927.05   928.76   931.15   931.51
eigval :      937.38   982.60   989.31  1016.77  1047.66  1053.57
eigval :     1073.03  1073.77  1082.63  1105.60  1107.61  1110.68
eigval :     1119.24  1148.69  1164.79  1170.37  1175.95  1177.08
eigval :     1182.12  1191.27  1200.85  1205.61  1217.64  1232.89
eigval :     1265.73  1266.73  1287.28  1325.53  1327.47  1331.83
eigval :     1342.71  1349.19  1366.31  1370.09  1370.60  1415.63
eigval :     1427.46  1429.62  1443.10  1461.07  1462.71  1473.67
eigval :     1504.13  1510.10  1547.05  1553.33  1564.37  1578.47
eigval :     1580.82  1583.28  1591.89  1592.59  2360.76  3078.48
eigval :     3078.86  3083.04  3083.60  3092.41  3092.61  3092.89
eigval :     3098.91  3100.68  3104.48  3104.96  3105.61  3107.17
eigval :     3107.52  3113.11  3116.39

   temp. (K)  partition function   enthalpy   heat capacity  entropy
                                   cal/mol     cal/K/mol   cal/K/mol   J/K/mol
 298.15  VIB  0.221E+13            14938.045     91.812     94.089
         ROT  0.382E+08              888.752      2.981     37.675
         INT  0.844E+20            15826.797     94.793    131.764
         TR   0.895E+28             1481.254      4.968     44.118
         TOT                       17308.0512    99.7609   175.8814   735.8878

       T/K    H(0)-H(T)+PV         H(T)/Eh          T*S/Eh         G(T)/Eh
   ------------------------------------------------------------------------
    298.15    0.275821E-01    0.380705E+00    0.835669E-01    0.297138E+00
   ------------------------------------------------------------------------

         :::::::::::::::::::::::::::::::::::::::::::::::::::::
         ::                  THERMODYNAMIC                  ::
         :::::::::::::::::::::::::::::::::::::::::::::::::::::
         :: total free energy         -82.789577341192 Eh   ::
         ::.................................................::
         :: total energy              -83.086715541850 Eh   ::
         :: zero point energy           0.353122997701 Eh   ::
         :: G(RRHO) w/o ZPVE           -0.055984797043 Eh   ::
         :: G(RRHO) contrib.            0.297138200657 Eh   ::
         :::::::::::::::::::::::::::::::::::::::::::::::::::::

           -------------------------------------------------
          | TOTAL ENERGY              -83.086715541850 Eh   |
          | TOTAL ENTHALPY            -82.706010408858 Eh   |
          | TOTAL FREE ENERGY         -82.789577341192 Eh   |
          | GRADIENT NORM               0.000088610994 Eh/α |
          | HOMO-LUMO GAP               2.304463058622 eV   |
           -------------------------------------------------

 * finished run on 2025/08/25 at 22:16:33.059
