   * xtb version 6.7.1 (edcfbbe) compiled by 'albert@albert-system' on 2024-07-22

   ID    Z sym.   atoms
    1    6 C      1-8, 10-14, 16-21, 23-36, 38-53
    2    7 N      9, 15, 22, 37
    3    1 H      54-91

          program call               : xtb data2507/gas/PPZTPI/PPZTPI_gas_S0_crest.xyz --gfn 2 --ohess vtight --parallel 40 --molden --ceasefiles --namespace data2507/gas/PPZTPI/PPZTPI_gas_S0_finalOpt
          :  Hamiltonian                  GFN2-xTB          :
 * total energy  :  -136.0985776 Eh     change       -0.4082068E-08 Eh
 * total energy  :  -136.0985795 Eh     change       -0.1905472E-05 Eh
 * total energy  :  -136.0985817 Eh     change       -0.2172535E-05 Eh
 * total energy  :  -136.0985843 Eh     change       -0.2636270E-05 Eh
 * total energy  :  -136.0985863 Eh     change       -0.1959055E-05 Eh
 * total energy  :  -136.0985887 Eh     change       -0.2445282E-05 Eh
 * total energy  :  -136.0985906 Eh     change       -0.1802521E-05 Eh
 * total energy  :  -136.0985915 Eh     change       -0.9104061E-06 Eh
 * total energy  :  -136.0985923 Eh     change       -0.8528265E-06 Eh
 * total energy  :  -136.0985935 Eh     change       -0.1171509E-05 Eh
 * total energy  :  -136.0985986 Eh     change       -0.7834960E-06 Eh
 * total energy  :  -136.0985992 Eh     change       -0.5931852E-06 Eh
 * total energy  :  -136.0985997 Eh     change       -0.5219415E-06 Eh
 * total energy  :  -136.0986002 Eh     change       -0.5217381E-06 Eh
 * total energy  :  -136.0986007 Eh     change       -0.4494265E-06 Eh
 * total energy  :  -136.0986011 Eh     change       -0.3900741E-06 Eh
 * total energy  :  -136.0986014 Eh     change       -0.2830929E-06 Eh
 * total energy  :  -136.0986017 Eh     change       -0.3197585E-06 Eh
 * total energy  :  -136.0986017 Eh     change       -0.1227795E-07 Eh
   *** GEOMETRY OPTIMIZATION CONVERGED AFTER 22 ITERATIONS ***

 final structure:
================
91
 xtb: 6.7.1 (edcfbbe)
C           -1.35464841448136        5.93182739626517       -1.81931372005460
C           -0.90249709775219        5.14705522703467       -0.58493076136104
C            0.60672521905425        4.89018948276078       -0.70352285006495
C           -1.19151315686685        6.00245661759762        0.65660751632504
C           -1.60957270179243        3.80878857971655       -0.44894403250911
C           -2.52541605787601        3.33815745550538       -1.38341756052434
C           -3.11438426400814        2.09338090864977       -1.25181052944276
C           -2.80689524033166        1.29012047408653       -0.16174368893753
N           -3.32016911661308       -0.01714597748263       -0.05795415054737
C           -2.53066863329234       -1.14709539472451       -0.04285623181071
C           -1.07851917575422       -1.10342132117342       -0.12049696800762
C           -0.33364754667285       -1.94448562381754        0.70528888940654
C            1.04376443706317       -1.87217711068762        0.71931843383781
C            1.70408984919920       -0.96458565559192       -0.10467819421502
N            3.11010392208785       -0.84123838014886       -0.05387371979272
C            3.91719997964661       -1.90549371951507       -0.45956385322392
C            3.36610181773739       -3.06222889292431       -0.98972611173057
C            4.17026242653363       -4.13217505267329       -1.35942197977441
C            5.53550639742631       -4.05138378492439       -1.19660388755356
C            6.10408278153052       -2.88558430671388       -0.70073869179789
C            5.31563362245092       -1.79799711486887       -0.35601966247621
N            5.88318700094219       -0.61044835136519        0.10490911348828
C            7.29172549310523       -0.49873946821533        0.20472312044670
C            8.07108669270549       -0.43629040252391       -0.94508185597969
C            9.44628171974716       -0.33152132098090       -0.84199081506462
C           10.04985735218445       -0.28183189394447        0.40370839649576
C            9.27450272170116       -0.34021347690442        1.55004298150261
C            7.89939962141795       -0.45158133968932        1.45452172907130
C            5.07938790780130        0.46666468830866        0.47229688144586
C            5.63736957667920        1.66909499304660        0.88083752876739
C            4.83637053950621        2.72745522255777        1.28810930812636
C            3.46697616088020        2.58472862400965        1.29364670600495
C            2.89214053851395        1.39902145232761        0.85481079639862
C            3.67858206970366        0.34408385483498        0.41502313053377
C            0.96647805329535       -0.16853300246421       -0.97589073900685
C           -0.41091846923259       -0.23642998982873       -0.98481940711747
N           -3.23635372276376       -2.24340682512392        0.06279084518674
C           -4.53585267703653       -1.84553629238518        0.11122255023108
C           -5.69676483124292       -2.66406499651354        0.18626985609949
C           -5.59905249403637       -4.05931084460445        0.20874682612146
C           -6.73177099885134       -4.83279178706425        0.25087373376752
C           -7.98124165502131       -4.21593272766751        0.26720804223149
C           -8.08875352006646       -2.84499823902176        0.25084734811922
C           -6.95455500387516       -2.01923917150344        0.21665070950403
C           -7.03421442178504       -0.56875252323144        0.23245477811561
C           -8.26220783584339        0.10000340887891        0.33651408881875
C           -8.34376916079793        1.47098350297619        0.39622563426867
C           -7.18568215840413        2.24157297835448        0.37154107841567
C           -5.96302583327857        1.62685253500064        0.26186036461754
C           -5.86036512126532        0.23144517318464        0.17024921977324
C           -4.61940674853830       -0.45489586311912        0.05169252563081
C           -1.91246519057077        1.75404563820423        0.79521575860751
C           -1.32478445035166        2.99323755282935        0.64437559662185
H           -0.82188451805078        6.87956796132554       -1.85959097201234
H           -2.41992470257026        6.14746858990474       -1.77825968815406
H           -1.13453153176186        5.38662208388966       -2.73417668247810
H            0.81805529804225        4.27969224650658       -1.57898578658005
H            0.99166763915457        4.37073027386802        0.16908992308248
H            1.14067213673403        5.83251712844606       -0.80361133144493
H           -2.26297755806861        6.15684762753169        0.76660731390498
H           -0.82019394908170        5.53087658008310        1.56194618471083
H           -0.71170944014802        6.97384722336907        0.55967681639841
H           -2.78703578959282        3.93139220648251       -2.24390833965409
H           -3.80927961507945        1.73649678462101       -1.99855845142193
H           -0.85621470375138       -2.63542480411354        1.34822251690234
H            1.61922620790252       -2.50642742563822        1.37729062827438
H            2.29740711745001       -3.13277692461867       -1.11825853250367
H            3.71475170179326       -5.02184294604550       -1.76580852827140
H            6.17244395634477       -4.88213893150760       -1.45837641127038
H            7.17460921237851       -2.82634954014135       -0.58109368792742
H            7.59170125778435       -0.47319831061676       -1.91229761037076
H           10.04837876818260       -0.28360270116019       -1.73726848303186
H           11.12344057711048       -0.19762401694650        0.48107032019563
H            9.74270782544836       -0.30416890542335        2.52256931745165
H            7.28674887620593       -0.49988243356251        2.34277879323036
H            6.71008095796637        1.78335414520813        0.88439745234591
H            5.29652222651880        3.65042392312905        1.60544662674048
H            2.83349857998412        3.38967340752794        1.63391576258966
H            1.81788981410292        1.29840518362595        0.85933633043133
H            1.48303162358258        0.50909549842681       -1.63950441795469
H           -0.96603411184133        0.37603877538628       -1.67865794115565
H           -4.61254227709853       -4.49559441796501        0.18549077597124
H           -6.66135077975674       -5.91044317527569        0.26677987115034
H           -8.87635702626231       -4.82073843042042        0.29323769915161
H           -9.07697438053964       -2.41310864101468        0.26193994032994
H           -9.17879288665120       -0.46571649408061        0.38099919158751
H           -9.30852815260571        1.95019373164959        0.47584963285190
H           -7.24701593457145        3.31758524769494        0.44252122385354
H           -5.06569870421010        2.22552492122557        0.26196635722752
H           -1.67347633539183        1.13359581943730        1.64650494715210
H           -0.62507692026476        3.32099084565961        1.39748941390381

          :  Hamiltonian                  GFN2-xTB          :
         :: gradient norm              0.000061831268 Eh/a0 ::
         :: HOMO-LUMO gap              1.723184816052 eV    ::
         :: SCC energy              -138.591489896007 Eh    ::
         :: -> dispersion             -0.132025189959 Eh    ::
         :: repulsion energy           2.492888193731 Eh    ::

    * Orbital Energies and Occupations

         #    Occupation            Energy/Eh            Energy/eV
      -------------------------------------------------------------
         1        2.0000           -0.6837735             -18.6064
       ...           ...                  ...                  ...
       115        2.0000           -0.4112780             -11.1914
       116        2.0000           -0.4104337             -11.1685
       117        2.0000           -0.4081280             -11.1057
       118        2.0000           -0.4039258             -10.9914
       119        2.0000           -0.4031636             -10.9706
       120        2.0000           -0.4001858             -10.8896
       121        2.0000           -0.3994390             -10.8693
       122        2.0000           -0.3924765             -10.6798
       123        2.0000           -0.3769497             -10.2573
       124        2.0000           -0.3730943             -10.1524
       125        2.0000           -0.3718741             -10.1192
       126        2.0000           -0.3602273              -9.8023
       127        2.0000           -0.3210855              -8.7372 (HOMO)
       128                         -0.2577596              -7.0140 (LUMO)
       129                         -0.2459897              -6.6937
       130                         -0.2390580              -6.5051
       131                         -0.2370615              -6.4508
       132                         -0.2342791              -6.3751
       133                         -0.2340224              -6.3681
       134                         -0.2325064              -6.3268
       135                         -0.2300666              -6.2604
       136                         -0.2259060              -6.1472
       137                         -0.2174782              -5.9179
       138                         -0.2078503              -5.6559
       ...                                ...                  ...
       250                          0.7326000              19.9351
      -------------------------------------------------------------
                  HL-Gap            0.0633259 Eh            1.7232 eV

     #   Z          covCN         q      C6AA      α(0)
     1   6 C        3.761    -0.109    22.625     6.781
     2   6 C        3.903     0.026    20.077     6.369
     3   6 C        3.762    -0.105    22.560     6.771
     4   6 C        3.761    -0.106    22.577     6.773
     5   6 C        2.973     0.010    27.779     8.645
     6   6 C        2.925    -0.038    28.954     8.824
     7   6 C        2.920    -0.041    29.011     8.833
     8   6 C        2.913     0.062    26.611     8.459
     9   7 N        2.842    -0.045    22.098     6.982
    10   6 C        3.200     0.127    24.703     8.099
    11   6 C        2.974     0.001    28.003     8.680
    12   6 C        2.926    -0.028    28.698     8.785
    13   6 C        2.920    -0.039    28.978     8.828
    14   6 C        2.924     0.068    26.489     8.440
    15   7 N        2.752    -0.076    22.725     7.080
    16   6 C        2.925     0.048    26.927     8.510
    17   6 C        2.924    -0.061    29.518     8.910
    18   6 C        2.918    -0.042    29.032     8.836
    19   6 C        2.918    -0.042    29.032     8.836
    20   6 C        2.924    -0.062    29.535     8.912
    21   6 C        2.926     0.049    26.910     8.507
    22   7 N        2.752    -0.079    22.773     7.088
    23   6 C        2.924     0.069    26.460     8.436
    24   6 C        2.922    -0.039    28.963     8.825
    25   6 C        2.920    -0.028    28.710     8.787
    26   6 C        2.920    -0.032    28.795     8.800
    27   6 C        2.920    -0.028    28.708     8.786
    28   6 C        2.922    -0.039    28.961     8.825
    29   6 C        2.926     0.049    26.894     8.505
    30   6 C        2.924    -0.062    29.545     8.914
    31   6 C        2.918    -0.042    29.052     8.839
    32   6 C        2.918    -0.042    29.045     8.838
    33   6 C        2.923    -0.062    29.549     8.914
    34   6 C        2.926     0.048    26.922     8.509
    35   6 C        2.921    -0.040    28.998     8.831
    36   6 C        2.922    -0.033    28.828     8.805
    37   7 N        1.892    -0.291    28.398     7.900
    38   6 C        3.213     0.056    26.111     8.316
    39   6 C        2.985     0.003    27.954     8.673
    40   6 C        2.922    -0.031    28.782     8.798
    41   6 C        2.917    -0.030    28.759     8.794
    42   6 C        2.917    -0.033    28.826     8.804
    43   6 C        2.922    -0.035    28.870     8.811
    44   6 C        2.979    -0.002    28.063     8.690
    45   6 C        2.980     0.002    27.982     8.677
    46   6 C        2.922    -0.034    28.843     8.807
    47   6 C        2.916    -0.034    28.838     8.806
    48   6 C        2.917    -0.032    28.800     8.800
    49   6 C        2.919    -0.040    28.996     8.830
    50   6 C        2.978    -0.002    28.061     8.689
    51   6 C        3.074     0.020    27.487     8.596
    52   6 C        2.921    -0.041    29.031     8.836
    53   6 C        2.928    -0.032    28.806     8.802
    54   1 H        0.925     0.039     2.459     2.452
    55   1 H        0.925     0.037     2.491     2.468
    56   1 H        0.925     0.037     2.493     2.469
    57   1 H        0.925     0.034     2.530     2.487
    58   1 H        0.925     0.039     2.456     2.451
    59   1 H        0.925     0.040     2.446     2.446
    60   1 H        0.925     0.035     2.520     2.482
    61   1 H        0.925     0.038     2.481     2.463
    62   1 H        0.925     0.040     2.447     2.446
    63   1 H        0.926     0.045     2.383     2.414
    64   1 H        0.926     0.040     2.453     2.449
    65   1 H        0.926     0.054     2.265     2.353
    66   1 H        0.926     0.045     2.387     2.416
    67   1 H        0.926     0.030     2.593     2.518
    68   1 H        0.926     0.028     2.610     2.526
    69   1 H        0.926     0.027     2.627     2.535
    70   1 H        0.926     0.027     2.636     2.539
    71   1 H        0.926     0.040     2.447     2.446
    72   1 H        0.926     0.036     2.496     2.471
    73   1 H        0.926     0.036     2.509     2.477
    74   1 H        0.926     0.037     2.496     2.470
    75   1 H        0.926     0.040     2.449     2.447
    76   1 H        0.926     0.026     2.638     2.540
    77   1 H        0.926     0.026     2.639     2.540
    78   1 H        0.926     0.022     2.704     2.572
    79   1 H        0.926     0.025     2.657     2.549
    80   1 H        0.926     0.041     2.441     2.443
    81   1 H        0.926     0.033     2.539     2.492
    82   1 H        0.926     0.050     2.317     2.381
    83   1 H        0.926     0.029     2.595     2.519
    84   1 H        0.926     0.027     2.628     2.535
    85   1 H        0.926     0.030     2.588     2.516
    86   1 H        0.926     0.034     2.537     2.491
    87   1 H        0.926     0.028     2.621     2.532
    88   1 H        0.926     0.026     2.646     2.544
    89   1 H        0.926     0.027     2.631     2.536
    90   1 H        0.926     0.035     2.517     2.481
    91   1 H        0.926     0.039     2.466     2.456

molecular dipole:
                 x           y           z       tot (Debye)
 q only:        0.861       1.167      -0.077
   full:        0.746       1.564      -0.090       4.409

 projected vibrational frequencies (cm⁻¹)
eigval :       -0.00    -0.00    -0.00     0.00     0.00     0.00
eigval :        6.09     8.46    14.65    20.45    22.26    26.70
eigval :       29.68    39.55    43.07    47.01    55.41    65.46
eigval :       68.61    76.46    81.81    91.85    98.53   114.44
eigval :      117.55   125.92   143.70   164.67   173.36   180.31
eigval :      185.57   207.30   211.13   223.49   228.17   234.82
eigval :      244.41   248.83   250.67   265.94   269.42   297.72
eigval :      301.88   310.66   315.80   349.57   362.85   368.99
eigval :      373.08   375.43   380.86   384.17   388.57   396.25
eigval :      397.19   404.10   407.56   415.79   425.09   430.40
eigval :      432.58   449.62   450.74   453.66   462.47   477.57
eigval :      486.63   507.82   511.37   513.58   518.22   528.65
eigval :      535.41   548.06   584.54   585.86   586.54   592.37
eigval :      594.79   600.89   604.27   611.17   641.78   644.88
eigval :      655.51   656.86   658.92   668.31   671.48   677.65
eigval :      679.07   683.54   699.47   703.88   718.46   735.53
eigval :      741.48   757.56   761.52   766.37   769.82   772.25
eigval :      782.73   792.37   819.53   823.72   853.83   856.73
eigval :      863.34   871.59   873.80   875.67   878.58   883.29
eigval :      886.84   887.71   889.92   903.98   906.08   907.50
eigval :      907.75   910.62   912.56   914.02   917.63   921.84
eigval :      924.35   927.34   929.21   930.36   930.78   932.34
eigval :      940.37   945.17   960.73   961.80   962.97   970.50
eigval :      995.61  1005.01  1017.34  1033.30  1035.13  1036.05
eigval :     1073.72  1079.19  1085.95  1107.94  1111.57  1114.02
eigval :     1115.21  1123.33  1128.02  1131.43  1136.60  1142.20
eigval :     1146.77  1153.15  1174.79  1180.67  1181.83  1183.19
eigval :     1183.69  1184.45  1186.08  1186.33  1195.89  1201.59
eigval :     1215.04  1221.32  1227.53  1233.39  1238.76  1253.64
eigval :     1257.73  1261.44  1264.37  1269.75  1276.47  1278.19
eigval :     1283.98  1286.86  1295.85  1307.75  1311.69  1314.25
eigval :     1315.66  1317.55  1323.27  1332.96  1339.95  1347.90
eigval :     1366.22  1368.39  1379.86  1399.56  1405.46  1406.60
eigval :     1408.08  1411.14  1422.12  1424.70  1429.96  1433.15
eigval :     1435.12  1438.02  1439.09  1467.49  1471.67  1490.85
eigval :     1491.80  1493.14  1499.96  1502.18  1506.20  1514.24
eigval :     1514.61  1515.43  1518.96  1519.77  1547.39  1555.97
eigval :     1557.51  1564.16  1570.45  1572.00  1578.38  1581.46
eigval :     1585.65  1593.41  1594.87  1595.54  1598.47  1601.76
eigval :     1605.25  3025.50  3027.06  3029.08  3032.09  3034.37
eigval :     3037.03  3040.82  3050.33  3055.65  3071.44  3074.46
eigval :     3078.03  3079.94  3080.66  3081.40  3083.01  3083.39
eigval :     3085.01  3085.37  3085.66  3087.92  3088.12  3091.40
eigval :     3091.89  3093.92  3096.27  3097.24  3098.02  3099.13
eigval :     3100.97  3103.23  3104.90  3105.64  3105.79  3107.67
eigval :     3109.21  3110.30  3119.22

   temp. (K)  partition function   enthalpy   heat capacity  entropy
                                   cal/mol     cal/K/mol   cal/K/mol   J/K/mol
 298.15  VIB  0.471E+21            25703.421    161.533    160.461
         ROT  0.118E+09              888.752      2.981     39.916
         INT  0.555E+29            26592.173    164.514    200.377
         TR   0.173E+29             1481.254      4.968     45.424
         TOT                       28073.4274   169.4819   245.8008  1028.4304

       T/K    H(0)-H(T)+PV         H(T)/Eh          T*S/Eh         G(T)/Eh
   ------------------------------------------------------------------------
    298.15    0.447379E-01    0.763142E+00    0.116788E+00    0.646354E+00
   ------------------------------------------------------------------------

         :::::::::::::::::::::::::::::::::::::::::::::::::::::
         ::                  THERMODYNAMIC                  ::
         :::::::::::::::::::::::::::::::::::::::::::::::::::::
         :: total free energy        -135.452247534612 Eh   ::
         ::.................................................::
         :: total energy             -136.098601702274 Eh   ::
         :: zero point energy           0.718404189483 Eh   ::
         :: G(RRHO) w/o ZPVE           -0.072050021821 Eh   ::
         :: G(RRHO) contrib.            0.646354167662 Eh   ::
         :::::::::::::::::::::::::::::::::::::::::::::::::::::

           -------------------------------------------------
          | TOTAL ENERGY             -136.098601702274 Eh   |
          | TOTAL ENTHALPY           -135.335459658529 Eh   |
          | TOTAL FREE ENERGY        -135.452247534612 Eh   |
          | GRADIENT NORM               0.000061832523 Eh/α |
          | HOMO-LUMO GAP               1.723185258361 eV   |
           -------------------------------------------------

 * finished run on 2025/09/04 at 09:26:54.201
