   * xtb version 6.7.1 (edcfbbe) compiled by 'albert@albert-system' on 2024-07-22

   ID    Z sym.   atoms
    1    6 C      1-8, 10-14, 16-21, 23-36, 38-53
    2    7 N      9, 15, 22, 37
    3    1 H      54-91

          program call               : xtb data2507/gas/PPZTPI/PPZTPI_gas_S0_finalOpt.xtbopt.xyz --gfn 2 --spinpol --tblite --uhf 2 --ohess vtight --parallel 40 --molden --ceasefiles --namespace data2507/gas/PPZTPI/PPZTPI_gas_T1_preOpt
 * total energy  :  -136.0115935 Eh     change       -0.1343631E-07 Eh
 * total energy  :  -136.0158793 Eh     change       -0.4285802E-02 Eh
 * total energy  :  -136.0172144 Eh     change       -0.1335131E-02 Eh
 * total energy  :  -136.0173677 Eh     change       -0.1532240E-03 Eh
 * total energy  :  -136.0175053 Eh     change       -0.1376867E-03 Eh
 * total energy  :  -136.0175586 Eh     change       -0.5324899E-04 Eh
 * total energy  :  -136.0176411 Eh     change       -0.8247810E-04 Eh
 * total energy  :  -136.0176991 Eh     change       -0.5807105E-04 Eh
 * total energy  :  -136.0177401 Eh     change       -0.4092631E-04 Eh
 * total energy  :  -136.0177707 Eh     change       -0.3068206E-04 Eh
 * total energy  :  -136.0193929 Eh     change       -0.1427780E-06 Eh
 * total energy  :  -136.0193931 Eh     change       -0.1229975E-06 Eh
 * total energy  :  -136.0193932 Eh     change       -0.1056996E-06 Eh
 * total energy  :  -136.0193933 Eh     change       -0.1033936E-06 Eh
 * total energy  :  -136.0193935 Eh     change       -0.2370666E-06 Eh
 * total energy  :  -136.0193937 Eh     change       -0.1574945E-06 Eh
 * total energy  :  -136.0193938 Eh     change       -0.1483720E-06 Eh
 * total energy  :  -136.0193939 Eh     change       -0.1317135E-06 Eh
 * total energy  :  -136.0193940 Eh     change       -0.9607766E-07 Eh
   *** GEOMETRY OPTIMIZATION CONVERGED AFTER 145 ITERATIONS ***

 final structure:
================
91
 xtb: 6.7.1 (edcfbbe)
C           -2.01963505708405        6.26523039872952       -2.13950865914434
C           -1.57283455879467        5.64769178173216       -0.81168060822539
C           -0.03800035028916        5.66681641921184       -0.76728491386159
C           -2.13729998473217        6.50729009346622        0.32837104766573
C           -2.05253291583033        4.21561947972682       -0.63956858799627
C           -2.80671833612484        3.54726676046758       -1.59946292159717
C           -3.21401170086896        2.23965678073565       -1.41474492840103
C           -2.87842580905891        1.55722022691232       -0.24817667003563
N           -3.24886042924180        0.22181756914112       -0.05900074976855
C           -2.34429015488972       -0.83719972449480        0.18117633148640
C           -0.94814317236360       -0.80131828964205        0.09215601034903
C           -0.22379490573624       -1.91546154988784        0.62261932109750
C            1.13521077673540       -1.95505481384194        0.60997447034641
C            1.87766058144404       -0.88494644039374        0.06330196706409
N            3.28408851431427       -0.90409879175246        0.08118771130489
C            3.97146441074356       -1.94382663281928       -0.52962261565903
C            3.29939365924483       -2.92557015122644       -1.25687201647264
C            3.98484209248630       -3.98468030259959       -1.82222608526414
C            5.35743750789321       -4.08123576736292       -1.67472679830475
C            6.05015835714396       -3.08715562030598       -1.00517594995707
C            5.37893194557424       -2.00080085318576       -0.45396467093825
N            6.07240944247902       -0.97112858879650        0.16154437830461
C            7.49263158176066       -1.00902993362898        0.21225694666168
C            8.23538634203417       -0.73709270532410       -0.93074201415129
C            9.61682100521491       -0.77580794404291       -0.87603883175654
C           10.25866771486269       -1.08111189584817        0.31363451138245
C            9.51644349899062       -1.35043733992795        1.45257645962414
C            8.13457672774465       -1.31702079665976        1.40591806938875
C            5.39510200311893        0.10080437643325        0.71962204956391
C            6.08720617618486        1.16112641803682        1.29564539465572
C            5.40839616132980        2.20105227402086        1.90704762429628
C            4.02638181584979        2.17794571678539        1.96953572878694
C            3.32226646696408        1.14430971315669        1.38008507357080
C            3.98435738317677        0.11477371585623        0.71219297045239
C            1.18347136171541        0.19204564407767       -0.51909156726862
C           -0.17947474442036        0.23412471182706       -0.52139735194611
N           -3.01589198578808       -1.97424380776556        0.45397365557024
C           -4.30651551416684       -1.69017335653965        0.34793343198808
C           -5.40555832811833       -2.58948008375305        0.48681268819244
C           -5.18868735085820       -3.94778618041489        0.72444106132014
C           -6.25111089984021       -4.81844591443291        0.81960545121958
C           -7.54351002910272       -4.32917082669793        0.66766623992886
C           -7.76875800036049       -2.98827604276914        0.43845878963693
C           -6.71346780444258       -2.06926356839360        0.34935920685981
C           -6.91754084726038       -0.64617253440693        0.14876148884263
C           -8.19832410391057       -0.09071581160061        0.10576992902001
C           -8.41178677297205        1.26309901477506       -0.03798266657926
C           -7.32361246365864        2.13295444558511       -0.12363507804859
C           -6.04944237409992        1.63520656384720       -0.09539851708511
C           -5.80132831139819        0.24811508218032        0.01676210335449
C           -4.51350945543912       -0.31363110984562        0.04770717991100
C           -2.12679325369729        2.21551643625213        0.72458015006190
C           -1.72622897322901        3.51891168180565        0.52365505884411
H           -1.65125368785868        7.28710572438787       -2.20579476026185
H           -3.10433799017627        6.29459276592181       -2.21216644876583
H           -1.61988625676111        5.70951745760118       -2.98465390007782
H            0.36861806098206        5.04356353243642       -1.56127188276935
H            0.33599722574465        5.29393962354088        0.18222912104490
H            0.32863662395127        6.68218331840622       -0.90330723078729
H           -3.22493600646461        6.47959699825721        0.31651390923737
H           -1.79871829649238        6.15317368694182        1.29802846057338
H           -1.81708318423232        7.54070353907284        0.21259534245327
H           -3.08404202214418        4.03650970388839       -2.51877190103273
H           -3.79039555582223        1.73531321724170       -2.17705310646440
H           -0.80113803448522       -2.71219312760108        1.06184392518375
H            1.66648125144181       -2.78639571567853        1.05132464684942
H            2.23165792677818       -2.85066185348181       -1.38197932759059
H            3.44101038824263       -4.73388943555329       -2.37567277935135
H            5.89685427770379       -4.91632082900066       -2.09328162783414
H            7.12288209233563       -3.15021055102873       -0.91123898423832
H            7.72454520905973       -0.49963172686931       -1.85214267393270
H           10.19363410084789       -0.56425284408810       -1.76372447459068
H           11.33688704679370       -1.10912141421386        0.35317443604481
H           10.01496380731036       -1.58993077759485        2.37968495655778
H            7.54595020641037       -1.52521874333819        2.28706586771842
H            7.16547542053620        1.16715071250070        1.26724188932824
H            5.96433234720781        3.01433872540403        2.34643739727266
H            3.48991036676448        2.96466608019333        2.47635607283353
H            2.24652613983042        1.12712908403320        1.44057268593010
H            1.75060671082554        0.97246033136299       -1.00767696550805
H           -0.67528022091860        1.03413406660450       -1.04492130131104
H           -4.16855013074174       -4.28522089468621        0.82274472516370
H           -6.08597619039195       -5.86977821545541        1.00365099570343
H           -8.38426837888427       -5.00571805462514        0.72995063600808
H           -8.78953184494680       -2.65912799281317        0.32402456547674
H           -9.06224363797461       -0.72974583468359        0.19828213654195
H           -9.41899327730160        1.65158832999432       -0.06771100473076
H           -7.48778477122693        3.19766321089694       -0.20639348339084
H           -5.21511104087647        2.31599205763173       -0.13814937658432
H           -1.86049937451407        1.69146571877566        1.63066077174858
H           -1.14704005628636        3.99986341727824        1.29736159917374

 projected vibrational frequencies (cm⁻¹)
eigval :       -0.00    -0.00    -0.00    -0.00     0.00     0.00
eigval :        6.79     8.88    11.66    15.69    21.07    26.47
eigval :       28.09    33.30    47.02    50.85    62.23    63.95
eigval :       67.25    78.42    83.46    96.56   100.66   118.19
eigval :      121.64   129.65   149.67   166.12   175.77   182.64
eigval :      185.01   204.38   211.17   215.24   224.93   234.87
eigval :      243.99   247.63   253.90   263.30   268.72   299.47
eigval :      302.90   309.08   315.12   335.57   355.44   362.86
eigval :      373.36   377.64   380.21   383.43   390.11   393.57
eigval :      399.30   400.77   403.45   411.10   419.00   421.64
eigval :      433.88   437.90   447.80   450.99   461.08   476.58
eigval :      485.79   489.75   495.09   497.60   511.57   525.49
eigval :      528.29   542.59   574.00   581.54   585.88   587.25
eigval :      590.01   593.54   598.47   606.20   612.93   633.86
eigval :      642.64   650.37   658.75   663.11   664.41   666.11
eigval :      666.81   670.89   673.03   691.24   714.13   724.83
eigval :      731.00   751.77   753.87   759.74   768.45   771.85
eigval :      772.85   786.07   792.55   817.07   828.02   849.66
eigval :      856.63   859.11   864.01   867.47   874.39   880.79
eigval :      885.63   889.21   891.54   893.62   893.71   900.48
eigval :      906.17   906.43   909.71   910.15   910.56   915.38
eigval :      916.84   919.06   919.54   921.41   926.32   927.58
eigval :      929.90   939.57   941.22   960.01   962.40   962.67
eigval :      976.84   989.03   995.82  1006.42  1034.57  1035.25
eigval :     1055.92  1074.88  1081.56  1092.93  1102.43  1104.00
eigval :     1105.24  1113.74  1125.72  1127.56  1131.81  1136.97
eigval :     1142.19  1147.17  1158.51  1173.41  1175.56  1175.84
eigval :     1178.59  1179.75  1181.57  1183.59  1192.40  1197.57
eigval :     1210.00  1215.16  1222.85  1227.05  1233.35  1236.63
eigval :     1247.11  1248.61  1252.95  1256.10  1269.38  1276.87
eigval :     1277.36  1283.26  1288.76  1302.03  1305.41  1313.43
eigval :     1315.67  1317.03  1322.33  1327.63  1331.63  1341.44
eigval :     1343.42  1350.51  1362.17  1374.01  1388.35  1395.94
eigval :     1399.34  1404.99  1409.04  1409.92  1412.94  1422.80
eigval :     1427.22  1427.53  1434.87  1440.17  1448.90  1451.95
eigval :     1464.84  1468.27  1469.09  1477.97  1488.74  1491.03
eigval :     1492.99  1493.74  1501.49  1505.18  1507.18  1509.47
eigval :     1513.61  1518.75  1530.72  1536.45  1542.83  1543.56
eigval :     1545.80  1551.17  1561.73  1570.83  1574.34  1582.82
eigval :     1593.93  3021.58  3022.92  3026.54  3029.79  3031.06
eigval :     3035.58  3038.59  3046.50  3049.94  3064.56  3067.60
eigval :     3070.53  3070.94  3079.31  3081.11  3081.21  3082.72
eigval :     3083.28  3083.62  3090.91  3091.50  3092.16  3092.95
eigval :     3093.27  3095.72  3099.96  3100.66  3102.44  3103.70
eigval :     3105.51  3108.53  3108.91  3114.58  3117.60  3118.55
eigval :     3118.80  3121.72  3122.16

   temp. (K)  partition function   enthalpy   heat capacity  entropy
                                   cal/mol     cal/K/mol   cal/K/mol   J/K/mol
 298.15  VIB  0.687E+21            25902.272    163.388    161.489
         ROT  0.128E+09              888.752      2.981     40.075
         INT  0.879E+29            26791.024    166.369    201.564
         TR   0.173E+29             1481.254      4.968     45.424
         TOT                       28272.2780   171.3367   246.9878  1033.3970

       T/K    H(0)-H(T)+PV         H(T)/Eh          T*S/Eh         G(T)/Eh
   ------------------------------------------------------------------------
    298.15    0.450547E-01    0.758801E+00    0.117352E+00    0.641449E+00
   ------------------------------------------------------------------------

         :::::::::::::::::::::::::::::::::::::::::::::::::::::
         ::                  THERMODYNAMIC                  ::
         :::::::::::::::::::::::::::::::::::::::::::::::::::::
         :: total free energy        -135.377944659458 Eh   ::
         ::.................................................::
         :: total energy             -136.019394092154 Eh   ::
         :: zero point energy           0.713746563275 Eh   ::
         :: G(RRHO) w/o ZPVE           -0.072297130579 Eh   ::
         :: G(RRHO) contrib.            0.641449432696 Eh   ::
         :::::::::::::::::::::::::::::::::::::::::::::::::::::

           -------------------------------------------------
          | TOTAL ENERGY             -136.019394092154 Eh   |
          | TOTAL ENTHALPY           -135.260592786010 Eh   |
          | TOTAL FREE ENERGY        -135.377944659458 Eh   |
          | GRADIENT NORM               0.000070944558 Eh/α |
           -------------------------------------------------

 * finished run on 2025/09/04 at 09:27:21.566
