   * xtb version 6.7.1 (edcfbbe) compiled by 'albert@albert-system' on 2024-07-22

   ID    Z sym.   atoms
    1    6 C      1-8, 10-14, 16-21, 23-36, 38-53
    2    7 N      9, 15, 22, 37
    3    1 H      54-91

          program call               : xtb data2507/gas/PPZTPI/PPZTPI_gas_T1_crest.xyz --gfn 2 --spinpol --tblite --uhf 2 --ohess vtight --parallel 40 --molden --ceasefiles --namespace data2507/gas/PPZTPI/PPZTPI_gas_T1_finalOpt
 * total energy  :  -136.0193304 Eh     change       -0.1316852E-07 Eh
 * total energy  :  -136.0193567 Eh     change       -0.2629584E-04 Eh
 * total energy  :  -136.0193728 Eh     change       -0.1619641E-04 Eh
 * total energy  :  -136.0193746 Eh     change       -0.1745603E-05 Eh
 * total energy  :  -136.0193763 Eh     change       -0.1715598E-05 Eh
 * total energy  :  -136.0193774 Eh     change       -0.1103589E-05 Eh
 * total energy  :  -136.0193788 Eh     change       -0.1358962E-05 Eh
 * total energy  :  -136.0193797 Eh     change       -0.9523167E-06 Eh
 * total energy  :  -136.0193806 Eh     change       -0.8892999E-06 Eh
 * total energy  :  -136.0193816 Eh     change       -0.1023911E-05 Eh
 * total energy  :  -136.0193880 Eh     change       -0.1571801E-05 Eh
 * total energy  :  -136.0193893 Eh     change       -0.1255512E-05 Eh
 * total energy  :  -136.0193904 Eh     change       -0.1051564E-05 Eh
 * total energy  :  -136.0193912 Eh     change       -0.8365939E-06 Eh
 * total energy  :  -136.0193918 Eh     change       -0.6160502E-06 Eh
 * total energy  :  -136.0193922 Eh     change       -0.4126216E-06 Eh
 * total energy  :  -136.0193925 Eh     change       -0.2831891E-06 Eh
 * total energy  :  -136.0193928 Eh     change       -0.2542209E-06 Eh
 * total energy  :  -136.0193928 Eh     change       -0.4233954E-08 Eh
   *** GEOMETRY OPTIMIZATION CONVERGED AFTER 22 ITERATIONS ***

 final structure:
================
91
 xtb: 6.7.1 (edcfbbe)
C           -2.55732864545365        6.19873579034045       -1.88090426358074
C           -2.07276874043293        5.56826829811458       -0.57252386418032
C           -0.54495252807545        5.70957249621958       -0.51057031332109
C           -2.71413877585602        6.33446149714328        0.59315055910899
C           -2.43648608278823        4.09664541530415       -0.46025969995542
C           -3.13151205631577        3.40911798332107       -1.45075879940207
C           -3.43304727144131        2.06676315048914       -1.32067345840737
C           -3.04697083231975        1.36713897990397       -0.18021774723743
N           -3.31081575500661       -0.00005608422680       -0.04714901381270
C           -2.32701808697173       -0.99656726101853        0.14412857609123
C           -0.93775840897622       -0.85167712976352        0.05838304109268
C           -0.13135057325508       -1.93696752578987        0.52721662211455
C            1.22690904464919       -1.87880292954680        0.50676018196889
C            1.88703286695340       -0.73111009749206        0.01487808249703
N            3.29159222999504       -0.65153275034940        0.02121020994664
C            4.04410222831929       -1.60115067401493       -0.65591528429957
C            3.43505322427140       -2.59056983606221       -1.42687549085009
C            4.18817260801293       -3.56141101220168       -2.06053816042896
C            5.56660397651775       -3.56015746568761       -1.93849737565670
C            6.19416900770138       -2.55407434333922       -1.22423317637671
C            5.45301259087862       -1.55388357718731       -0.60373214399384
N            6.07831225927972       -0.50930815870619        0.05834986261377
C            7.49779807642511       -0.43699451764205        0.07804569710494
C            8.18854860095107       -0.05480488782053       -1.06607408214777
C            9.56973349439996        0.01263321589758       -1.04294235259406
C           10.26297391336997       -0.29579258028311        0.11671531330168
C            9.57257727493228       -0.67478025940258        1.25699818911686
C            8.19154614322563       -0.74831829036564        1.24152622969146
C            5.33230453272209        0.47184309817328        0.69109124002080
C            5.95189103833019        1.54636585253686        1.32080895320715
C            5.20719051746583        2.49208361565634        2.00428554257654
C            3.83230800799097        2.35873841441455        2.08456155464454
C            3.19832218291347        1.31130093469506        1.44242085799050
C            3.92465277715546        0.37768552815731        0.70400418399879
C            1.11321709809497        0.32479210538157       -0.50219641457914
C           -0.24926044866121        0.26917532452242       -0.49763706374379
N           -2.90935814989975       -2.19348707541638        0.36139395931207
C           -4.21806378670056       -2.00471290783127        0.26608760042491
C           -5.24480018860366       -2.99103275124267        0.36087657390428
C           -4.92422380525654       -4.33799311174879        0.53805424990675
C           -5.91666021966772       -5.29092136032875        0.59142224574957
C           -7.24288190680257       -4.89583815302730        0.45785973223878
C           -7.57046391339661       -3.56728110565366        0.28803531879061
C           -6.58885975131090       -2.56694740774727        0.24311915851823
C           -6.90173762361392       -1.15617098962984        0.10598313770076
C           -8.22144853475315       -0.69945236577380        0.08147365264141
C           -8.53834361416956        0.63906834744811       -0.00179080838161
C           -7.52029195901602        1.59309010738186       -0.04187630399332
C           -6.21161075543072        1.19405222287228       -0.02977598043459
C           -5.85756151345272       -0.17356631239928        0.02008183367570
C           -4.53042975712414       -0.63564474519837        0.03007895821084
C           -2.35459748391003        2.04404981317266        0.82316192689273
C           -2.05977222195617        3.38251722114884        0.67690105316585
H           -2.26971136003733        7.24801502335447       -1.90560174184704
H           -3.64045259775204        6.14612168388948       -1.96330901498838
H           -2.10926624999894        5.70812761284559       -2.74198209671949
H           -0.08287378307513        5.15199565442074       -1.32284229225727
H           -0.14929508068327        5.33229937704562        0.42834798495318
H           -0.26088141564319        6.75569141487059       -0.60449085895024
H           -3.79578967940251        6.21922644282202        0.56838895627961
H           -2.35538327094068        5.97134177911113        1.55218209936214
H           -2.47817910781695        7.39412898798903        0.52033734634315
H           -3.44452133482804        3.91108755253871       -2.35154534001867
H           -3.96529246217977        1.54885084272637       -2.10561666141502
H           -0.64698977161416       -2.79520825225714        0.92538688317790
H            1.81938724432109       -2.69243462630244        0.90066040182048
H            2.36258395922141       -2.59133056867904       -1.53213873505030
H            3.69247919971630       -4.31877789238263       -2.64709204749126
H            6.16002269109978       -4.32711662304064       -2.41088745800985
H            7.27012228767341       -2.54008527133450       -1.14913691530085
H            7.63797753815122        0.18394674951373       -1.96396730128207
H           10.10592751811688        0.30948851437890       -1.93166949955423
H           11.34077956071502       -0.24083761182397        0.13176057357656
H           10.11122150375156       -0.91679803969992        2.16071946779917
H            7.64328987240778       -1.04301491797378        2.12404053305191
H            7.02574246124537        1.63813248194381        1.27728437122773
H            5.70760463091746        3.31804310824805        2.48484437642567
H            3.24696674478438        3.06984699479051        2.64606671734725
H            2.12821976165114        1.20755859392314        1.51562415313359
H            1.61957297753741        1.17042438850726       -0.94709490124153
H           -0.80436805501777        1.06041083712597       -0.97260214862052
H           -3.88113977836971       -4.60027582026314        0.62400917575917
H           -5.67127088250704       -6.33364572936999        0.72907776905385
H           -8.02924872129229       -5.63692024876063        0.48777380398800
H           -8.61357485905200       -3.31259538913417        0.18574045269919
H           -9.03374588802379       -1.40657223671513        0.14001998166353
H           -9.57244453720078        0.94988140472344       -0.01935177370957
H           -7.76592495174795        2.64467809836292       -0.07688779227516
H           -5.43214369431083        1.93823084045251       -0.03728439255676
H           -2.05001380656375        1.50701164571925        1.70935720758077
H           -1.52447373319107        3.87724517043258        1.47319266710392

 projected vibrational frequencies (cm⁻¹)
eigval :       -0.00    -0.00     0.00     0.00     0.00     0.00
eigval :        7.15     9.12    11.70    16.04    21.14    26.87
eigval :       29.96    33.58    47.10    51.20    61.90    64.19
eigval :       67.38    78.70    83.65    96.94   100.33   118.13
eigval :      121.64   129.71   148.77   166.02   175.95   182.56
eigval :      185.09   204.24   211.35   215.02   225.07   235.02
eigval :      244.38   247.69   254.01   263.37   268.61   299.47
eigval :      303.33   309.02   315.39   335.55   355.65   362.68
eigval :      373.71   377.74   380.25   383.35   390.06   393.88
eigval :      399.47   400.77   403.04   411.08   418.87   421.52
eigval :      433.83   437.97   447.66   450.88   461.09   476.50
eigval :      485.86   489.83   495.17   497.64   511.51   525.58
eigval :      528.31   542.50   573.93   581.47   585.72   587.04
eigval :      590.00   593.61   598.47   606.18   612.88   633.93
eigval :      642.74   650.19   658.70   663.22   664.37   666.15
eigval :      666.79   671.06   672.95   691.35   714.50   724.81
eigval :      730.50   751.83   754.15   760.00   768.68   772.13
eigval :      773.14   785.39   792.16   817.24   827.89   850.05
eigval :      857.02   859.46   864.34   867.49   874.94   880.86
eigval :      885.68   889.06   891.96   893.96   894.04   900.89
eigval :      905.90   906.77   910.06   910.47   910.90   915.38
eigval :      916.78   919.42   919.91   921.43   926.20   928.02
eigval :      930.29   939.60   941.06   960.17   962.54   962.89
eigval :      976.59   989.23   995.84  1006.31  1034.79  1035.46
eigval :     1056.13  1074.35  1081.67  1092.71  1102.45  1104.34
eigval :     1105.55  1113.97  1125.65  1127.59  1131.78  1136.96
eigval :     1142.23  1147.08  1158.60  1173.17  1175.53  1176.22
eigval :     1178.45  1179.70  1181.30  1183.62  1192.55  1197.57
eigval :     1209.68  1214.90  1222.34  1227.21  1233.46  1237.00
eigval :     1247.20  1248.54  1252.82  1256.81  1269.43  1276.72
eigval :     1277.39  1283.07  1288.73  1302.02  1305.59  1313.46
eigval :     1315.52  1316.76  1322.40  1327.62  1331.56  1341.34
eigval :     1343.19  1350.34  1362.13  1373.74  1388.20  1395.44
eigval :     1399.56  1405.48  1409.13  1409.77  1412.81  1423.10
eigval :     1427.22  1428.10  1434.64  1440.04  1448.89  1451.79
eigval :     1465.01  1468.15  1470.05  1477.89  1488.74  1491.79
eigval :     1492.97  1494.44  1502.12  1505.78  1508.77  1509.85
eigval :     1514.47  1519.48  1530.98  1535.98  1542.82  1543.78
eigval :     1545.87  1550.99  1561.73  1570.29  1574.77  1582.88
eigval :     1594.17  3021.72  3023.09  3026.82  3029.93  3031.34
eigval :     3035.75  3038.93  3046.89  3050.13  3064.67  3067.31
eigval :     3070.80  3070.92  3079.30  3080.91  3081.16  3082.59
eigval :     3083.24  3083.56  3090.83  3091.40  3092.04  3092.74
eigval :     3092.86  3095.58  3099.84  3100.73  3102.42  3103.54
eigval :     3105.42  3108.28  3108.73  3114.51  3117.76  3118.06
eigval :     3118.61  3121.45  3123.37

   temp. (K)  partition function   enthalpy   heat capacity  entropy
                                   cal/mol     cal/K/mol   cal/K/mol   J/K/mol
 298.15  VIB  0.563E+21            25894.937    163.420    161.333
         ROT  0.128E+09              888.752      2.981     40.079
         INT  0.721E+29            26783.689    166.401    201.412
         TR   0.173E+29             1481.254      4.968     45.424
         TOT                       28264.9433   171.3691   246.8356  1032.7600

       T/K    H(0)-H(T)+PV         H(T)/Eh          T*S/Eh         G(T)/Eh
   ------------------------------------------------------------------------
    298.15    0.450431E-01    0.758832E+00    0.117280E+00    0.641552E+00
   ------------------------------------------------------------------------

         :::::::::::::::::::::::::::::::::::::::::::::::::::::
         ::                  THERMODYNAMIC                  ::
         :::::::::::::::::::::::::::::::::::::::::::::::::::::
         :: total free energy        -135.377840719689 Eh   ::
         ::.................................................::
         :: total energy             -136.019392771350 Eh   ::
         :: zero point energy           0.713788539574 Eh   ::
         :: G(RRHO) w/o ZPVE           -0.072236487913 Eh   ::
         :: G(RRHO) contrib.            0.641552051661 Eh   ::
         :::::::::::::::::::::::::::::::::::::::::::::::::::::

           -------------------------------------------------
          | TOTAL ENERGY             -136.019392771350 Eh   |
          | TOTAL ENTHALPY           -135.260561177578 Eh   |
          | TOTAL FREE ENERGY        -135.377840719689 Eh   |
          | GRADIENT NORM               0.000065752497 Eh/α |
           -------------------------------------------------

 * finished run on 2025/09/04 at 09:37:03.463
