   * xtb version 6.7.1 (edcfbbe) compiled by 'albert@albert-system' on 2024-07-22

   ID    Z sym.   atoms
    1    6 C      1-8, 10-14, 16-21, 23-36, 38-53
    2    7 N      9, 15, 22, 37
    3    1 H      54-91

          program call               : xtb data2507/gas/PPZTPI/PPZTPI.xyz --gfn 2 --ohess vtight --parallel 40 --molden --ceasefiles --namespace data2507/gas/PPZTPI/PPZTPI_gas_S0_preOpt
          :  Hamiltonian                  GFN2-xTB          :
 * total energy  :  -136.0673115 Eh     change       -0.1824787E-08 Eh
 * total energy  :  -136.0856082 Eh     change       -0.1829671E-01 Eh
 * total energy  :  -136.0916811 Eh     change       -0.6072907E-02 Eh
 * total energy  :  -136.0931484 Eh     change       -0.1467280E-02 Eh
 * total energy  :  -136.0941096 Eh     change       -0.9611310E-03 Eh
 * total energy  :  -136.0945776 Eh     change       -0.4680091E-03 Eh
 * total energy  :  -136.0949433 Eh     change       -0.3657811E-03 Eh
 * total energy  :  -136.0953124 Eh     change       -0.3690744E-03 Eh
 * total energy  :  -136.0957050 Eh     change       -0.3926160E-03 Eh
 * total energy  :  -136.0961122 Eh     change       -0.4071931E-03 Eh
 * total energy  :  -136.0985893 Eh     change       -0.1002522E-05 Eh
 * total energy  :  -136.0985900 Eh     change       -0.7010500E-06 Eh
 * total energy  :  -136.0985907 Eh     change       -0.6905071E-06 Eh
 * total energy  :  -136.0985915 Eh     change       -0.7627986E-06 Eh
 * total energy  :  -136.0985923 Eh     change       -0.7805185E-06 Eh
 * total energy  :  -136.0985931 Eh     change       -0.8377326E-06 Eh
 * total energy  :  -136.0985940 Eh     change       -0.8492180E-06 Eh
 * total energy  :  -136.0985947 Eh     change       -0.7807697E-06 Eh
 * total energy  :  -136.0985947 Eh     change       -0.6432202E-08 Eh
   *** GEOMETRY OPTIMIZATION CONVERGED AFTER 68 ITERATIONS ***

 final structure:
================
91
 xtb: 6.7.1 (edcfbbe)
C           -1.94022581451096        5.44382250158855       -1.64695911206972
C           -1.43045503197461        4.69143086772659       -0.41492019798059
C            0.09847153122812        4.58959905461146       -0.51242760163339
C           -1.82226901594163        5.49539979124293        0.83284994305059
C           -2.00376761607927        3.28830449245050       -0.30523181851591
C           -2.88016201286456        2.75316524907015       -1.24280696938940
C           -3.35055522475091        1.45700928808094       -1.13205589999030
C           -2.95992731875156        0.66432985634615       -0.06099940840950
N           -3.35546602042224       -0.68455694500550        0.02282324316407
C           -2.47203004921429       -1.74243220269819        0.00891052837604
C           -1.03002166422180       -1.57462324663473       -0.08559630858433
C           -0.20541421829204       -2.36434426592661        0.71476993834650
C            1.16170284355326       -2.18220168369768        0.70661299228573
C            1.73356816166652       -1.21541984720872       -0.11670719905445
N            3.12683152208322       -0.98863839003349       -0.09394879024106
C            4.00137604005609       -1.99554628375477       -0.50804605333690
C            3.52622864682031       -3.18953270304629       -1.02939477300059
C            4.39814166596467       -4.20327939611877       -1.40361175910174
C            5.75620264887371       -4.02858909717258       -1.25472298191896
C            6.24811972778003       -2.82357880206709       -0.77117546092081
C            5.39019181529753       -1.79084515437991       -0.42327145493172
N            5.87985639638517       -0.56358443863310        0.02201937289312
C            7.27840288322938       -0.35287825284456        0.10003249695026
C            8.03561813836000       -0.24949159789611       -1.06158419164191
C            9.40158069536188       -0.04909790700940       -0.97965696849523
C           10.01746315909187        0.05580271486806        0.25656797344601
C            9.26385179427124       -0.04281315371618        1.41459517014380
C            7.89850875483217       -0.24966922809197        1.34031573495816
C            5.00785623457702        0.45954559593580        0.38775384201444
C            5.48708532546685        1.70328490179657        0.77212578784712
C            4.62103866119300        2.70822754403568        1.18108074623199
C            3.26550055264405        2.46920150818934        1.21443269981100
C            2.76798693611714        1.24070501101903        0.79966755956547
C            3.61831155604732        0.23856199770057        0.35513739039808
C            0.91825745625604       -0.46728754464816       -0.96107048275438
C           -0.44956652402529       -0.64299156017124       -0.94543673166156
N           -3.07999862641959       -2.89712917459868        0.10014054534239
C           -4.40821467490770       -2.61332597924102        0.16830490727824
C           -5.49425437178223       -3.52957071742203        0.23486570981251
C           -5.27782603413725       -4.91153143098129        0.22544985230788
C           -6.34018346608767       -5.77962946232542        0.25609765036468
C           -7.63756269568245       -5.27223626011747        0.29234385379950
C           -7.86163001203262       -3.91546592423938        0.30830826895812
C           -6.80217546695334       -2.99539518743921        0.28782036748482
C           -7.00504540844869       -1.55778634877418        0.33886277773061
C           -8.28405936993014       -0.99912562776608        0.47305302264294
C           -8.48136636496570        0.35812990562555        0.56663772616155
C           -7.39361113679897        1.22529136717083        0.54700344208535
C           -6.12456850019525        0.72007964158214        0.40887099714200
C           -5.90454022830190       -0.65899551992858        0.28305560234750
C           -4.61114617049851       -1.23415323879774        0.13681322011754
C           -2.10214200395461        1.18943888323170        0.89774810737063
C           -1.63432195003424        2.48107167325180        0.76876756476250
H           -1.49646844648952        6.43684602566056       -1.67261558996339
H           -3.02109753985032        5.56086128178569       -1.61615060099138
H           -1.66150041510583        4.92980020775643       -2.56392870279207
H            0.38357173923018        4.00706384422027       -1.38599899987186
H            0.52154891215435        4.10934462132364        0.36488511164763
H            0.53516791180984        5.58173301140881       -0.60222903274276
H           -2.90541864466752        5.54724764686250        0.92281039591171
H           -1.42631615850257        5.04425147484771        1.73827341313780
H           -1.43369873634790        6.50882567705678        0.76064064464863
H           -3.20384778957709        3.33667150419199       -2.08871133973226
H           -4.01785069060255        1.05255123647118       -1.87971466242390
H           -0.65914147747304       -3.10451679878887        1.35516986243224
H            1.79732451285119       -2.77757616226982        1.34527668756698
H            2.46386674469081       -3.33438044952166       -1.14729971227055
H            4.00062371560016       -5.12383017976048       -1.80197999893619
H            6.44599181467376       -4.81526568083673       -1.51868648508284
H            7.31320100538596       -2.68987451719956       -0.66371173181760
H            7.54650065032416       -0.33007300401726       -2.02125098557220
H            9.98644653889128        0.03009428528623       -1.88409170759075
H           11.08369300780203        0.21422877661142        0.31748298759396
H            9.74188233425638        0.03634066802086        2.37975836402437
H            7.30304358422691       -0.32990355864853        2.23789737792577
H            6.54912621334844        1.89191716781054        0.75530042331300
H            5.02045076968483        3.66552870403801        1.47832561858686
H            2.58272932581576        3.23178716241798        1.55654047499921
H            1.70377523959115        1.06535957148294        0.82705279269509
H            1.36670585205807        0.25687001790441       -1.62508387689717
H           -1.06458200364354       -0.06559698975854       -1.61862208596354
H           -4.25794265270132       -5.26140497360980        0.18655071506439
H           -6.17806508220304       -6.84742455854636        0.24710913965938
H           -8.47768243408353       -5.95168128513910        0.30818005031231
H           -8.88294920193416       -3.56973562072565        0.33334466866905
H           -9.14829592524774       -1.64213938654799        0.51530649924814
H           -9.48224693054089        0.75112445790341        0.66927196783079
H           -7.54541713991779        2.29019990079724        0.64465030207126
H           -5.28165327418736        1.39317187547667        0.41358096326004
H           -1.79840124244226        0.57688330296503        1.73396508406106
H           -0.96271924181136        2.85804547007522        1.52448609641532

          :  Hamiltonian                  GFN2-xTB          :
         :: gradient norm              0.000056695714 Eh/a0 ::
         :: HOMO-LUMO gap              1.733285895927 eV    ::
         :: SCC energy              -138.591440467694 Eh    ::
         :: -> dispersion             -0.131878177099 Eh    ::
         :: repulsion energy           2.492845729100 Eh    ::

    * Orbital Energies and Occupations

         #    Occupation            Energy/Eh            Energy/eV
      -------------------------------------------------------------
         1        2.0000           -0.6836128             -18.6021
       ...           ...                  ...                  ...
       115        2.0000           -0.4111708             -11.1885
       116        2.0000           -0.4102605             -11.1638
       117        2.0000           -0.4081605             -11.1066
       118        2.0000           -0.4038050             -10.9881
       119        2.0000           -0.4032048             -10.9718
       120        2.0000           -0.4001924             -10.8898
       121        2.0000           -0.3993974             -10.8682
       122        2.0000           -0.3923550             -10.6765
       123        2.0000           -0.3768396             -10.2543
       124        2.0000           -0.3728949             -10.1470
       125        2.0000           -0.3718809             -10.1194
       126        2.0000           -0.3600863              -9.7984
       127        2.0000           -0.3211944              -8.7401 (HOMO)
       128                         -0.2574973              -7.0069 (LUMO)
       129                         -0.2458674              -6.6904
       130                         -0.2388895              -6.5005
       131                         -0.2368720              -6.4456
       132                         -0.2343291              -6.3764
       133                         -0.2339563              -6.3663
       134                         -0.2325519              -6.3281
       135                         -0.2299050              -6.2560
       136                         -0.2259747              -6.1491
       137                         -0.2175032              -5.9186
       138                         -0.2078166              -5.6550
       ...                                ...                  ...
       250                          0.7326887              19.9375
      -------------------------------------------------------------
                  HL-Gap            0.0636971 Eh            1.7333 eV

     #   Z          covCN         q      C6AA      α(0)
     1   6 C        3.761    -0.109    22.625     6.781
     2   6 C        3.903     0.026    20.078     6.369
     3   6 C        3.762    -0.105    22.556     6.770
     4   6 C        3.761    -0.106    22.575     6.773
     5   6 C        2.973     0.010    27.780     8.645
     6   6 C        2.925    -0.038    28.953     8.824
     7   6 C        2.920    -0.041    29.009     8.832
     8   6 C        2.913     0.062    26.609     8.459
     9   7 N        2.842    -0.045    22.098     6.982
    10   6 C        3.200     0.127    24.703     8.100
    11   6 C        2.974     0.001    28.009     8.681
    12   6 C        2.926    -0.028    28.699     8.785
    13   6 C        2.920    -0.040    28.983     8.828
    14   6 C        2.924     0.067    26.494     8.441
    15   7 N        2.752    -0.076    22.716     7.079
    16   6 C        2.925     0.048    26.930     8.510
    17   6 C        2.924    -0.061    29.515     8.909
    18   6 C        2.918    -0.042    29.032     8.836
    19   6 C        2.918    -0.041    29.030     8.835
    20   6 C        2.924    -0.062    29.535     8.912
    21   6 C        2.926     0.049    26.908     8.507
    22   7 N        2.752    -0.079    22.771     7.087
    23   6 C        2.924     0.069    26.461     8.436
    24   6 C        2.922    -0.039    28.963     8.825
    25   6 C        2.920    -0.028    28.710     8.787
    26   6 C        2.920    -0.032    28.795     8.800
    27   6 C        2.920    -0.028    28.708     8.786
    28   6 C        2.922    -0.039    28.961     8.825
    29   6 C        2.926     0.049    26.894     8.505
    30   6 C        2.924    -0.062    29.544     8.914
    31   6 C        2.918    -0.042    29.050     8.838
    32   6 C        2.918    -0.042    29.046     8.838
    33   6 C        2.923    -0.062    29.547     8.914
    34   6 C        2.925     0.048    26.924     8.509
    35   6 C        2.921    -0.040    29.004     8.832
    36   6 C        2.922    -0.033    28.830     8.805
    37   7 N        1.893    -0.291    28.402     7.901
    38   6 C        3.212     0.056    26.112     8.316
    39   6 C        2.985     0.003    27.954     8.673
    40   6 C        2.922    -0.031    28.782     8.798
    41   6 C        2.917    -0.030    28.759     8.794
    42   6 C        2.917    -0.033    28.827     8.804
    43   6 C        2.922    -0.035    28.870     8.811
    44   6 C        2.979    -0.002    28.064     8.690
    45   6 C        2.980     0.002    27.983     8.677
    46   6 C        2.922    -0.034    28.844     8.807
    47   6 C        2.916    -0.034    28.839     8.806
    48   6 C        2.917    -0.032    28.800     8.800
    49   6 C        2.919    -0.040    28.997     8.830
    50   6 C        2.978    -0.002    28.061     8.689
    51   6 C        3.075     0.020    27.489     8.596
    52   6 C        2.920    -0.042    29.031     8.836
    53   6 C        2.928    -0.032    28.806     8.802
    54   1 H        0.925     0.039     2.459     2.452
    55   1 H        0.925     0.037     2.491     2.468
    56   1 H        0.925     0.037     2.492     2.468
    57   1 H        0.925     0.034     2.525     2.485
    58   1 H        0.925     0.039     2.463     2.454
    59   1 H        0.925     0.040     2.448     2.447
    60   1 H        0.925     0.035     2.520     2.482
    61   1 H        0.925     0.038     2.482     2.464
    62   1 H        0.925     0.040     2.446     2.446
    63   1 H        0.926     0.045     2.382     2.414
    64   1 H        0.926     0.040     2.454     2.450
    65   1 H        0.926     0.054     2.268     2.355
    66   1 H        0.926     0.045     2.389     2.417
    67   1 H        0.926     0.030     2.588     2.516
    68   1 H        0.926     0.028     2.608     2.526
    69   1 H        0.926     0.027     2.626     2.534
    70   1 H        0.926     0.027     2.635     2.538
    71   1 H        0.926     0.040     2.446     2.446
    72   1 H        0.926     0.036     2.496     2.471
    73   1 H        0.926     0.036     2.509     2.477
    74   1 H        0.926     0.037     2.495     2.470
    75   1 H        0.926     0.040     2.449     2.447
    76   1 H        0.926     0.026     2.638     2.540
    77   1 H        0.926     0.026     2.638     2.540
    78   1 H        0.926     0.022     2.696     2.568
    79   1 H        0.926     0.026     2.649     2.545
    80   1 H        0.926     0.041     2.442     2.443
    81   1 H        0.926     0.033     2.542     2.493
    82   1 H        0.926     0.050     2.318     2.381
    83   1 H        0.926     0.029     2.595     2.519
    84   1 H        0.926     0.027     2.628     2.535
    85   1 H        0.926     0.030     2.589     2.516
    86   1 H        0.926     0.033     2.537     2.491
    87   1 H        0.926     0.028     2.621     2.532
    88   1 H        0.926     0.026     2.647     2.544
    89   1 H        0.926     0.027     2.632     2.537
    90   1 H        0.926     0.035     2.515     2.480
    91   1 H        0.926     0.039     2.468     2.457

molecular dipole:
                 x           y           z       tot (Debye)
 q only:        0.773       1.240      -0.060
   full:        0.625       1.625      -0.064       4.429

 projected vibrational frequencies (cm⁻¹)
eigval :       -0.00    -0.00    -0.00    -0.00     0.00     0.00
eigval :        5.79     8.54    14.82    19.74    22.58    25.77
eigval :       29.02    39.44    43.23    47.48    55.84    66.01
eigval :       68.23    76.69    81.91    91.57    98.57   114.66
eigval :      118.15   126.43   143.47   165.10   173.33   180.35
eigval :      185.82   207.15   210.77   223.47   228.05   234.94
eigval :      244.41   249.15   250.97   266.77   269.20   298.13
eigval :      301.81   310.76   315.95   349.62   361.92   369.09
eigval :      373.33   375.45   381.17   384.12   388.04   396.29
eigval :      397.20   404.05   407.41   415.80   424.98   430.85
eigval :      432.90   449.73   450.99   454.33   462.49   477.66
eigval :      486.68   507.69   511.37   513.44   518.38   528.70
eigval :      535.40   547.82   584.56   585.84   586.55   592.41
eigval :      594.81   601.02   604.25   611.24   641.60   644.79
eigval :      655.52   657.02   659.07   668.39   671.48   677.70
eigval :      678.94   683.54   699.29   703.70   718.39   735.51
eigval :      741.43   757.62   761.50   766.34   769.69   772.43
eigval :      782.75   792.22   819.74   823.79   854.22   857.06
eigval :      863.38   871.53   874.15   875.63   878.61   883.39
eigval :      887.32   887.73   890.38   903.95   906.06   907.49
eigval :      907.55   910.71   912.46   914.01   917.59   922.46
eigval :      924.33   927.34   929.13   930.73   930.93   932.34
eigval :      940.37   945.05   960.72   962.02   963.21   970.49
eigval :      995.60  1005.00  1017.37  1033.37  1035.42  1036.07
eigval :     1073.75  1079.18  1085.92  1107.97  1111.75  1114.08
eigval :     1115.28  1123.32  1128.04  1131.83  1136.58  1142.25
eigval :     1146.74  1153.20  1174.86  1180.66  1181.96  1183.17
eigval :     1183.75  1184.43  1186.11  1186.39  1196.04  1201.58
eigval :     1215.08  1221.53  1227.53  1233.60  1238.65  1253.71
eigval :     1257.77  1261.49  1264.29  1269.89  1276.45  1278.16
eigval :     1283.97  1286.88  1295.94  1307.86  1311.68  1314.45
eigval :     1315.69  1317.65  1323.37  1333.05  1339.97  1347.99
eigval :     1365.71  1367.97  1380.00  1399.59  1405.69  1406.61
eigval :     1408.13  1411.16  1422.10  1424.71  1429.94  1433.17
eigval :     1435.13  1437.98  1439.06  1467.36  1471.61  1491.02
eigval :     1491.55  1493.00  1499.54  1502.06  1506.21  1514.06
eigval :     1514.69  1515.36  1518.66  1519.69  1547.20  1556.16
eigval :     1557.40  1564.11  1570.50  1571.91  1578.24  1581.41
eigval :     1585.65  1593.35  1594.82  1595.52  1598.28  1601.85
eigval :     1605.25  3025.51  3027.10  3029.05  3032.24  3034.32
eigval :     3037.09  3040.77  3049.63  3055.40  3071.41  3074.43
eigval :     3078.05  3079.95  3081.52  3081.86  3082.96  3083.44
eigval :     3084.98  3085.10  3085.79  3087.79  3088.12  3091.66
eigval :     3091.93  3094.14  3096.25  3096.92  3098.04  3098.61
eigval :     3101.37  3103.52  3104.93  3105.61  3105.93  3107.99
eigval :     3109.31  3110.24  3119.27

   temp. (K)  partition function   enthalpy   heat capacity  entropy
                                   cal/mol     cal/K/mol   cal/K/mol   J/K/mol
 298.15  VIB  0.506E+21            25700.855    161.526    160.495
         ROT  0.119E+09              888.752      2.981     39.927
         INT  0.600E+29            26589.608    164.507    200.423
         TR   0.173E+29             1481.254      4.968     45.424
         TOT                       28070.8614   169.4747   245.8464  1028.6213

       T/K    H(0)-H(T)+PV         H(T)/Eh          T*S/Eh         G(T)/Eh
   ------------------------------------------------------------------------
    298.15    0.447338E-01    0.763155E+00    0.116810E+00    0.646345E+00
   ------------------------------------------------------------------------

         :::::::::::::::::::::::::::::::::::::::::::::::::::::
         ::                  THERMODYNAMIC                  ::
         :::::::::::::::::::::::::::::::::::::::::::::::::::::
         :: total free energy        -135.452249548241 Eh   ::
         ::.................................................::
         :: total energy             -136.098594738592 Eh   ::
         :: zero point energy           0.718420973325 Eh   ::
         :: G(RRHO) w/o ZPVE           -0.072075782973 Eh   ::
         :: G(RRHO) contrib.            0.646345190352 Eh   ::
         :::::::::::::::::::::::::::::::::::::::::::::::::::::

           -------------------------------------------------
          | TOTAL ENERGY             -136.098594738592 Eh   |
          | TOTAL ENTHALPY           -135.335440000146 Eh   |
          | TOTAL FREE ENERGY        -135.452249548241 Eh   |
          | GRADIENT NORM               0.000056690989 Eh/α |
          | HOMO-LUMO GAP               1.733285367290 eV   |
           -------------------------------------------------

 * finished run on 2025/09/04 at 09:18:46.599
