   * xtb version 6.7.1 (edcfbbe) compiled by 'albert@albert-system' on 2024-07-22

   ID    Z sym.   atoms
    1    6 C      1-6, 8-13, 15-21, 23-28, 30-35, 37-42
    2    7 N      7, 29
    3    8 O      14, 22, 36
    4    1 H      43-66

          program call               : xtb data250606/gas/Px2BP/Px2BP_gas_S0_crest.xyz --gfn 2 --ohess vtight --parallel 14 --molden --ceasefiles --namespace data250606/gas/Px2BP/Px2BP_gas_S0_finalOpt
          :  Hamiltonian                  GFN2-xTB          :
 * total energy  :  -109.5455904 Eh     change       -0.1125244E-08 Eh
 * total energy  :  -109.5455919 Eh     change       -0.1528227E-05 Eh
 * total energy  :  -109.5455930 Eh     change       -0.1118410E-05 Eh
 * total energy  :  -109.5455963 Eh     change       -0.3235227E-05 Eh
 * total energy  :  -109.5455996 Eh     change       -0.3354238E-05 Eh
 * total energy  :  -109.5456017 Eh     change       -0.2089030E-05 Eh
 * total energy  :  -109.5456030 Eh     change       -0.1284032E-05 Eh
 * total energy  :  -109.5456041 Eh     change       -0.1156449E-05 Eh
 * total energy  :  -109.5456058 Eh     change       -0.1645655E-05 Eh
 * total energy  :  -109.5456074 Eh     change       -0.1656423E-05 Eh
 * total energy  :  -109.5456083 Eh     change       -0.8850526E-06 Eh
 * total energy  :  -109.5456088 Eh     change       -0.4606891E-06 Eh
 * total energy  :  -109.5456093 Eh     change       -0.5355736E-06 Eh
 * total energy  :  -109.5456097 Eh     change       -0.3967774E-06 Eh
 * total energy  :  -109.5456100 Eh     change       -0.2919627E-06 Eh
 * total energy  :  -109.5456102 Eh     change       -0.2323788E-06 Eh
 * total energy  :  -109.5456103 Eh     change       -0.4895654E-07 Eh
   *** GEOMETRY OPTIMIZATION CONVERGED AFTER 17 ITERATIONS ***

 final structure:
================
66
 xtb: 6.7.1 (edcfbbe)
C           -7.20429537407652       -2.25970462212631       -1.63319876771328
C           -8.40007340459036       -1.57627808624835       -1.54588020594513
C           -8.43338195839534       -0.33582153670691       -0.92692558266592
C           -7.28290332249578        0.20384229328496       -0.38204663733644
C           -6.07214745037067       -0.49950388340058       -0.43029007898808
C           -6.04833632758985       -1.72394942708524       -1.08619800406621
N           -4.92478667742640        0.07203528285916        0.13073051473102
C           -5.01944017788628        1.34068531168861        0.71108684178474
C           -3.94277563757562        1.95312355775111        1.34026699224807
C           -4.07218671285127        3.21109815262873        1.90903969752092
C           -5.28208152527040        3.87345956001293        1.87007348932405
C           -6.37628527636473        3.26105593509827        1.27776931197488
C           -6.25308153063534        2.00554133306449        0.71186626288178
O           -7.38937389200189        1.45162197122552        0.17950902926316
C           -3.69722584138531       -0.61486207086337        0.10565205036056
C           -2.60111622316614       -0.06677233903948       -0.55897524754079
C           -1.39304955773181       -0.73280937440655       -0.57721203884268
C           -1.25926631227014       -1.96605107702367        0.05995812876170
C           -2.36660922321811       -2.52319339013577        0.69943458798077
C           -3.56997344019746       -1.85216117152717        0.73571321819907
C            0.00585302603209       -2.73922176274380        0.02718851457409
O            0.00721956168238       -3.95550845397652        0.02932512862030
C            1.26912111226345       -1.96317882641037       -0.01167821781501
C            1.40710128603993       -0.73513787164997        0.63437085229029
C            2.61220870533559       -0.06401399297464        0.60476334733770
C            3.70016993466426       -0.60061684942010       -0.08232777325306
C            3.56907595012564       -1.83375315290182       -0.71983023615194
C            2.36965561571481       -2.51094528862779       -0.67050502736110
N            4.92309524008358        0.09350904801568       -0.12389561959273
C            6.08597854428414       -0.48121210681314        0.40090995768465
C            6.08053526996974       -1.70978241640638        1.04953796523241
C            7.25145857349567       -2.24920878231019        1.55982342033781
C            8.44443392079511       -1.56527678958949        1.44302559988716
C            8.46029522064817       -0.32058590166454        0.83197832524597
C            7.29488046845737        0.22260642197927        0.32354522064492
O            7.38543508153052        1.47417623324531       -0.23221307238977
C            6.23445086182803        2.03155697387605       -0.72813123676690
C            6.34214001586838        3.29113814989910       -1.28818757399489
C            5.23209486603475        3.90796287529958       -1.84529804114470
C            4.02148504885789        3.24585222706001       -1.85515136214953
C            3.90775680352127        1.98370100792083       -1.29227896926820
C            5.00129351676210        1.36638092431593       -0.69784307394813
H           -7.15615975512630       -3.21561770514229       -2.13138617186362
H           -9.30314547127776       -1.99114098692020       -1.96469354753985
H           -9.34528530293584        0.23574006581924       -0.86089394726082
H           -5.11816261577053       -2.26177395374519       -1.18017670591170
H           -2.99575359822350        1.43977498957025        1.39631435041006
H           -3.21670595795607        3.66360117054553        2.38649887847607
H           -5.38713420586549        4.85414255610612        2.30627132681413
H           -7.34178281625625        3.74013887816277        1.24944765591987
H           -2.71055780150183        0.87919342977943       -1.06868302143774
H           -0.55872088616419       -0.31143120486568       -1.11827206697460
H           -2.25638057539516       -3.48433467309978        1.17872067255983
H           -4.41900452394045       -2.27540291123742        1.25157567386478
H            0.57876269258691       -0.32214623182111        1.19095581009218
H            2.72536244758645        0.87736770013140        1.12205988566402
H            4.41183546346169       -2.24871953841650       -1.25242608491948
H            2.25677444932816       -3.46867512958265       -1.15593653613985
H            5.15329605189668       -2.24819139623234        1.16638329397334
H            7.21726370426544       -3.20837018944798        2.05289238531951
H            9.35896627427887       -1.98297123800403        1.83318079851355
H            9.36997513872083        0.25153972102951        0.74391483810399
H            7.30838168818973        3.76958000151574       -1.28371671234786
H            5.32512099504391        4.89186471633087       -2.27695244494017
H            3.15284124953195        3.70204947448329       -2.30453122762251
H            2.95925008412839        1.47120476916815       -1.32602008990609

          :  Hamiltonian                  GFN2-xTB          :
         :: gradient norm              0.000100669509 Eh/a0 ::
         :: HOMO-LUMO gap              1.450110766203 eV    ::
         :: SCC energy              -111.416594186819 Eh    ::
         :: -> dispersion             -0.089606373044 Eh    ::
         :: repulsion energy           1.870983888223 Eh    ::

    * Orbital Energies and Occupations

         #    Occupation            Energy/Eh            Energy/eV
      -------------------------------------------------------------
         1        2.0000           -0.7303939             -19.8750
       ...           ...                  ...                  ...
        88        2.0000           -0.4244549             -11.5500
        89        2.0000           -0.4228878             -11.5074
        90        2.0000           -0.4214436             -11.4681
        91        2.0000           -0.4212532             -11.4629
        92        2.0000           -0.4182400             -11.3809
        93        2.0000           -0.4182305             -11.3806
        94        2.0000           -0.4151276             -11.2962
        95        2.0000           -0.4151217             -11.2960
        96        2.0000           -0.3943322             -10.7303
        97        2.0000           -0.3926450             -10.6844
        98        2.0000           -0.3925541             -10.6819
        99        2.0000           -0.3467801              -9.4364
       100        2.0000           -0.3462302              -9.4214 (HOMO)
       101                         -0.2929394              -7.9713 (LUMO)
       102                         -0.2503439              -6.8122
       103                         -0.2458270              -6.6893
       104                         -0.2430799              -6.6145
       105                         -0.2407913              -6.5523
       106                         -0.2406861              -6.5494
       107                         -0.2320481              -6.3144
       108                         -0.2320161              -6.3135
       109                         -0.2194838              -5.9725
       110                         -0.2164352              -5.8895
       111                         -0.2033893              -5.5345
       ...                                ...                  ...
       192                          0.6761077              18.3978
      -------------------------------------------------------------
                  HL-Gap            0.0532908 Eh            1.4501 eV

     #   Z          covCN         q      C6AA      α(0)
     1   6 C        2.919    -0.038    28.947     8.823
     2   6 C        2.919    -0.039    28.976     8.827
     3   6 C        2.920    -0.056    29.385     8.889
     4   6 C        2.884     0.125    25.257     8.239
     5   6 C        2.922     0.042    27.061     8.531
     6   6 C        2.924    -0.059    29.476     8.903
     7   7 N        2.751    -0.069    22.574     7.057
     8   6 C        2.922     0.042    27.059     8.530
     9   6 C        2.924    -0.060    29.489     8.905
    10   6 C        2.919    -0.039    28.965     8.826
    11   6 C        2.919    -0.040    28.984     8.829
    12   6 C        2.920    -0.056    29.389     8.890
    13   6 C        2.884     0.125    25.248     8.238
    14   8 O        1.709    -0.254    18.201     5.760
    15   6 C        2.921     0.071    26.412     8.428
    16   6 C        2.920    -0.041    29.013     8.833
    17   6 C        2.920    -0.027    28.688     8.783
    18   6 C        2.972    -0.016    28.395     8.741
    19   6 C        2.924    -0.018    28.466     8.749
    20   6 C        2.919    -0.040    28.997     8.830
    21   6 C        2.828     0.224    23.292     7.908
    22   8 O        0.858    -0.372    21.136     6.164
    23   6 C        2.972    -0.015    28.393     8.740
    24   6 C        2.920    -0.028    28.688     8.783
    25   6 C        2.920    -0.041    29.015     8.833
    26   6 C        2.921     0.071    26.415     8.428
    27   6 C        2.919    -0.040    28.998     8.831
    28   6 C        2.924    -0.018    28.468     8.750
    29   7 N        2.751    -0.069    22.573     7.056
    30   6 C        2.922     0.042    27.062     8.531
    31   6 C        2.924    -0.059    29.474     8.903
    32   6 C        2.919    -0.038    28.947     8.823
    33   6 C        2.919    -0.039    28.975     8.827
    34   6 C        2.920    -0.056    29.385     8.889
    35   6 C        2.884     0.125    25.257     8.239
    36   8 O        1.709    -0.254    18.201     5.760
    37   6 C        2.884     0.125    25.248     8.238
    38   6 C        2.920    -0.056    29.388     8.890
    39   6 C        2.919    -0.040    28.984     8.828
    40   6 C        2.919    -0.039    28.965     8.826
    41   6 C        2.924    -0.060    29.491     8.906
    42   6 C        2.921     0.042    27.059     8.530
    43   1 H        0.926     0.038     2.473     2.459
    44   1 H        0.926     0.039     2.455     2.450
    45   1 H        0.926     0.051     2.302     2.373
    46   1 H        0.926     0.037     2.487     2.466
    47   1 H        0.926     0.033     2.542     2.493
    48   1 H        0.926     0.036     2.502     2.473
    49   1 H        0.926     0.039     2.461     2.453
    50   1 H        0.926     0.051     2.301     2.372
    51   1 H        0.926     0.045     2.380     2.412
    52   1 H        0.926     0.041     2.441     2.443
    53   1 H        0.926     0.061     2.191     2.315
    54   1 H        0.926     0.048     2.344     2.394
    55   1 H        0.926     0.041     2.442     2.443
    56   1 H        0.926     0.045     2.379     2.412
    57   1 H        0.926     0.048     2.346     2.395
    58   1 H        0.926     0.060     2.196     2.318
    59   1 H        0.926     0.037     2.486     2.466
    60   1 H        0.926     0.038     2.473     2.459
    61   1 H        0.926     0.040     2.455     2.450
    62   1 H        0.926     0.051     2.302     2.373
    63   1 H        0.926     0.052     2.301     2.372
    64   1 H        0.926     0.039     2.461     2.453
    65   1 H        0.926     0.036     2.502     2.474
    66   1 H        0.926     0.033     2.541     2.493

molecular dipole:
                 x           y           z       tot (Debye)
 q only:       -0.003       0.708       0.002
   full:       -0.002       0.785       0.001       1.996

 projected vibrational frequencies (cm⁻¹)
eigval :       -0.00    -0.00    -0.00     0.00     0.00     0.00
eigval :        9.75    11.92    12.77    28.22    28.70    39.53
eigval :       42.97    52.80    62.01    64.16    88.97   114.14
eigval :      118.51   120.55   141.00   160.44   164.68   184.65
eigval :      205.49   214.92   246.38   249.68   257.56   273.50
eigval :      274.23   276.04   294.39   304.08   371.96   374.51
eigval :      376.65   380.89   388.49   390.97   410.99   414.26
eigval :      424.40   429.88   432.56   437.03   446.00   447.49
eigval :      478.79   482.88   509.86   510.00   522.41   522.83
eigval :      535.80   543.52   560.54   581.64   588.46   590.07
eigval :      603.26   604.48   615.85   641.79   658.71   659.45
eigval :      661.34   661.85   662.24   668.67   694.92   696.78
eigval :      732.78   742.19   778.61   778.64   779.72   779.96
eigval :      799.50   805.73   824.52   827.95   855.90   855.93
eigval :      863.62   863.71   866.72   867.62   876.83   882.32
eigval :      891.43   897.38   898.21   899.20   899.32   913.73
eigval :      914.53   915.46   915.49   917.38   917.56   919.97
eigval :      926.73   930.94   933.89   939.03   955.47  1014.22
eigval :     1028.91  1090.79  1090.84  1091.95  1092.04  1108.76
eigval :     1108.81  1121.39  1121.52  1132.49  1133.52  1169.64
eigval :     1170.96  1175.48  1175.57  1175.98  1181.46  1184.29
eigval :     1188.85  1197.89  1202.37  1202.57  1222.60  1228.64
eigval :     1243.16  1243.29  1261.81  1261.85  1262.14  1262.21
eigval :     1264.34  1310.14  1310.56  1311.05  1315.68  1316.51
eigval :     1319.22  1337.88  1338.08  1355.14  1355.22  1403.23
eigval :     1404.98  1424.21  1424.33  1442.75  1442.86  1473.04
eigval :     1475.35  1487.24  1487.69  1504.97  1505.07  1553.55
eigval :     1555.05  1568.16  1568.20  1579.21  1580.63  1580.64
eigval :     1582.23  1591.07  1591.16  1602.98  1603.01  1683.84
eigval :     3080.02  3081.93  3088.12  3088.23  3089.05  3089.07
eigval :     3091.04  3091.05  3092.28  3093.11  3099.23  3099.43
eigval :     3099.46  3099.58  3100.27  3100.28  3106.02  3106.15
eigval :     3107.83  3107.87  3113.58  3113.61  3114.17  3114.26

   temp. (K)  partition function   enthalpy   heat capacity  entropy
                                   cal/mol     cal/K/mol   cal/K/mol   J/K/mol
 298.15  VIB  0.744E+15            18842.764    120.470    116.498
         ROT  0.705E+08              888.752      2.981     38.894
         INT  0.525E+23            19731.516    123.451    155.392
         TR   0.123E+29             1481.254      4.968     44.750
         TOT                       21212.7702   128.4187   200.1416   837.3926

       T/K    H(0)-H(T)+PV         H(T)/Eh          T*S/Eh         G(T)/Eh
   ------------------------------------------------------------------------
    298.15    0.338047E-01    0.529427E+00    0.950937E-01    0.434334E+00
   ------------------------------------------------------------------------

         :::::::::::::::::::::::::::::::::::::::::::::::::::::
         ::                  THERMODYNAMIC                  ::
         :::::::::::::::::::::::::::::::::::::::::::::::::::::
         :: total free energy        -109.111276759148 Eh   ::
         ::.................................................::
         :: total energy             -109.545610298593 Eh   ::
         :: zero point energy           0.495622586292 Eh   ::
         :: G(RRHO) w/o ZPVE           -0.061289046847 Eh   ::
         :: G(RRHO) contrib.            0.434333539445 Eh   ::
         :::::::::::::::::::::::::::::::::::::::::::::::::::::

           -------------------------------------------------
          | TOTAL ENERGY             -109.545610298593 Eh   |
          | TOTAL ENTHALPY           -109.016183011162 Eh   |
          | TOTAL FREE ENERGY        -109.111276759148 Eh   |
          | GRADIENT NORM               0.000100637543 Eh/α |
          | HOMO-LUMO GAP               1.450116292326 eV   |
           -------------------------------------------------

 * finished run on 2025/06/06 at 21:04:46.277
