   * xtb version 6.7.1 (edcfbbe) compiled by 'albert@albert-system' on 2024-07-22

   ID    Z sym.   atoms
    1    6 C      1-6, 8-13, 15-21, 23-28, 30-35, 37-42
    2    7 N      7, 29
    3    8 O      14, 22, 36
    4    1 H      43-66

          program call               : xtb data250606/gas/Px2BP/Px2BP.xyz --gfn 2 --ohess vtight --parallel 14 --molden --ceasefiles --namespace data250606/gas/Px2BP/Px2BP_gas_S0_preOpt
          :  Hamiltonian                  GFN2-xTB          :
 * total energy  :  -109.5268596 Eh     change       -0.1739849E-08 Eh
 * total energy  :  -109.5369152 Eh     change       -0.1005560E-01 Eh
 * total energy  :  -109.5402026 Eh     change       -0.3287391E-02 Eh
 * total energy  :  -109.5412308 Eh     change       -0.1028266E-02 Eh
 * total energy  :  -109.5419911 Eh     change       -0.7602971E-03 Eh
 * total energy  :  -109.5423506 Eh     change       -0.3594720E-03 Eh
 * total energy  :  -109.5425152 Eh     change       -0.1646385E-03 Eh
 * total energy  :  -109.5426473 Eh     change       -0.1320856E-03 Eh
 * total energy  :  -109.5428192 Eh     change       -0.1719085E-03 Eh
 * total energy  :  -109.5429532 Eh     change       -0.1340149E-03 Eh
 * total energy  :  -109.5455438 Eh     change       -0.8616955E-06 Eh
 * total energy  :  -109.5455447 Eh     change       -0.8503266E-06 Eh
 * total energy  :  -109.5455455 Eh     change       -0.8364235E-06 Eh
 * total energy  :  -109.5455463 Eh     change       -0.8283812E-06 Eh
 * total energy  :  -109.5455471 Eh     change       -0.8195831E-06 Eh
 * total energy  :  -109.5455479 Eh     change       -0.8104481E-06 Eh
 * total energy  :  -109.5455487 Eh     change       -0.8002103E-06 Eh
 * total energy  :  -109.5455495 Eh     change       -0.7964677E-06 Eh
 * total energy  :  -109.5455496 Eh     change       -0.7228763E-08 Eh
   *** GEOMETRY OPTIMIZATION CONVERGED AFTER 152 ITERATIONS ***

 final structure:
================
66
 xtb: 6.7.1 (edcfbbe)
C           -7.20936249947881       -2.17429262151459       -1.78575207458928
C           -8.39353433490177       -1.47379989856161       -1.67801401040987
C           -8.41169071502582       -0.26266931951160       -1.00258978878171
C           -7.25718242536492        0.23146657795849       -0.42438940024523
C           -6.05802577942561       -0.48933763989032       -0.49739484362490
C           -6.04914008541749       -1.68418468606460       -1.20583006913134
N           -4.90510417077670        0.03766606595158        0.09323326340108
C           -4.98205970648330        1.27843266508650        0.73284971219837
C           -3.89776779367136        1.84358869528760        1.39228352207406
C           -4.01070831348399        3.07319810416820        2.02327152352725
C           -5.21132164878611        3.75323920797984        2.01636471592153
C           -6.31237499333297        3.18789993947747        1.39063059157001
C           -6.20555223460149        1.96114435956903        0.76193374524609
O           -7.34710449154725        1.45249285352668        0.19623321256424
C           -3.68954066497578       -0.67055423402452        0.05257843017907
C           -2.58339539323288       -0.12317233020868       -0.59528683692898
C           -1.38231011071269       -0.80159271550605       -0.61638722141098
C           -1.26453062601003       -2.04383096717734        0.00654069938191
C           -2.38487208847324       -2.60372486452168        0.62059198496493
C           -3.58315346094720       -1.92325180726653        0.65475197571181
C            0.00001288718823       -2.81919990347332       -0.00261529930952
O            0.00004428396785       -4.03546809323147       -0.00374381873896
C            1.26453807624916       -2.04378378744716       -0.01033551525829
C            1.38230084653896       -0.80270557654476        0.61489929625741
C            2.58338448246568       -0.12424218317786        0.59507311155548
C            3.68954109428666       -0.67042453599482       -0.05377974294468
C            3.58317500903492       -1.92200457815551       -0.65827174485527
C            2.38489162324788       -2.60253766862764       -0.62540309889376
N            4.90510199033145        0.03788284996561       -0.09311096420788
C            6.05798911748013       -0.49013781144826        0.49666669924693
C            6.04906336050002       -1.68621628491851        1.20301891498823
C            7.20924763239189       -2.17731155548035        1.78218251393946
C            8.39341531525118       -1.47661139745248        1.67575734808574
C            8.41161220942314       -0.26431703026069        1.00242312927841
C            7.25714443005758        0.23080153005366        0.42498453562577
O            7.34710012885686        1.45288808556809       -0.19354603177199
C            6.20558715024092        1.96248747591328       -0.75847572188852
C            6.31244867541698        3.19029290806267       -1.38511177996898
C            5.21142871612498        3.75668595932258       -2.00995323654594
C            4.01080669810040        3.07667376836733       -2.01804758841753
C            3.89782782318706        1.84600646782259       -1.38913180176107
C            4.98209120771673        1.27973133674149       -0.73061331187692
H           -7.17374946824325       -3.10772639889412       -2.32586111228664
H           -9.29961392148377       -1.85275316940748       -2.12351633836029
H           -9.31461060541990        0.32048294299179       -0.91732642704586
H           -5.12718647679784       -2.23350021765555       -1.31432140096983
H           -2.95794394957712        1.31501315628580        1.42273147616847
H           -3.14983966119438        3.48932838764684        2.52361275572124
H           -5.30384905519507        4.71159671332989        2.50220598140888
H           -7.27063383954395        3.68208420483174        1.38429647699765
H           -2.67889132752902        0.83385556615217       -1.08681234499878
H           -0.54054099163164       -0.38052907264498       -1.14593833716724
H           -2.28788169950973       -3.57375599587149        1.08460050109787
H           -4.44250043464987       -2.34886404433888        1.15120439875266
H            0.54052228852294       -0.38263207862810        1.14522131663416
H            2.67887046058550        0.83187876095047        1.08836202196958
H            4.44253883592071       -2.34669638890468       -1.15548260063892
H            2.28791214758560       -3.57170831689797       -1.09120841047459
H            5.12710789049617       -2.23573358128982        1.31047264995223
H            7.17360770172850       -3.11168218028599        2.32066770261936
H            9.29946362918622       -1.85631883128315        2.12068113439392
H            9.31453357350974        0.31898950943312        0.91823628700795
H            7.27070853286955        3.68446317326819       -1.37790006497306
H            5.30398824832995        4.71585311038622       -2.49418807658067
H            3.14996229505503        3.49365482908734       -2.51772199950960
H            2.95799960554772        1.31749156136705       -1.42049761389059

          :  Hamiltonian                  GFN2-xTB          :
         :: gradient norm              0.000069339357 Eh/a0 ::
         :: HOMO-LUMO gap              1.425321106226 eV    ::
         :: SCC energy              -111.416690665595 Eh    ::
         :: -> dispersion             -0.089626240201 Eh    ::
         :: repulsion energy           1.871141114596 Eh    ::

    * Orbital Energies and Occupations

         #    Occupation            Energy/Eh            Energy/eV
      -------------------------------------------------------------
         1        2.0000           -0.7302172             -19.8702
       ...           ...                  ...                  ...
        88        2.0000           -0.4248550             -11.5609
        89        2.0000           -0.4232182             -11.5164
        90        2.0000           -0.4218113             -11.4781
        91        2.0000           -0.4215601             -11.4712
        92        2.0000           -0.4181632             -11.3788
        93        2.0000           -0.4181569             -11.3786
        94        2.0000           -0.4151280             -11.2962
        95        2.0000           -0.4151255             -11.2961
        96        2.0000           -0.3947833             -10.7426
        97        2.0000           -0.3926594             -10.6848
        98        2.0000           -0.3925818             -10.6827
        99        2.0000           -0.3466445              -9.4327
       100        2.0000           -0.3461193              -9.4184 (HOMO)
       101                         -0.2937397              -7.9931 (LUMO)
       102                         -0.2508255              -6.8253
       103                         -0.2463701              -6.7041
       104                         -0.2434500              -6.6246
       105                         -0.2406845              -6.5494
       106                         -0.2405974              -6.5470
       107                         -0.2319925              -6.3128
       108                         -0.2319637              -6.3121
       109                         -0.2192662              -5.9665
       110                         -0.2164577              -5.8901
       111                         -0.2032241              -5.5300
       ...                                ...                  ...
       192                          0.6760205              18.3955
      -------------------------------------------------------------
                  HL-Gap            0.0523796 Eh            1.4253 eV

     #   Z          covCN         q      C6AA      α(0)
     1   6 C        2.919    -0.038    28.947     8.823
     2   6 C        2.919    -0.039    28.979     8.828
     3   6 C        2.920    -0.056    29.385     8.889
     4   6 C        2.884     0.125    25.259     8.239
     5   6 C        2.922     0.042    27.059     8.530
     6   6 C        2.924    -0.059    29.476     8.903
     7   7 N        2.751    -0.069    22.585     7.058
     8   6 C        2.922     0.042    27.057     8.530
     9   6 C        2.924    -0.060    29.492     8.906
    10   6 C        2.919    -0.039    28.964     8.825
    11   6 C        2.919    -0.040    28.986     8.829
    12   6 C        2.920    -0.056    29.389     8.890
    13   6 C        2.884     0.125    25.249     8.238
    14   8 O        1.709    -0.254    18.205     5.761
    15   6 C        2.921     0.071    26.406     8.427
    16   6 C        2.920    -0.041    29.007     8.832
    17   6 C        2.920    -0.027    28.688     8.783
    18   6 C        2.972    -0.015    28.390     8.740
    19   6 C        2.924    -0.018    28.463     8.749
    20   6 C        2.919    -0.040    28.990     8.829
    21   6 C        2.828     0.224    23.294     7.909
    22   8 O        0.858    -0.372    21.134     6.164
    23   6 C        2.972    -0.015    28.390     8.740
    24   6 C        2.920    -0.027    28.688     8.783
    25   6 C        2.920    -0.041    29.007     8.832
    26   6 C        2.921     0.071    26.406     8.427
    27   6 C        2.919    -0.040    28.990     8.829
    28   6 C        2.924    -0.018    28.463     8.749
    29   7 N        2.751    -0.069    22.585     7.058
    30   6 C        2.922     0.042    27.059     8.530
    31   6 C        2.924    -0.059    29.476     8.903
    32   6 C        2.919    -0.038    28.947     8.823
    33   6 C        2.919    -0.039    28.979     8.828
    34   6 C        2.920    -0.056    29.385     8.889
    35   6 C        2.884     0.125    25.259     8.239
    36   8 O        1.709    -0.254    18.205     5.761
    37   6 C        2.884     0.125    25.249     8.238
    38   6 C        2.920    -0.056    29.389     8.890
    39   6 C        2.919    -0.040    28.986     8.829
    40   6 C        2.919    -0.039    28.964     8.825
    41   6 C        2.924    -0.060    29.492     8.906
    42   6 C        2.922     0.042    27.057     8.530
    43   1 H        0.926     0.038     2.475     2.460
    44   1 H        0.926     0.039     2.457     2.451
    45   1 H        0.926     0.051     2.303     2.373
    46   1 H        0.926     0.037     2.496     2.470
    47   1 H        0.926     0.033     2.551     2.497
    48   1 H        0.926     0.036     2.503     2.474
    49   1 H        0.926     0.039     2.462     2.454
    50   1 H        0.926     0.051     2.301     2.372
    51   1 H        0.926     0.045     2.377     2.411
    52   1 H        0.926     0.041     2.435     2.440
    53   1 H        0.926     0.061     2.186     2.312
    54   1 H        0.926     0.048     2.343     2.394
    55   1 H        0.926     0.041     2.435     2.440
    56   1 H        0.926     0.045     2.377     2.411
    57   1 H        0.926     0.048     2.343     2.394
    58   1 H        0.926     0.061     2.186     2.312
    59   1 H        0.926     0.037     2.496     2.470
    60   1 H        0.926     0.038     2.475     2.460
    61   1 H        0.926     0.039     2.457     2.451
    62   1 H        0.926     0.051     2.303     2.373
    63   1 H        0.926     0.051     2.301     2.372
    64   1 H        0.926     0.039     2.462     2.454
    65   1 H        0.926     0.036     2.503     2.474
    66   1 H        0.926     0.033     2.551     2.497

molecular dipole:
                 x           y           z       tot (Debye)
 q only:       -0.000       0.686       0.001
   full:       -0.000       0.761       0.001       1.933

 projected vibrational frequencies (cm⁻¹)
eigval :       -0.00    -0.00    -0.00    -0.00     0.00     0.00
eigval :        9.77    11.71    12.64    27.90    28.52    39.31
eigval :       42.24    51.70    61.06    61.37    89.01   114.36
eigval :      116.97   118.98   140.06   162.37   164.31   183.73
eigval :      205.14   214.64   246.72   249.52   256.84   273.16
eigval :      274.18   275.86   293.74   303.82   371.80   374.43
eigval :      376.30   380.96   388.51   392.39   411.42   414.22
eigval :      424.46   429.15   431.80   436.73   445.14   446.57
eigval :      479.36   481.97   509.86   510.00   522.20   522.58
eigval :      535.49   543.43   560.43   581.80   588.34   590.11
eigval :      603.24   604.44   615.98   642.01   658.06   659.38
eigval :      661.03   661.64   661.89   668.84   694.90   696.88
eigval :      733.13   742.09   778.33   778.34   779.55   779.76
eigval :      799.41   805.69   824.34   827.58   855.72   855.73
eigval :      863.36   863.39   866.13   867.05   875.87   882.11
eigval :      891.59   897.02   897.76   898.90   898.97   913.67
eigval :      914.48   915.36   915.38   917.47   917.76   920.20
eigval :      925.46   930.26   932.93   939.82   955.50  1014.30
eigval :     1028.71  1090.54  1090.54  1091.77  1091.82  1108.70
eigval :     1108.75  1121.26  1121.37  1132.07  1133.24  1169.56
eigval :     1170.97  1175.46  1175.64  1175.91  1181.31  1184.04
eigval :     1188.44  1197.50  1202.04  1202.18  1222.45  1228.67
eigval :     1243.13  1243.24  1260.94  1261.43  1262.03  1262.07
eigval :     1264.13  1310.21  1310.70  1311.50  1315.89  1316.33
eigval :     1319.15  1338.59  1338.69  1355.56  1355.59  1402.92
eigval :     1404.85  1424.29  1424.41  1442.82  1442.92  1472.97
eigval :     1475.16  1487.74  1488.12  1505.25  1505.35  1553.71
eigval :     1555.25  1568.13  1568.16  1579.27  1580.71  1580.71
eigval :     1582.20  1591.15  1591.23  1603.12  1603.15  1683.82
eigval :     3080.45  3082.37  3088.22  3088.34  3088.91  3088.91
eigval :     3090.87  3090.87  3092.52  3093.41  3099.21  3099.29
eigval :     3099.34  3099.43  3099.94  3099.94  3105.78  3105.82
eigval :     3107.19  3107.23  3113.57  3113.58  3114.16  3114.22

   temp. (K)  partition function   enthalpy   heat capacity  entropy
                                   cal/mol     cal/K/mol   cal/K/mol   J/K/mol
 298.15  VIB  0.873E+15            18860.584    120.405    116.671
         ROT  0.352E+08              888.752      2.981     37.510
         INT  0.307E+23            19749.336    123.385    154.181
         TR   0.123E+29             1481.254      4.968     44.750
         TOT                       21230.5902   128.3536   198.9307   832.3260

       T/K    H(0)-H(T)+PV         H(T)/Eh          T*S/Eh         G(T)/Eh
   ------------------------------------------------------------------------
    298.15    0.338331E-01    0.529391E+00    0.945184E-01    0.434873E+00
   ------------------------------------------------------------------------

         :::::::::::::::::::::::::::::::::::::::::::::::::::::
         ::                  THERMODYNAMIC                  ::
         :::::::::::::::::::::::::::::::::::::::::::::::::::::
         :: total free energy        -109.110676704732 Eh   ::
         ::.................................................::
         :: total energy             -109.545549550999 Eh   ::
         :: zero point energy           0.495558138201 Eh   ::
         :: G(RRHO) w/o ZPVE           -0.060685291935 Eh   ::
         :: G(RRHO) contrib.            0.434872846267 Eh   ::
         :::::::::::::::::::::::::::::::::::::::::::::::::::::

           -------------------------------------------------
          | TOTAL ENERGY             -109.545549550999 Eh   |
          | TOTAL ENTHALPY           -109.016158313712 Eh   |
          | TOTAL FREE ENERGY        -109.110676704732 Eh   |
          | GRADIENT NORM               0.000069339595 Eh/α |
          | HOMO-LUMO GAP               1.425321016536 eV   |
           -------------------------------------------------

 * finished run on 2025/06/06 at 21:01:25.097
