   * xtb version 6.7.1 (edcfbbe) compiled by 'albert@albert-system' on 2024-07-22

   ID    Z sym.   atoms
    1    6 C      1-6, 8-13, 15-21, 23-28, 30-35, 37-42
    2    7 N      7, 29
    3    8 O      14, 22, 36
    4    1 H      43-66

          program call               : xtb data250606/gas/Px2BP/Px2BP_gas_T1_crest.xyz --gfn 2 --spinpol --tblite --uhf 2 --ohess vtight --parallel 14 --molden --ceasefiles --namespace data250606/gas/Px2BP/Px2BP_gas_T1_finalOpt
 * total energy  :  -109.4750467 Eh     change       -0.3399282E-07 Eh
 * total energy  :  -109.4750834 Eh     change       -0.3670026E-04 Eh
 * total energy  :  -109.4750951 Eh     change       -0.1163649E-04 Eh
 * total energy  :  -109.4750958 Eh     change       -0.7451509E-06 Eh
 * total energy  :  -109.4750964 Eh     change       -0.5477812E-06 Eh
 * total energy  :  -109.4750971 Eh     change       -0.7337258E-06 Eh
 * total energy  :  -109.4750978 Eh     change       -0.7384028E-06 Eh
 * total energy  :  -109.4750984 Eh     change       -0.5478001E-06 Eh
 * total energy  :  -109.4750987 Eh     change       -0.3484582E-06 Eh
 * total energy  :  -109.4750991 Eh     change       -0.3998944E-06 Eh
 * total energy  :  -109.4751009 Eh     change       -0.2577588E-06 Eh
 * total energy  :  -109.4751011 Eh     change       -0.2143045E-06 Eh
 * total energy  :  -109.4751012 Eh     change       -0.1663376E-06 Eh
 * total energy  :  -109.4751014 Eh     change       -0.1722278E-06 Eh
 * total energy  :  -109.4751016 Eh     change       -0.1913780E-06 Eh
 * total energy  :  -109.4751019 Eh     change       -0.2656489E-06 Eh
 * total energy  :  -109.4751022 Eh     change       -0.2848518E-06 Eh
 * total energy  :  -109.4751022 Eh     change        0.6468937E-08 Eh
 * total energy  :  -109.4751022 Eh     change       -0.6890504E-07 Eh
   *** GEOMETRY OPTIMIZATION CONVERGED AFTER 23 ITERATIONS ***

 final structure:
================
66
 xtb: 6.7.1 (edcfbbe)
C           -6.98391628722667       -1.83025888827261       -2.34218093309838
C           -8.21660425194953       -1.20675754479651       -2.25441230991085
C           -8.38848260416784       -0.14224373332029       -1.38421942033364
C           -7.33488456040447        0.28820273743129       -0.59687248639050
C           -6.08551690236648       -0.35223905482126       -0.66261824721793
C           -5.92581631460252       -1.40740927738350       -1.55804107104415
N           -5.04864609812935        0.09341012556782        0.14197647310336
C           -5.26580342888781        1.16819659500034        0.98900674371907
C           -4.27703003900815        1.64526253227612        1.84650121852563
C           -4.52567053975521        2.72310149208274        2.67701277895941
C           -5.76408555932346        3.34112209388591        2.67361861783602
C           -6.76628517084985        2.86811030036532        1.84182654353585
C           -6.52644330642151        1.78932812836812        1.00864968420347
O           -7.56296446860888        1.35687942822621        0.22733501238385
C           -3.78094077349462       -0.54409626262316        0.10093654939463
C           -2.68612935054725        0.11961355778798       -0.45460414892003
C           -1.45187790865467       -0.48471853423738       -0.48891248065700
C           -1.26594123534938       -1.77230888367767        0.04687483993354
C           -2.39684879378954       -2.44865515666976        0.55065007814698
C           -3.62619889278488       -1.84308057062970        0.59145325897039
C           -0.00398158078428       -2.48559239303317        0.00816044302445
O           -0.00525549471066       -3.75300059078953        0.02428162948293
C            1.25797773183258       -1.77457065628508       -0.04514898148835
C            1.44075765967432       -0.46893873544281        0.44675890451284
C            2.67718328925081        0.13051591998270        0.40808340359927
C            3.77760949733285       -0.55567610321777       -0.10748210285423
C            3.62526325539247       -1.86996354346659       -0.55614266902242
C            2.39344129764037       -2.47003845699137       -0.51219813714073
N            5.04924362136952        0.07459943877451       -0.14745714913422
C            6.06381124409841       -0.33808800594430        0.70164676059861
C            5.87754259591779       -1.35302438252065        1.63749339810415
C            6.91360724658965       -1.74331046603550        2.46662682157956
C            8.15009191185444       -1.12663798299515        2.38382464021397
C            8.34819506792383       -0.10206834538259        1.47221392692004
C            7.31681016695053        0.29559692302080        0.63952119782548
O            7.56977841114313        1.32558525965641       -0.22571020861114
C            6.55489700553150        1.72558816562038       -1.05152965165197
C            6.81958323692627        2.76496668862428       -1.92620184055681
C            5.83971797818934        3.20347755767847       -2.80237353144371
C            4.59858954209863        2.59085375146647       -2.80756100505211
C            4.32511583168617        1.55227379600478       -1.93586416851507
C            5.29140929938126        1.11012326857456       -1.03517984339408
H           -6.83847366270807       -2.65154960330133       -3.02640614242171
H           -9.04235329479318       -1.53835658328720       -2.86360323975069
H           -9.33244765958784        0.37228826288937       -1.30252944985680
H           -4.96470702433079       -1.88975665353939       -1.63670347438734
H           -3.31451617616134        1.15938391920455        1.85931539927224
H           -3.74435270448805        3.07705555729241        3.33150778102524
H           -5.95742945936153        4.18309408435034        3.31909108723033
H           -7.74528422866698        3.31949299402346        1.82615543397633
H           -2.82449462694796        1.10693287310814       -0.87326655256813
H           -0.63036855634051        0.02103912925668       -0.97274610008662
H           -2.25951422299027       -3.45320768321175        0.92027449083413
H           -4.48162664228847       -2.35734258554114        1.00577179261670
H            0.61463979606125        0.05597317720876        0.90140151801775
H            2.81296875539558        1.13166796707783        0.79342885977576
H            4.48491682043324       -2.40067902150965       -0.93983735857602
H            2.25766948933276       -3.48623709083212       -0.84915872530743
H            4.91317992072034       -1.82960576108432        1.71154727678725
H            6.74794460498616       -2.53360028766016        3.18205410727988
H            8.95859828941797       -1.43274047747352        3.02846466937544
H            9.29582406504834        0.40598858018176        1.39244245428114
H            7.79988157523826        3.21339334982547       -1.90707880637674
H            6.05245804265076        4.01471368980927       -3.48029741927838
H            3.83473334438029        2.91831731454949       -3.49559471005667
H            3.36076106733336        1.06999100680654       -1.94902587144211

 projected vibrational frequencies (cm⁻¹)
eigval :       -0.00    -0.00    -0.00     0.00     0.00     0.00
eigval :        9.24     9.80    14.01    30.38    31.11    36.82
eigval :       43.57    55.20    58.98    65.03    92.10   111.14
eigval :      112.67   119.79   132.84   164.14   164.91   180.95
eigval :      209.07   223.07   245.18   245.83   255.66   266.59
eigval :      276.12   277.40   293.14   322.09   370.89   373.49
eigval :      377.59   385.05   387.05   396.33   401.59   412.97
eigval :      423.34   427.63   430.58   431.00   448.41   458.04
eigval :      467.63   468.96   502.63   502.65   523.22   526.66
eigval :      529.50   531.40   550.45   569.06   577.94   586.21
eigval :      588.41   602.87   603.32   612.44   635.48   659.65
eigval :      665.81   665.97   669.05   669.24   672.72   674.76
eigval :      690.45   738.20   777.14   777.22   778.63   778.68
eigval :      795.22   799.40   802.37   812.44   846.23   855.34
eigval :      855.40   861.37   865.10   866.42   867.04   867.46
eigval :      882.71   898.53   899.23   899.57   900.35   901.77
eigval :      907.88   912.17   912.43   915.70   915.72   916.57
eigval :      916.70   917.92   918.07   937.30   941.05  1001.29
eigval :     1008.20  1084.73  1084.88  1085.83  1086.16  1112.18
eigval :     1112.30  1120.60  1120.81  1126.83  1131.42  1155.64
eigval :     1167.64  1171.36  1172.39  1174.19  1174.21  1182.76
eigval :     1187.13  1202.10  1206.27  1206.54  1216.57  1228.56
eigval :     1238.24  1238.28  1251.50  1254.99  1255.30  1255.69
eigval :     1263.80  1307.39  1310.45  1315.94  1316.14  1319.00
eigval :     1320.03  1330.82  1333.75  1347.67  1350.38  1408.17
eigval :     1409.16  1419.53  1419.88  1430.25  1438.43  1442.34
eigval :     1445.71  1451.38  1451.47  1454.56  1480.18  1487.64
eigval :     1488.21  1491.29  1545.63  1557.84  1557.90  1565.52
eigval :     1565.55  1577.40  1578.98  1588.10  1588.70  1590.45
eigval :     3066.70  3067.34  3074.04  3074.14  3089.78  3092.58
eigval :     3093.81  3093.84  3095.29  3095.33  3100.10  3100.55
eigval :     3103.08  3103.14  3103.69  3103.74  3111.93  3112.22
eigval :     3113.07  3113.16  3114.84  3115.09  3115.15  3115.85

   temp. (K)  partition function   enthalpy   heat capacity  entropy
                                   cal/mol     cal/K/mol   cal/K/mol   J/K/mol
 298.15  VIB  0.898E+15            18970.293    121.543    117.301
         ROT  0.732E+08              888.752      2.981     38.968
         INT  0.658E+23            19859.045    124.524    156.269
         TR   0.123E+29             1481.254      4.968     44.750
         TOT                       21340.2989   129.4921   201.0190   841.0635

       T/K    H(0)-H(T)+PV         H(T)/Eh          T*S/Eh         G(T)/Eh
   ------------------------------------------------------------------------
    298.15    0.340079E-01    0.526747E+00    0.955106E-01    0.431236E+00
   ------------------------------------------------------------------------

         :::::::::::::::::::::::::::::::::::::::::::::::::::::
         ::                  THERMODYNAMIC                  ::
         :::::::::::::::::::::::::::::::::::::::::::::::::::::
         :: total free energy        -109.043866352020 Eh   ::
         ::.................................................::
         :: total energy             -109.475102274239 Eh   ::
         :: zero point energy           0.492738604042 Eh   ::
         :: G(RRHO) w/o ZPVE           -0.061502681823 Eh   ::
         :: G(RRHO) contrib.            0.431235922219 Eh   ::
         :::::::::::::::::::::::::::::::::::::::::::::::::::::

           -------------------------------------------------
          | TOTAL ENERGY             -109.475102274239 Eh   |
          | TOTAL ENTHALPY           -108.948355739158 Eh   |
          | TOTAL FREE ENERGY        -109.043866352020 Eh   |
          | GRADIENT NORM               0.000045567111 Eh/α |
           -------------------------------------------------

 * finished run on 2025/06/06 at 21:11:20.294
