   * xtb version 6.7.1 (edcfbbe) compiled by 'albert@albert-system' on 2024-07-22

   ID    Z sym.   atoms
    1    6 C      1-6, 8-13, 15-21, 23-28, 30-35, 37-42
    2    7 N      7, 29
    3    8 O      14, 22, 36
    4    1 H      43-66

          program call               : xtb data250606/gas/Px2BP/Px2BP_gas_S0_finalOpt.xtbopt.xyz --gfn 2 --spinpol --tblite --uhf 2 --ohess vtight --parallel 14 --molden --ceasefiles --namespace data250606/gas/Px2BP/Px2BP_gas_T1_preOpt
 * total energy  :  -109.4682035 Eh     change       -0.2893069E-07 Eh
 * total energy  :  -109.4720399 Eh     change       -0.3836450E-02 Eh
 * total energy  :  -109.4729620 Eh     change       -0.9220895E-03 Eh
 * total energy  :  -109.4730533 Eh     change       -0.9126508E-04 Eh
 * total energy  :  -109.4731193 Eh     change       -0.6599550E-04 Eh
 * total energy  :  -109.4731836 Eh     change       -0.6433869E-04 Eh
 * total energy  :  -109.4732718 Eh     change       -0.8815931E-04 Eh
 * total energy  :  -109.4733680 Eh     change       -0.9620731E-04 Eh
 * total energy  :  -109.4734270 Eh     change       -0.5897874E-04 Eh
 * total energy  :  -109.4734820 Eh     change       -0.5499799E-04 Eh
 * total energy  :  -109.4750763 Eh     change       -0.1423343E-05 Eh
 * total energy  :  -109.4750778 Eh     change       -0.1483065E-05 Eh
 * total energy  :  -109.4750791 Eh     change       -0.1353230E-05 Eh
 * total energy  :  -109.4750806 Eh     change       -0.1458889E-05 Eh
 * total energy  :  -109.4750820 Eh     change       -0.1452152E-05 Eh
 * total energy  :  -109.4750835 Eh     change       -0.1453381E-05 Eh
 * total energy  :  -109.4750848 Eh     change       -0.1339470E-05 Eh
 * total energy  :  -109.4750853 Eh     change       -0.5064292E-06 Eh
 * total energy  :  -109.4750854 Eh     change       -0.7571408E-07 Eh
   *** GEOMETRY OPTIMIZATION CONVERGED AFTER 68 ITERATIONS ***

 final structure:
================
66
 xtb: 6.7.1 (edcfbbe)
C           -6.99588285330095       -1.85983569916492       -2.24177750781806
C           -8.23178450704483       -1.24465618276077       -2.14168704610313
C           -8.40132837904279       -0.18014208430324       -1.27109354277548
C           -7.34244826976955        0.25789686538175       -0.49504483483660
C           -6.08976148488345       -0.37466849765691       -0.57238277295818
C           -5.93249500935487       -1.42914411938519       -1.46916545574582
N           -5.04781469483691        0.07809338869204        0.22213774722204
C           -5.26350700162439        1.15322031245022        1.06925532546991
C           -4.27002597161725        1.63761409808727        1.91722603501913
C           -4.51726570363751        2.71601451038026        2.74744096631716
C           -5.75896630738872        3.32739560279578        2.75355442553311
C           -6.76594223324098        2.84656695246055        1.93210844625711
C           -6.52751933481268        1.76706620774609        1.09945504408314
O           -7.56904034735237        1.32664275889812        0.32940908660977
C           -3.77621926818991       -0.54986660951110        0.16542592215936
C           -2.68998510061623        0.12683371357650       -0.39174570133080
C           -1.45387770378785       -0.47166787694580       -0.44876750129537
C           -1.25711674982257       -1.76751482056257        0.06303600544850
C           -2.37889814005398       -2.45463467188106        0.57289034466430
C           -3.60973457672604       -1.85433931530683        0.63764215055849
C            0.00478792114239       -2.47726691946138       -0.01084159345768
O            0.00779201842588       -3.74465032691236       -0.01456361545458
C            1.26377826325072       -1.76160717031138       -0.08033711473474
C            1.45560562062583       -0.46921185209550        0.44182113727203
C            2.68948018963533        0.13440515241497        0.38980021269166
C            3.77824253758190       -0.53369096140979       -0.17270524237984
C            3.61652978045593       -1.83463977084573       -0.65610173989221
C            2.38795107608157       -2.44007842978772       -0.59633616531423
N            5.04775677653682        0.09895959524422       -0.22357339545117
C            6.09112776733862       -0.35790646841274        0.56667783540009
C            5.93665507070478       -1.41982343619197        1.45515151954492
C            7.00152721418837       -1.85465789844810        2.22335138625380
C            8.23621214886552       -1.23640923866266        2.12703601027072
C            8.40291803445479       -0.16450749750998        1.26501958036872
C            7.34246642172273        0.27787407356161        0.49357915033659
O            7.56609788538443        1.35394418536700       -0.32207759054905
C            6.52331471691034        1.79798505599399       -1.08829196725973
C            6.75898756626240        2.88441293489226       -1.91268895343238
C            5.75069832653626        3.36914208107801       -2.73020128238662
C            4.51042255551486        2.75482828296578       -2.72849795422696
C            4.26588758518054        1.66957396809510       -1.90648431578109
C            5.26071083474047        1.18100065284410       -1.06247898894444
H           -6.85187918820482       -2.68071569464278       -2.92679668811422
H           -9.06163219336233       -1.58241226749747       -2.74184850939681
H           -9.34751527818687        0.32877421155730       -1.18045288471132
H           -4.96917274946564       -1.90508133741368       -1.55844216145858
H           -3.30480803922973        1.15700859688366        1.92296352658075
H           -3.73220215963888        3.07570578901086        3.39428329105813
H           -5.95120297591239        4.16992510910314        3.39862756533061
H           -7.74765889982166        3.29221888601293        1.92418686208867
H           -2.83702256502402        1.11936565625392       -0.79484791826640
H           -0.63954088166498        0.04509938705647       -0.93315214515594
H           -2.23338487406203       -3.46378862611269        0.92650472513586
H           -4.45778489876697       -2.37755937163754        1.05593505580781
H            0.63927039979792        0.04052362035123        0.93028553136461
H            2.83276502955876        1.12413279123395        0.80107164177926
H            4.46650255830586       -2.35113794866333       -1.07883349049851
H            2.24626360622501       -3.44674067857947       -0.95849873834513
H            4.97431967706530       -1.89832021842281        1.54140792935505
H            6.85973841875347       -2.68134199464826        2.90182709844880
H            9.06733670364360       -1.57765135870550        2.72345424678452
H            9.34807555983149        0.34688794702591        1.17761278593376
H            7.73966754589025        3.33227387061365       -1.90158988162726
H            5.94078503625262        4.21707492650391       -3.36879864555225
H            3.72435853410143        3.11764608860979       -3.37237567367578
H            3.30178511729498        1.18678216080892       -1.91567396576264

 projected vibrational frequencies (cm⁻¹)
eigval :       -0.00    -0.00    -0.00     0.00     0.00     0.00
eigval :        9.08    10.40    14.04    30.55    31.11    37.82
eigval :       43.77    56.07    59.71    65.66    92.65   111.61
eigval :      113.45   120.31   133.40   164.35   165.01   181.55
eigval :      209.47   223.13   245.05   245.81   255.95   266.34
eigval :      276.20   277.38   293.37   322.11   370.96   373.80
eigval :      377.73   384.97   386.39   396.01   401.72   413.09
eigval :      423.01   427.66   430.85   431.27   448.45   458.12
eigval :      467.97   469.37   502.53   502.57   523.44   526.59
eigval :      529.11   531.42   550.08   568.70   578.03   586.12
eigval :      588.38   602.86   603.35   612.33   635.44   659.30
eigval :      665.76   665.95   669.05   669.25   673.19   674.64
eigval :      690.37   738.16   777.14   777.19   778.65   778.68
eigval :      795.21   799.80   802.41   812.62   846.48   855.44
eigval :      855.45   861.24   865.14   866.55   867.13   867.78
eigval :      882.56   898.48   899.15   899.62   900.29   902.25
eigval :      908.09   912.18   912.58   915.63   915.65   916.52
eigval :      916.73   918.11   918.27   936.57   940.72  1001.00
eigval :     1008.20  1084.85  1084.90  1085.93  1086.30  1112.17
eigval :     1112.28  1120.50  1120.67  1127.02  1132.83  1155.51
eigval :     1167.78  1171.25  1171.87  1174.08  1174.09  1182.90
eigval :     1187.58  1202.44  1206.36  1206.68  1216.56  1228.76
eigval :     1238.17  1238.21  1251.49  1255.32  1255.91  1256.34
eigval :     1263.75  1307.13  1310.12  1315.72  1315.80  1318.70
eigval :     1319.67  1330.94  1334.00  1347.43  1350.38  1408.34
eigval :     1408.42  1419.14  1419.75  1431.07  1438.34  1442.57
eigval :     1445.76  1451.30  1451.30  1454.71  1479.49  1486.74
eigval :     1487.91  1490.95  1544.96  1557.66  1557.71  1565.36
eigval :     1565.38  1577.34  1578.77  1587.85  1588.84  1590.50
eigval :     3066.63  3067.24  3073.93  3074.02  3089.52  3092.33
eigval :     3093.84  3093.87  3095.36  3095.44  3100.31  3100.63
eigval :     3103.14  3103.16  3103.81  3103.87  3111.99  3112.27
eigval :     3113.56  3113.62  3114.73  3115.14  3115.20  3115.59

   temp. (K)  partition function   enthalpy   heat capacity  entropy
                                   cal/mol     cal/K/mol   cal/K/mol   J/K/mol
 298.15  VIB  0.786E+15            18959.889    121.600    117.167
         ROT  0.366E+08              888.752      2.981     37.589
         INT  0.287E+23            19848.641    124.581    154.756
         TR   0.123E+29             1481.254      4.968     44.750
         TOT                       21329.8950   129.5487   199.5062   834.7339

       T/K    H(0)-H(T)+PV         H(T)/Eh          T*S/Eh         G(T)/Eh
   ------------------------------------------------------------------------
    298.15    0.339914E-01    0.526747E+00    0.947918E-01    0.431955E+00
   ------------------------------------------------------------------------

         :::::::::::::::::::::::::::::::::::::::::::::::::::::
         ::                  THERMODYNAMIC                  ::
         :::::::::::::::::::::::::::::::::::::::::::::::::::::
         :: total free energy        -109.043130355225 Eh   ::
         ::.................................................::
         :: total energy             -109.475085394154 Eh   ::
         :: zero point energy           0.492755517983 Eh   ::
         :: G(RRHO) w/o ZPVE           -0.060800479054 Eh   ::
         :: G(RRHO) contrib.            0.431955038929 Eh   ::
         :::::::::::::::::::::::::::::::::::::::::::::::::::::

           -------------------------------------------------
          | TOTAL ENERGY             -109.475085394154 Eh   |
          | TOTAL ENTHALPY           -108.948338524843 Eh   |
          | TOTAL FREE ENERGY        -109.043130355225 Eh   |
          | GRADIENT NORM               0.000089505732 Eh/α |
           -------------------------------------------------

 * finished run on 2025/06/06 at 21:04:57.741
