   * xtb version 6.7.1 (edcfbbe) compiled by 'albert@albert-system' on 2024-07-22

   ID    Z sym.   atoms
    1    6 C      1-9, 11-15, 17-20, 22-37
    2    7 N      10
    3    8 O      16
    4   16 S      21
    5    1 H      38-64

          program call               : xtb data2507/gas/PT-BZ-DMAC/PT-BZ-DMAC_gas_S0_finalOpt.xtbopt.xyz --gfn 2 --spinpol --tblite --uhf 2 --ohess vtight --parallel 40 --molden --ceasefiles --namespace data2507/gas/PT-BZ-DMAC/PT-BZ-DMAC_gas_T1_preOpt
 * total energy  :   -96.7228189 Eh     change       -0.1763567E-07 Eh
 * total energy  :   -96.7265434 Eh     change       -0.3724472E-02 Eh
 * total energy  :   -96.7276102 Eh     change       -0.1066843E-02 Eh
 * total energy  :   -96.7278714 Eh     change       -0.2611564E-03 Eh
 * total energy  :   -96.7281540 Eh     change       -0.2826188E-03 Eh
 * total energy  :   -96.7284336 Eh     change       -0.2795912E-03 Eh
 * total energy  :   -96.7287511 Eh     change       -0.3174893E-03 Eh
 * total energy  :   -96.7289897 Eh     change       -0.2385927E-03 Eh
 * total energy  :   -96.7291176 Eh     change       -0.1279258E-03 Eh
 * total energy  :   -96.7292111 Eh     change       -0.9350364E-04 Eh
 * total energy  :   -96.7298948 Eh     change       -0.5336781E-06 Eh
 * total energy  :   -96.7298954 Eh     change       -0.6716102E-06 Eh
 * total energy  :   -96.7298963 Eh     change       -0.8357654E-06 Eh
 * total energy  :   -96.7298974 Eh     change       -0.1149110E-05 Eh
 * total energy  :   -96.7298988 Eh     change       -0.1327480E-05 Eh
 * total energy  :   -96.7299000 Eh     change       -0.1285951E-05 Eh
 * total energy  :   -96.7299011 Eh     change       -0.1079889E-05 Eh
 * total energy  :   -96.7299011 Eh     change        0.3211892E-07 Eh
 * total energy  :   -96.7299011 Eh     change       -0.3820554E-07 Eh
   *** GEOMETRY OPTIMIZATION CONVERGED AFTER 69 ITERATIONS ***

 final structure:
================
64
 xtb: 6.7.1 (edcfbbe)
C           -7.78980123004025        0.42349630484996       -0.45679694756155
C           -6.61505010339527        0.53329324987296        0.53369362063435
C           -7.12479190358628        0.98615622762578        1.91513949706026
C           -5.63769064886358        1.56747841860105        0.01553265672661
C           -6.05820823273555        2.87533656804827       -0.18117564002050
C           -5.20340156414223        3.85644728477951       -0.64920113407704
C           -3.88482917008542        3.53558047793726       -0.93182239838700
C           -3.43883528595296        2.24681547025440       -0.74646823769291
C           -4.30273273524116        1.24843996122837       -0.27504125941040
N           -3.82508947888245       -0.03254051945576       -0.10388365377215
C           -2.45801001959410       -0.30711607077965       -0.40336769277355
C           -2.07798736080753       -0.67985295047796       -1.69359167193045
C           -0.76152421931826       -0.94870936063213       -1.96938043736700
C            0.22950438976001       -0.83753358430041       -0.97072500248482
C            1.58842813209564       -1.18975384044801       -1.31828290801749
O            1.82375505377863       -1.88851335958353       -2.35000724158329
C            2.71349033470382       -0.74497307478194       -0.51332652852079
C            3.90902005476026       -1.49110909314115       -0.57101261784456
C            5.00645962601722       -1.12644196118304        0.16412096306759
C            4.96756357625203        0.03527647606123        0.93870634150558
S            6.34029375122544        0.52063645037762        1.94378116714858
C            7.72400228497924        0.32684150586364        0.85180144658400
C            8.96515354494406        0.06512041497517        1.42171742464079
C           10.07627483296501       -0.07013380445430        0.61178051364161
C            9.95529263816105        0.05389916504642       -0.76350041558027
C            8.71823096026699        0.32579816817874       -1.32529428478975
C            7.60070220384237        0.46973161751174       -0.52426261834037
C            3.81359116355772        0.81798543701717        0.96381276020553
C            2.70834386572427        0.44514729716901        0.23675809359018
C           -0.17802277507459       -0.49666939731720        0.33153451454494
C           -1.49900514311817       -0.23101513229467        0.60643967885713
C           -4.62639537633211       -1.05642519931007        0.35380450875328
C           -4.08607141796035       -2.34221407391306        0.49606884869617
C           -4.85875023731971       -3.38499642372372        0.95406389825544
C           -6.18833855699817       -3.16731336681765        1.28002876280278
C           -6.72645596870563       -1.90153217360454        1.13700874895231
C           -5.97299556490511       -0.83084075338378        0.67650923916371
H           -8.28713548104163        1.38183207661395       -0.57542253764375
H           -7.42475113114383        0.10248969872320       -1.43048463690964
H           -8.52234250299799       -0.29944160904367       -0.10959502442277
H           -7.84458155514472        0.27680769628599        2.31340272495761
H           -7.60447929508231        1.95859869558098        1.85072991307199
H           -6.29200799937467        1.05898091694232        2.61200894620764
H           -7.08106012312637        3.14321100069434        0.03543669597746
H           -5.56365530344949        4.86365321818055       -0.79129562664375
H           -3.20519476124639        4.29048678742183       -1.29650236539862
H           -2.41324656894840        1.99462490098777       -0.96524437059190
H           -2.83081268235872       -0.75534272990572       -2.46488102609358
H           -0.45026385190804       -1.24759911734100       -2.95854657751173
H            3.92486762667046       -2.37983964655763       -1.18306824637035
H            5.90182597354110       -1.73108173497405        0.14753861530101
H            9.04617035012253       -0.03390481164507        2.49358440469425
H           11.03863309332551       -0.27789298090719        1.05526024974876
H           10.82337636506343       -0.05755679869635       -1.39545605423113
H            8.62007754087615        0.43299396261957       -2.39526566381794
H            6.63988012910365        0.69265246070227       -0.96360489870405
H            3.80588162276118        1.72874842906949        1.54457667303130
H            1.84522682599469        1.09279126662067        0.21775968621276
H            0.54080655965157       -0.48597459888057        1.13625277128382
H           -1.80962437240575        0.02387842703589        1.60989188813041
H           -3.05193645140933       -2.51093653933975        0.24095726037933
H           -4.42472231135568       -4.36768841212235        1.05682276781007
H           -6.80254402458829       -3.97754881590893        1.64156490633107
H           -7.76396088829483       -1.75039522954453        1.39319995712414

 projected vibrational frequencies (cm⁻¹)
eigval :       -0.00    -0.00    -0.00    -0.00     0.00     0.00
eigval :        6.02    10.41    15.69    24.99    26.75    37.76
eigval :       44.24    48.73    63.02    92.57    98.45   100.84
eigval :      110.71   129.64   140.80   155.22   162.53   182.94
eigval :      192.60   215.86   217.27   224.64   236.15   247.77
eigval :      267.27   300.23   303.93   318.85   326.80   339.70
eigval :      344.70   367.57   372.46   377.59   386.00   388.97
eigval :      397.11   409.22   416.44   440.19   443.27   449.94
eigval :      467.98   487.24   506.59   513.01   533.18   543.63
eigval :      556.25   565.72   582.10   584.70   590.18   597.98
eigval :      604.83   636.60   648.02   650.50   666.35   677.79
eigval :      684.68   686.91   700.26   719.75   744.87   760.26
eigval :      774.76   776.49   793.47   807.69   825.88   842.53
eigval :      857.97   869.58   870.44   870.49   888.35   895.38
eigval :      897.43   906.12   911.03   913.47   915.28   915.97
eigval :      922.80   923.26   925.21   928.31   928.47   935.95
eigval :      938.16   957.97   963.24   985.15  1004.44  1013.47
eigval :     1075.70  1078.92  1083.19  1085.50  1099.55  1106.69
eigval :     1113.22  1118.30  1125.84  1133.64  1138.31  1152.39
eigval :     1157.53  1165.60  1169.58  1179.04  1183.74  1184.75
eigval :     1193.29  1196.69  1213.46  1239.52  1242.63  1245.52
eigval :     1253.55  1258.96  1262.55  1274.47  1294.37  1309.27
eigval :     1318.21  1319.78  1323.63  1330.78  1331.20  1335.50
eigval :     1401.82  1403.61  1404.65  1419.76  1422.68  1423.23
eigval :     1425.74  1427.87  1431.63  1442.72  1448.87  1458.53
eigval :     1480.62  1486.97  1487.59  1488.32  1491.75  1498.31
eigval :     1501.90  1533.32  1556.68  1570.91  1574.22  1576.79
eigval :     1578.79  1580.60  1591.96  3029.82  3031.69  3043.97
eigval :     3046.41  3052.68  3056.07  3072.34  3075.81  3077.32
eigval :     3079.07  3080.49  3083.39  3084.97  3085.24  3090.49
eigval :     3091.19  3091.23  3092.05  3094.20  3095.58  3099.71
eigval :     3099.73  3100.06  3100.19  3100.70  3108.98  3111.21

   temp. (K)  partition function   enthalpy   heat capacity  entropy
                                   cal/mol     cal/K/mol   cal/K/mol   J/K/mol
 298.15  VIB  0.133E+16            18573.024    115.432    116.147
         ROT  0.539E+08              888.752      2.981     38.359
         INT  0.718E+23            19461.777    118.413    154.507
         TR   0.107E+29             1481.254      4.968     44.481
         TOT                       20943.0305   123.3810   198.9878   832.5649

       T/K    H(0)-H(T)+PV         H(T)/Eh          T*S/Eh         G(T)/Eh
   ------------------------------------------------------------------------
    298.15    0.333748E-01    0.529294E+00    0.945455E-01    0.434748E+00
   ------------------------------------------------------------------------

         :::::::::::::::::::::::::::::::::::::::::::::::::::::
         ::                  THERMODYNAMIC                  ::
         :::::::::::::::::::::::::::::::::::::::::::::::::::::
         :: total free energy         -96.295152826482 Eh   ::
         ::.................................................::
         :: total energy              -96.729901124150 Eh   ::
         :: zero point energy           0.495918970127 Eh   ::
         :: G(RRHO) w/o ZPVE           -0.061170672460 Eh   ::
         :: G(RRHO) contrib.            0.434748297668 Eh   ::
         :::::::::::::::::::::::::::::::::::::::::::::::::::::

           -------------------------------------------------
          | TOTAL ENERGY              -96.729901124150 Eh   |
          | TOTAL ENTHALPY            -96.200607310568 Eh   |
          | TOTAL FREE ENERGY         -96.295152826482 Eh   |
          | GRADIENT NORM               0.000123494128 Eh/α |
           -------------------------------------------------

 * finished run on 2025/07/20 at 04:13:11.506
