   * xtb version 6.7.1 (edcfbbe) compiled by 'albert@albert-system' on 2024-07-22

   ID    Z sym.   atoms
    1    6 C      1-9, 11-15, 17-20, 22-37
    2    7 N      10
    3    8 O      16
    4   16 S      21
    5    1 H      38-64

          program call               : xtb data2507/gas/PT-BZ-DMAC/PT-BZ-DMAC.xyz --gfn 2 --ohess vtight --parallel 40 --molden --ceasefiles --namespace data2507/gas/PT-BZ-DMAC/PT-BZ-DMAC_gas_S0_preOpt
          :  Hamiltonian                  GFN2-xTB          :
 * total energy  :   -96.7864340 Eh     change       -0.1120156E-08 Eh
 * total energy  :   -96.7987606 Eh     change       -0.1232652E-01 Eh
 * total energy  :   -96.8022005 Eh     change       -0.3439987E-02 Eh
 * total energy  :   -96.8029937 Eh     change       -0.7931039E-03 Eh
 * total energy  :   -96.8036663 Eh     change       -0.6726627E-03 Eh
 * total energy  :   -96.8039313 Eh     change       -0.2649627E-03 Eh
 * total energy  :   -96.8041169 Eh     change       -0.1856322E-03 Eh
 * total energy  :   -96.8043317 Eh     change       -0.2147426E-03 Eh
 * total energy  :   -96.8045980 Eh     change       -0.2662984E-03 Eh
 * total energy  :   -96.8048867 Eh     change       -0.2887127E-03 Eh
 * total energy  :   -96.8066637 Eh     change       -0.1014628E-05 Eh
 * total energy  :   -96.8066646 Eh     change       -0.9703223E-06 Eh
 * total energy  :   -96.8066656 Eh     change       -0.9367670E-06 Eh
 * total energy  :   -96.8066665 Eh     change       -0.9174736E-06 Eh
 * total energy  :   -96.8066674 Eh     change       -0.8968574E-06 Eh
 * total energy  :   -96.8066683 Eh     change       -0.8869875E-06 Eh
 * total energy  :   -96.8066692 Eh     change       -0.8892821E-06 Eh
 * total energy  :   -96.8066701 Eh     change       -0.8919165E-06 Eh
 * total energy  :   -96.8066701 Eh     change       -0.7135924E-08 Eh
   *** GEOMETRY OPTIMIZATION CONVERGED AFTER 94 ITERATIONS ***

 final structure:
================
64
 xtb: 6.7.1 (edcfbbe)
C           -7.00956763277144       -0.33619374557334       -0.06890759831190
C           -5.73377572896643       -0.05104061927692        0.74418523188007
C           -6.07854897378040        0.12259993878227        2.23470606070864
C           -5.11109980351159        1.23685717136664        0.23965722716784
C           -5.83904953610205        2.41726321699058        0.30385508161993
C           -5.31682220001559        3.62629809108134       -0.11611862936162
C           -4.02359859273966        3.67050131475139       -0.60418654997412
C           -3.27813273845416        2.51295236269762       -0.67963799088530
C           -3.81233493450150        1.28571412338613       -0.27656852005958
N           -3.04057436571125        0.13606498813088       -0.36884554789269
C           -1.72016201572434        0.23158433894192       -0.87717445275092
C           -1.50275760020624        0.37271551656522       -2.24448614428578
C           -0.21452396605919        0.47483485822203       -2.72823738206178
C            0.87531475258730        0.41651620850640       -1.86081120630803
C            2.24239873292504        0.56757332750543       -2.42312316706186
O            2.44693222547715        1.23189140266475       -3.42018832619856
C            3.34286163607530       -0.11532549192392       -1.70161282306660
C            3.16403725536062       -1.33971801610035       -1.05803805736337
C            4.21924918894901       -1.94163978328411       -0.40469139209532
C            5.46605884157509       -1.32373476938545       -0.37586475354432
S            6.78087962907309       -2.15342672532122        0.46728166006152
C            7.78709069456341       -0.79824523135006        1.03530415809605
C            9.16666293764068       -0.90986510813988        0.94336783878771
C            9.96814864474652        0.10967028510945        1.42555879162431
C            9.39627714197599        1.23620691917555        1.99273513976450
C            8.01766501098044        1.33746038629829        2.08956057212905
C            7.20850331365765        0.31871096019246        1.62205910723132
C            5.66512001229069       -0.12355080883560       -1.04980137239125
C            4.60989512989243        0.46780731059346       -1.71052130682929
C            0.65136315057578        0.28558968061790       -0.49120419091051
C           -0.63737175576858        0.19604769079771       -0.00381527565344
C           -3.51216829384369       -1.09911533248341        0.04952532940841
C           -2.70938037120675       -2.23349208350040       -0.10246691416820
C           -3.14839448902707       -3.47444368443135        0.30810719522222
C           -4.40378502217824       -3.60835237795248        0.87257904397305
C           -5.20842035188696       -2.49172715239493        1.00256354904075
C           -4.79238574273617       -1.23106013465564        0.59677583886473
H           -7.71743942664223        0.48320922184883        0.01956380612676
H           -6.75764898299361       -0.46032409372408       -1.12050163377476
H           -7.49596700101865       -1.24422646566977        0.27637642401178
H           -5.17260663078874        0.32685553466791        2.80253884072846
H           -6.53786230561301       -0.77737343921163        2.63416347786835
H           -6.76765108690201        0.94979771611322        2.38036016113562
H           -6.84487071822046        2.39927485244614        0.69551569724652
H           -5.91165839542268        4.52471990323566       -0.05417005589410
H           -3.58966829156551        4.60587609011165       -0.92452449724476
H           -2.26593934438419        2.55969531109013       -1.05089548016063
H           -2.34897311480935        0.40924352794399       -2.91425499661855
H           -0.02828046756283        0.59307105896084       -3.78514984397383
H            2.20192354420224       -1.82963315097991       -1.08452555869757
H            4.08863925880681       -2.89051751873124        0.09307147934864
H            9.60128021715008       -1.79071455272526        0.49608619457350
H           11.04196367493916        0.02451343474850        1.35243980912197
H           10.02304597575239        2.03345874151128        2.36275794218477
H            7.56764594784290        2.20995484494195        2.53935915200435
H            6.13404459672731        0.39062265183922        1.70639582037443
H            6.64041613945701        0.33985841988636       -1.05776017698295
H            4.74882856076894        1.39724877012306       -2.24219160125156
H            1.48529781765540        0.28285899002801        0.19495686894084
H           -0.81829421793214        0.09977713185969        1.05659078624104
H           -1.73348218659694       -2.13942296092234       -0.55395529920527
H           -2.50905331197266       -4.33556872087384        0.18236587536594
H           -4.75828653566998       -4.57341125224614        1.20090995398716
H           -6.19100489828753       -2.61277207401986        1.43295963011351

          :  Hamiltonian                  GFN2-xTB          :
         :: gradient norm              0.000069000505 Eh/a0 ::
         :: HOMO-LUMO gap              1.484745101945 eV    ::
         :: SCC energy               -98.511898348784 Eh    ::
         :: -> dispersion             -0.085079027890 Eh    ::
         :: repulsion energy           1.705228274357 Eh    ::

    * Orbital Energies and Occupations

         #    Occupation            Energy/Eh            Energy/eV
      -------------------------------------------------------------
         1        2.0000           -0.7244317             -19.7128
       ...           ...                  ...                  ...
        78        2.0000           -0.4265783             -11.6078
        79        2.0000           -0.4247604             -11.5583
        80        2.0000           -0.4214526             -11.4683
        81        2.0000           -0.4205527             -11.4438
        82        2.0000           -0.4196615             -11.4196
        83        2.0000           -0.4082648             -11.1095
        84        2.0000           -0.4072934             -11.0830
        85        2.0000           -0.4030701             -10.9681
        86        2.0000           -0.3976193             -10.8198
        87        2.0000           -0.3933570             -10.7038
        88        2.0000           -0.3922707             -10.6742
        89        2.0000           -0.3716569             -10.1133
        90        2.0000           -0.3468685              -9.4388 (HOMO)
        91                         -0.2923051              -7.9540 (LUMO)
        92                         -0.2519254              -6.8552
        93                         -0.2449806              -6.6663
        94                         -0.2440889              -6.6420
        95                         -0.2418305              -6.5805
        96                         -0.2382462              -6.4830
        97                         -0.2237920              -6.0897
        98                         -0.2189571              -5.9581
        99                         -0.2175368              -5.9195
       100                         -0.2055492              -5.5933
       101                         -0.1905310              -5.1846
       ...                                ...                  ...
       180                          0.6800269              18.5045
      -------------------------------------------------------------
                  HL-Gap            0.0545634 Eh            1.4847 eV

     #   Z          covCN         q      C6AA      α(0)
     1   6 C        3.761    -0.103    22.515     6.764
     2   6 C        3.909     0.021    20.156     6.381
     3   6 C        3.761    -0.103    22.511     6.764
     4   6 C        2.979    -0.014    28.353     8.734
     5   6 C        2.928    -0.036    28.897     8.816
     6   6 C        2.917    -0.044    29.099     8.846
     7   6 C        2.920    -0.033    28.812     8.802
     8   6 C        2.924    -0.059    29.465     8.902
     9   6 C        2.928     0.058    26.704     8.475
    10   7 N        2.754    -0.071    22.618     7.063
    11   6 C        2.928     0.077    26.287     8.408
    12   6 C        2.919    -0.036    28.906     8.817
    13   6 C        2.924    -0.018    28.450     8.747
    14   6 C        2.972    -0.014    28.347     8.733
    15   6 C        2.828     0.225    23.266     7.904
    16   8 O        0.858    -0.369    21.079     6.156
    17   6 C        2.972    -0.016    28.409     8.743
    18   6 C        2.921    -0.026    28.650     8.778
    19   6 C        2.971    -0.037    28.906     8.819
    20   6 C        2.968     0.057    26.715     8.478
    21  16 S        2.112    -0.143   147.064    20.411
    22   6 C        2.969     0.052    26.826     8.496
    23   6 C        2.964    -0.034    28.851     8.810
    24   6 C        2.921    -0.026    28.664     8.780
    25   6 C        2.919    -0.030    28.749     8.793
    26   6 C        2.922    -0.028    28.689     8.784
    27   6 C        2.952    -0.033    28.821     8.805
    28   6 C        2.947    -0.035    28.872     8.813
    29   6 C        2.926    -0.018    28.466     8.750
    30   6 C        2.920    -0.027    28.673     8.781
    31   6 C        2.920    -0.037    28.924     8.819
    32   6 C        2.928     0.058    26.701     8.474
    33   6 C        2.924    -0.059    29.467     8.902
    34   6 C        2.920    -0.033    28.821     8.804
    35   6 C        2.917    -0.044    29.105     8.847
    36   6 C        2.928    -0.036    28.894     8.815
    37   6 C        2.979    -0.014    28.348     8.734
    38   1 H        0.925     0.039     2.457     2.451
    39   1 H        0.925     0.032     2.565     2.505
    40   1 H        0.925     0.039     2.460     2.453
    41   1 H        0.925     0.031     2.575     2.509
    42   1 H        0.925     0.039     2.459     2.452
    43   1 H        0.925     0.039     2.458     2.452
    44   1 H        0.926     0.030     2.585     2.514
    45   1 H        0.926     0.027     2.635     2.539
    46   1 H        0.926     0.028     2.611     2.527
    47   1 H        0.926     0.024     2.672     2.556
    48   1 H        0.926     0.050     2.325     2.385
    49   1 H        0.926     0.061     2.183     2.310
    50   1 H        0.926     0.042     2.423     2.434
    51   1 H        0.926     0.049     2.328     2.386
    52   1 H        0.926     0.047     2.361     2.403
    53   1 H        0.926     0.041     2.442     2.444
    54   1 H        0.926     0.039     2.466     2.456
    55   1 H        0.926     0.039     2.463     2.454
    56   1 H        0.926     0.037     2.485     2.465
    57   1 H        0.926     0.043     2.411     2.428
    58   1 H        0.926     0.059     2.208     2.324
    59   1 H        0.926     0.042     2.428     2.437
    60   1 H        0.926     0.046     2.367     2.406
    61   1 H        0.926     0.021     2.721     2.580
    62   1 H        0.926     0.027     2.631     2.536
    63   1 H        0.926     0.026     2.637     2.540
    64   1 H        0.926     0.030     2.582     2.513

molecular dipole:
                 x           y           z       tot (Debye)
 q only:        0.180      -0.130       1.021
   full:        0.186       0.037       1.106       2.851

 projected vibrational frequencies (cm⁻¹)
eigval :       -0.00    -0.00    -0.00     0.00     0.00     0.00
eigval :        7.05     8.54    16.68    22.18    29.35    37.35
eigval :       42.10    46.27    57.18    88.17    98.59   100.65
eigval :      103.63   128.47   139.22   149.02   161.18   189.77
eigval :      191.43   206.31   219.31   230.44   236.76   251.83
eigval :      259.32   285.33   306.18   321.82   331.34   344.20
eigval :      345.96   366.79   371.91   377.77   380.66   389.60
eigval :      407.12   409.81   416.43   449.65   450.88   464.84
eigval :      480.90   489.74   514.00   515.19   546.45   547.42
eigval :      570.16   581.26   585.35   593.28   596.87   608.93
eigval :      640.70   646.30   651.14   676.22   682.43   686.46
eigval :      691.74   693.50   726.05   731.37   747.57   765.37
eigval :      776.52   777.91   815.22   820.91   829.39   865.21
eigval :      867.02   869.73   873.26   875.34   898.50   898.98
eigval :      912.99   913.96   915.14   917.97   920.91   921.38
eigval :      922.86   926.22   927.08   930.31   933.63   937.76
eigval :      943.44   957.27   964.37  1004.38  1014.42  1026.47
eigval :     1077.31  1079.85  1086.28  1100.15  1112.57  1113.98
eigval :     1116.71  1119.81  1129.10  1135.77  1141.18  1160.59
eigval :     1169.29  1175.92  1179.41  1182.04  1187.46  1188.20
eigval :     1194.00  1195.65  1211.55  1244.61  1250.10  1259.55
eigval :     1261.18  1263.95  1269.42  1274.56  1295.00  1312.20
eigval :     1317.06  1320.66  1325.90  1326.49  1335.49  1343.24
eigval :     1395.85  1400.90  1402.97  1421.03  1428.86  1436.66
eigval :     1443.72  1447.26  1452.25  1473.65  1480.90  1490.05
eigval :     1490.90  1497.60  1500.53  1505.41  1555.67  1559.40
eigval :     1573.76  1576.06  1581.62  1582.95  1584.29  1591.69
eigval :     1593.36  1603.08  1689.80  3026.34  3028.78  3039.69
eigval :     3042.40  3048.51  3052.30  3077.98  3079.09  3079.26
eigval :     3081.61  3082.95  3083.42  3083.69  3083.86  3086.63
eigval :     3089.12  3089.61  3092.87  3094.02  3094.54  3096.15
eigval :     3097.57  3098.03  3099.03  3099.45  3101.44  3101.52

   temp. (K)  partition function   enthalpy   heat capacity  entropy
                                   cal/mol     cal/K/mol   cal/K/mol   J/K/mol
 298.15  VIB  0.165E+16            18466.891    114.094    115.863
         ROT  0.548E+08              888.752      2.981     38.391
         INT  0.904E+23            19355.643    117.075    154.254
         TR   0.107E+29             1481.254      4.968     44.481
         TOT                       20836.8971   122.0433   198.7349   831.5067

       T/K    H(0)-H(T)+PV         H(T)/Eh          T*S/Eh         G(T)/Eh
   ------------------------------------------------------------------------
    298.15    0.332057E-01    0.531929E+00    0.944253E-01    0.437504E+00
   ------------------------------------------------------------------------

         :::::::::::::::::::::::::::::::::::::::::::::::::::::
         ::                  THERMODYNAMIC                  ::
         :::::::::::::::::::::::::::::::::::::::::::::::::::::
         :: total free energy         -96.369166126074 Eh   ::
         ::.................................................::
         :: total energy              -96.806670074426 Eh   ::
         :: zero point energy           0.498723583958 Eh   ::
         :: G(RRHO) w/o ZPVE           -0.061219635605 Eh   ::
         :: G(RRHO) contrib.            0.437503948353 Eh   ::
         :::::::::::::::::::::::::::::::::::::::::::::::::::::

           -------------------------------------------------
          | TOTAL ENERGY              -96.806670074426 Eh   |
          | TOTAL ENTHALPY            -96.274740781239 Eh   |
          | TOTAL FREE ENERGY         -96.369166126074 Eh   |
          | GRADIENT NORM               0.000069001774 Eh/α |
          | HOMO-LUMO GAP               1.484745534021 eV   |
           -------------------------------------------------

 * finished run on 2025/07/20 at 04:08:21.590
