   * xtb version 6.7.1 (edcfbbe) compiled by 'albert@albert-system' on 2024-07-22

   ID    Z sym.   atoms
    1    6 C      1-9, 11-15, 17-20, 22-37
    2    7 N      10
    3    8 O      16
    4   16 S      21
    5    1 H      38-64

          program call               : xtb data2507/gas/PT-BZ-DMAC/PT-BZ-DMAC_gas_T1_crest.xyz --gfn 2 --spinpol --tblite --uhf 2 --ohess vtight --parallel 40 --molden --ceasefiles --namespace data2507/gas/PT-BZ-DMAC/PT-BZ-DMAC_gas_T1_finalOpt
 * total energy  :   -96.7298819 Eh     change       -0.1837392E-07 Eh
 * total energy  :   -96.7299251 Eh     change       -0.4321559E-04 Eh
 * total energy  :   -96.7299400 Eh     change       -0.1488188E-04 Eh
 * total energy  :   -96.7299415 Eh     change       -0.1524678E-05 Eh
 * total energy  :   -96.7299426 Eh     change       -0.1114089E-05 Eh
 * total energy  :   -96.7299437 Eh     change       -0.1083924E-05 Eh
 * total energy  :   -96.7299446 Eh     change       -0.8977941E-06 Eh
 * total energy  :   -96.7299452 Eh     change       -0.6220225E-06 Eh
 * total energy  :   -96.7299458 Eh     change       -0.6129774E-06 Eh
 * total energy  :   -96.7299464 Eh     change       -0.5711637E-06 Eh
 * total energy  :   -96.7299481 Eh     change       -0.8289003E-06 Eh
 * total energy  :   -96.7299490 Eh     change       -0.9205214E-06 Eh
 * total energy  :   -96.7299500 Eh     change       -0.9201887E-06 Eh
 * total energy  :   -96.7299508 Eh     change       -0.8290513E-06 Eh
 * total energy  :   -96.7299516 Eh     change       -0.7797983E-06 Eh
 * total energy  :   -96.7299523 Eh     change       -0.7555213E-06 Eh
 * total energy  :   -96.7299530 Eh     change       -0.6743367E-06 Eh
 * total energy  :   -96.7299535 Eh     change       -0.4933585E-06 Eh
 * total energy  :   -96.7299535 Eh     change       -0.1245375E-07 Eh
   *** GEOMETRY OPTIMIZATION CONVERGED AFTER 22 ITERATIONS ***

 final structure:
================
64
 xtb: 6.7.1 (edcfbbe)
C           -7.74368916595994        0.65178516998341       -0.64096456427033
C           -6.60906913868903        0.66532295317575        0.40093194429236
C           -7.15242804448048        1.10610827473210        1.77343578235469
C           -5.55449529101671        1.65663196530769       -0.04454828400577
C           -5.89311776047571        2.99120118581338       -0.21881581931987
C           -4.96829053972112        3.93330495920039       -0.63041023169485
C           -3.66231887117227        3.54339606548903       -0.88285134427533
C           -3.29668297978656        2.22686410704543       -0.71781504416687
C           -4.22952230832513        1.26958208841442       -0.29500226007645
N           -3.83015839663160       -0.03980725765313       -0.13688695273432
C           -2.46887944579235       -0.38058296126942       -0.39051363163315
C           -2.08072529747449       -0.85216485398084       -1.64524166325601
C           -0.76711708376769       -1.17013695207474       -1.88155734040769
C            0.21164339481000       -1.00565565889750       -0.87965489168122
C            1.57468235877620       -1.38958179446157       -1.18469846325299
O            1.80957501062766       -2.18864920485491       -2.14056411331438
C            2.69199495624725       -0.85351830552678       -0.43020939658367
C            3.90989064853349       -1.56633063756845       -0.44700285460734
C            5.00727768406795       -1.10762275301309        0.23279247996796
C            4.94345418051703        0.11207384929622        0.91096874789658
S            6.32552408741481        0.72185731410302        1.83268296796737
C            7.66289539611911        0.57775803777442        0.67748564786582
C            8.94991164352562        0.45967804048424        1.19119032577210
C           10.02590869977507        0.36822868955620        0.32956364918236
C            9.82481008023715        0.39371003578810       -1.04176343654661
C            8.54147631523224        0.52180567192279       -1.54817983943487
C            7.45772639136511        0.62001371021387       -0.69559399788327
C            3.76464381498531        0.85675919475207        0.89771689717233
C            2.66059933394362        0.39201014934923        0.22418004109903
C           -0.20572475838834       -0.57472862426624        0.39177499104943
C           -1.52402934744571       -0.26175308060304        0.62818427560081
C           -4.70417394884400       -1.02778566846365        0.26251868033988
C           -4.23774414547044       -2.34188969690424        0.40707671036742
C           -5.08598578208755       -3.35165623751426        0.80086883904474
C           -6.41826421490704       -3.07125552658102        1.06136040157544
C           -6.88123721369868       -1.77536124639760        0.92485934405302
C           -6.05042846375622       -0.73649830372372        0.52914086945432
H           -8.18192571114244        1.63976866369780       -0.74894978952358
H           -7.35460244025793        0.34053396128740       -1.60850228136908
H           -8.52932828750944       -0.03892633100119       -0.34862128178826
H           -7.92543906807651        0.42620170838760        2.11988718111469
H           -7.57623891444578        2.10477449028001        1.71907076491274
H           -6.34748626332179        1.11344915177035        2.50588865783600
H           -6.90630857109843        3.31165067130829       -0.03008768190621
H           -5.26538017833583        4.96312262528234       -0.75542006178591
H           -2.92993794620172        4.26588798206409       -1.20909217758543
H           -2.28180933613196        1.92087588422652       -0.91685211680350
H           -2.82415556652962       -0.96171664094291       -2.42152175093282
H           -0.44943566565454       -1.54200456313043       -2.84351102855573
H            3.94355510871509       -2.50107981681101       -0.98541335898174
H            5.92316762117720       -1.68073957202952        0.24602811563046
H            9.09359509239886        0.43681320709153        2.26081323556857
H           11.02420645117613        0.27204896762928        0.72973407828503
H           10.66613327129814        0.31720785706953       -1.71382684284821
H            8.37978857443340        0.55152205333284       -2.61539523633273
H            6.45990254242360        0.73068865258752       -1.09305261075958
H            3.73692029201596        1.81106576726098        1.40302622903741
H            1.77718503182756        1.00955409602559        0.16981980260070
H            0.50265232396148       -0.52812337919239        1.20453304696942
H           -1.84287424369873        0.06611409403829        1.60754156735627
H           -3.20046113521765       -2.55838818404639        0.20653125969932
H           -4.70863071243818       -4.35727892719825        0.90548585513667
H           -7.09187476460688       -3.85555891143473        1.37044764784577
H           -7.92067026723826       -1.57441215580354        1.13483643127184

 projected vibrational frequencies (cm⁻¹)
eigval :       -0.00    -0.00    -0.00    -0.00     0.00     0.00
eigval :        6.34    10.02    15.64    24.70    26.14    38.17
eigval :       43.25    48.76    63.01    91.70    98.07   100.94
eigval :      110.35   129.61   141.12   156.87   162.37   181.59
eigval :      192.59   215.82   217.25   223.88   235.82   247.73
eigval :      267.48   300.28   304.75   317.51   326.81   340.26
eigval :      344.91   367.69   372.17   376.92   386.21   388.92
eigval :      397.24   409.16   416.64   438.26   441.82   449.93
eigval :      467.37   488.69   506.61   513.15   533.35   543.62
eigval :      555.57   565.92   582.24   584.58   589.86   597.92
eigval :      604.68   636.82   647.65   650.11   666.40   678.89
eigval :      684.13   686.86   700.20   719.78   744.49   760.44
eigval :      774.68   776.42   793.15   807.82   826.00   842.33
eigval :      858.44   869.39   869.99   870.41   888.31   894.88
eigval :      897.72   905.98   910.50   913.61   915.22   915.94
eigval :      922.70   923.23   924.97   928.08   928.69   936.31
eigval :      938.18   957.98   963.06   984.63  1005.18  1013.45
eigval :     1075.71  1078.99  1082.73  1085.47  1098.84  1106.60
eigval :     1113.23  1118.65  1125.86  1133.37  1138.38  1152.44
eigval :     1157.89  1165.51  1170.12  1178.95  1183.75  1184.63
eigval :     1193.02  1196.88  1213.50  1239.43  1242.61  1245.76
eigval :     1253.48  1258.98  1262.40  1274.52  1294.41  1309.97
eigval :     1318.56  1320.20  1323.40  1331.13  1331.32  1335.44
eigval :     1401.80  1403.60  1405.18  1419.69  1422.64  1423.14
eigval :     1426.68  1427.96  1431.94  1442.44  1448.80  1458.57
eigval :     1481.16  1486.08  1487.54  1488.25  1493.38  1498.23
eigval :     1501.86  1533.68  1556.80  1571.26  1573.99  1576.84
eigval :     1579.44  1580.65  1592.06  3029.81  3031.68  3044.07
eigval :     3046.54  3052.90  3056.36  3072.61  3075.88  3077.68
eigval :     3078.99  3080.36  3083.33  3085.02  3085.22  3090.46
eigval :     3091.16  3091.19  3091.77  3093.88  3095.46  3099.30
eigval :     3099.73  3100.32  3100.49  3100.74  3109.60  3111.13

   temp. (K)  partition function   enthalpy   heat capacity  entropy
                                   cal/mol     cal/K/mol   cal/K/mol   J/K/mol
 298.15  VIB  0.139E+16            18579.377    115.418    116.194
         ROT  0.537E+08              888.752      2.981     38.351
         INT  0.748E+23            19468.130    118.399    154.545
         TR   0.107E+29             1481.254      4.968     44.481
         TOT                       20949.3835   123.3670   199.0258   832.7239

       T/K    H(0)-H(T)+PV         H(T)/Eh          T*S/Eh         G(T)/Eh
   ------------------------------------------------------------------------
    298.15    0.333850E-01    0.529298E+00    0.945636E-01    0.434735E+00
   ------------------------------------------------------------------------

         :::::::::::::::::::::::::::::::::::::::::::::::::::::
         ::                  THERMODYNAMIC                  ::
         :::::::::::::::::::::::::::::::::::::::::::::::::::::
         :: total free energy         -96.295218953284 Eh   ::
         ::.................................................::
         :: total energy              -96.729953515800 Eh   ::
         :: zero point energy           0.495913174962 Eh   ::
         :: G(RRHO) w/o ZPVE           -0.061178612446 Eh   ::
         :: G(RRHO) contrib.            0.434734562516 Eh   ::
         :::::::::::::::::::::::::::::::::::::::::::::::::::::

           -------------------------------------------------
          | TOTAL ENERGY              -96.729953515800 Eh   |
          | TOTAL ENTHALPY            -96.200655373217 Eh   |
          | TOTAL FREE ENERGY         -96.295218953284 Eh   |
          | GRADIENT NORM               0.000062445474 Eh/α |
           -------------------------------------------------

 * finished run on 2025/07/20 at 04:19:12.671
