   * xtb version 6.7.1 (edcfbbe) compiled by 'albert@albert-system' on 2024-07-22

   ID    Z sym.   atoms
    1    6 C      1-9, 11-15, 17-20, 22-37
    2    7 N      10
    3    8 O      16
    4   16 S      21
    5    1 H      38-64

          program call               : xtb data2507/gas/PT-BZ-DMAC/PT-BZ-DMAC_gas_S0_crest.xyz --gfn 2 --ohess vtight --parallel 40 --molden --ceasefiles --namespace data2507/gas/PT-BZ-DMAC/PT-BZ-DMAC_gas_S0_finalOpt
          :  Hamiltonian                  GFN2-xTB          :
 * total energy  :   -96.8068927 Eh     change       -0.1138019E-08 Eh
 * total energy  :   -96.8068962 Eh     change       -0.3487518E-05 Eh
 * total energy  :   -96.8068989 Eh     change       -0.2677436E-05 Eh
 * total energy  :   -96.8069023 Eh     change       -0.3381472E-05 Eh
 * total energy  :   -96.8069061 Eh     change       -0.3852312E-05 Eh
 * total energy  :   -96.8069092 Eh     change       -0.3122146E-05 Eh
 * total energy  :   -96.8069108 Eh     change       -0.1571340E-05 Eh
 * total energy  :   -96.8069108 Eh     change        0.1065300E-07 Eh
 * total energy  :   -96.8069121 Eh     change       -0.1325324E-05 Eh
 * total energy  :   -96.8069138 Eh     change       -0.1715403E-05 Eh
 * total energy  :   -96.8069610 Eh     change       -0.1781647E-06 Eh
 * total energy  :   -96.8069612 Eh     change       -0.2135912E-06 Eh
 * total energy  :   -96.8069614 Eh     change       -0.2435794E-06 Eh
 * total energy  :   -96.8069617 Eh     change       -0.2795414E-06 Eh
 * total energy  :   -96.8069620 Eh     change       -0.2939105E-06 Eh
 * total energy  :   -96.8069623 Eh     change       -0.2782740E-06 Eh
 * total energy  :   -96.8069625 Eh     change       -0.2513607E-06 Eh
 * total energy  :   -96.8069628 Eh     change       -0.2124899E-06 Eh
 * total energy  :   -96.8069628 Eh     change       -0.1517421E-08 Eh
   *** GEOMETRY OPTIMIZATION CONVERGED AFTER 44 ITERATIONS ***

 final structure:
================
64
 xtb: 6.7.1 (edcfbbe)
C           -7.76185532774558        0.34537410969489       -0.26327067518018
C           -6.53120868271517        0.49447406580288        0.64970312681626
C           -6.95734371973515        0.99350042513914        2.04254542089094
C           -5.59048655686936        1.51555785469061        0.03906201824148
C           -6.03493223823457        2.81434799770205       -0.16767556636599
C           -5.21672793162025        3.79621317633934       -0.69442683779931
C           -3.90766873548451        3.48464951832247       -1.01334191292539
C           -3.44022339852636        2.20211105242034       -0.81872087700033
C           -4.27302023107856        1.20113696774109       -0.30979223191627
N           -3.77683043239602       -0.08194590128398       -0.13191479527395
C           -2.43469242983821       -0.35807172511984       -0.49763669586160
C           -2.08818013155951       -0.49031994206896       -1.83881358201956
C           -0.78023537882902       -0.75874942713954       -2.18772242108288
C            0.20371843500078       -0.87585615685595       -1.20779296442601
C            1.59597803925719       -1.18428632055898       -1.62690321818102
O            1.82643289611660       -1.88948476390103       -2.58996212265247
C            2.68624308110351       -0.59241348713013       -0.81684823688243
C            3.90739852661774       -1.26375067427425       -0.74884204910078
C            4.95994311961360       -0.74910725100289       -0.02320779363636
C            4.81599348708576        0.47665044635336        0.61835230045607
S            6.09989648835861        1.18844860601141        1.60168458728239
C            7.58030730352055        0.53370325589210        0.85816440397733
C            8.58634970777690        0.05934620762737        1.68678564932582
C            9.76532513952275       -0.40569581725814        1.13162644280198
C            9.93694889737180       -0.40087138141169       -0.24256150023590
C            8.93088370592740        0.08228449378890       -1.06403840252914
C            7.75395033787246        0.56072207985139       -0.51857309598792
C            3.60742078717421        1.16447166866095        0.54342744652076
C            2.54977774665234        0.63271216271591       -0.16336876457864
C           -0.15074554856778       -0.75770179243659        0.13480269632591
C           -1.46190787789440       -0.50396847796200        0.48672407546482
C           -4.55379853260537       -1.10119754052119        0.39996223716206
C           -4.02206985379549       -2.38893809792126        0.51471771262865
C           -4.76724606378549       -3.41964827339758        1.04724525264004
C           -6.06345121217935       -3.18599074445909        1.46909813991882
C           -6.59974641168545       -1.91923829604910        1.33289942259321
C           -5.87301040944637       -0.86386446270600        0.79866891836047
H           -8.26941021253617        1.29761344206628       -0.38975601831413
H           -7.45344685398026       -0.01241145480883       -1.24388328634522
H           -8.47087189118659       -0.36479570835640        0.15293855709604
H           -7.64107561473909        0.29257770140029        2.51334476961069
H           -7.45209588405911        1.95842966143758        1.97502992603571
H           -6.08208737176998        1.10062145212710        2.68075809064459
H           -7.05015388203423        3.07472356634364        0.09096609864918
H           -5.59606936648631        4.79534682880182       -0.84491927323934
H           -3.24565243384831        4.23923779653098       -1.41137365638001
H           -2.41378485205980        1.97143282168983       -1.05963772549625
H           -2.85105640919772       -0.38450060916907       -2.59575674737365
H           -0.49798089955606       -0.87725800943996       -3.22309623296945
H            4.00758538536253       -2.20781699850761       -1.26328273052628
H            5.89060610304550       -1.29256464744752        0.04358044168725
H            8.43960600577361        0.05750247597835        2.75608993152804
H           10.54861526172627       -0.77696223792933        1.77533500521325
H           10.85516225614120       -0.76967009468939       -0.67416083741518
H            9.06426926249464        0.09556287234749       -2.13542664704303
H            6.97191696380686        0.94748257018187       -1.15533419121583
H            3.51142929209700        2.11741016643506        1.04124685519364
H            1.62451444332370        1.18497157402139       -0.23507897769128
H            0.59721135070802       -0.88455617450901        0.90358010811341
H           -1.74499127881492       -0.41858722627038        1.52550995387146
H           -3.01614772123540       -2.58397197557253        0.17597883589307
H           -4.33329125740827       -4.40507904634816        1.12791388841805
H           -6.65595608035767       -3.98319376528556        1.89130369175760
H           -7.61749749298196       -1.75400041702016        1.65273091832947

          :  Hamiltonian                  GFN2-xTB          :
         :: gradient norm              0.000024959989 Eh/a0 ::
         :: HOMO-LUMO gap              1.493187686974 eV    ::
         :: SCC energy               -98.512079739193 Eh    ::
         :: -> dispersion             -0.084997078161 Eh    ::
         :: repulsion energy           1.705116977510 Eh    ::

    * Orbital Energies and Occupations

         #    Occupation            Energy/Eh            Energy/eV
      -------------------------------------------------------------
         1        2.0000           -0.7247643             -19.7218
       ...           ...                  ...                  ...
        78        2.0000           -0.4259745             -11.5914
        79        2.0000           -0.4239121             -11.5352
        80        2.0000           -0.4206617             -11.4468
        81        2.0000           -0.4204578             -11.4412
        82        2.0000           -0.4186031             -11.3908
        83        2.0000           -0.4076006             -11.0914
        84        2.0000           -0.4067864             -11.0692
        85        2.0000           -0.4025074             -10.9528
        86        2.0000           -0.3970274             -10.8037
        87        2.0000           -0.3925924             -10.6830
        88        2.0000           -0.3917015             -10.6587
        89        2.0000           -0.3720408             -10.1237
        90        2.0000           -0.3462187              -9.4211 (HOMO)
        91                         -0.2913450              -7.9279 (LUMO)
        92                         -0.2511576              -6.8343
        93                         -0.2445385              -6.6542
        94                         -0.2436692              -6.6306
        95                         -0.2411688              -6.5625
        96                         -0.2382772              -6.4839
        97                         -0.2232390              -6.0746
        98                         -0.2183072              -5.9404
        99                         -0.2170183              -5.9054
       100                         -0.2043231              -5.5599
       101                         -0.1904122              -5.1814
       ...                                ...                  ...
       180                          0.6804672              18.5165
      -------------------------------------------------------------
                  HL-Gap            0.0548737 Eh            1.4932 eV

     #   Z          covCN         q      C6AA      α(0)
     1   6 C        3.761    -0.103    22.515     6.764
     2   6 C        3.909     0.021    20.156     6.381
     3   6 C        3.761    -0.103    22.511     6.764
     4   6 C        2.980    -0.014    28.348     8.734
     5   6 C        2.928    -0.036    28.895     8.815
     6   6 C        2.917    -0.045    29.105     8.847
     7   6 C        2.920    -0.033    28.821     8.804
     8   6 C        2.924    -0.059    29.470     8.903
     9   6 C        2.928     0.058    26.701     8.474
    10   7 N        2.754    -0.071    22.611     7.062
    11   6 C        2.928     0.076    26.302     8.411
    12   6 C        2.920    -0.036    28.907     8.817
    13   6 C        2.924    -0.018    28.463     8.749
    14   6 C        2.972    -0.013    28.337     8.732
    15   6 C        2.828     0.225    23.267     7.904
    16   8 O        0.858    -0.371    21.102     6.159
    17   6 C        2.971    -0.017    28.431     8.746
    18   6 C        2.926    -0.018    28.457     8.748
    19   6 C        2.945    -0.036    28.900     8.817
    20   6 C        2.968     0.057    26.708     8.477
    21  16 S        2.114    -0.142   147.046    20.409
    22   6 C        2.969     0.052    26.829     8.496
    23   6 C        2.964    -0.034    28.848     8.810
    24   6 C        2.921    -0.027    28.667     8.780
    25   6 C        2.919    -0.030    28.738     8.791
    26   6 C        2.922    -0.027    28.681     8.782
    27   6 C        2.952    -0.032    28.803     8.803
    28   6 C        2.974    -0.037    28.912     8.820
    29   6 C        2.921    -0.026    28.654     8.778
    30   6 C        2.920    -0.027    28.673     8.781
    31   6 C        2.920    -0.037    28.930     8.820
    32   6 C        2.928     0.058    26.703     8.474
    33   6 C        2.924    -0.059    29.461     8.901
    34   6 C        2.920    -0.033    28.814     8.803
    35   6 C        2.917    -0.044    29.100     8.846
    36   6 C        2.928    -0.036    28.897     8.816
    37   6 C        2.979    -0.014    28.352     8.734
    38   1 H        0.925     0.039     2.460     2.452
    39   1 H        0.925     0.032     2.565     2.505
    40   1 H        0.925     0.039     2.458     2.452
    41   1 H        0.925     0.039     2.458     2.452
    42   1 H        0.925     0.039     2.460     2.453
    43   1 H        0.925     0.031     2.574     2.509
    44   1 H        0.926     0.030     2.583     2.513
    45   1 H        0.926     0.026     2.639     2.540
    46   1 H        0.926     0.027     2.630     2.536
    47   1 H        0.926     0.021     2.712     2.575
    48   1 H        0.926     0.049     2.333     2.389
    49   1 H        0.926     0.059     2.205     2.322
    50   1 H        0.926     0.060     2.201     2.320
    51   1 H        0.926     0.042     2.419     2.432
    52   1 H        0.926     0.046     2.365     2.405
    53   1 H        0.926     0.040     2.443     2.444
    54   1 H        0.926     0.039     2.461     2.453
    55   1 H        0.926     0.040     2.444     2.445
    56   1 H        0.926     0.041     2.442     2.444
    57   1 H        0.926     0.049     2.333     2.388
    58   1 H        0.926     0.042     2.422     2.434
    59   1 H        0.926     0.042     2.418     2.432
    60   1 H        0.926     0.046     2.364     2.404
    61   1 H        0.926     0.024     2.676     2.558
    62   1 H        0.926     0.028     2.617     2.530
    63   1 H        0.926     0.026     2.638     2.540
    64   1 H        0.926     0.030     2.585     2.514

molecular dipole:
                 x           y           z       tot (Debye)
 q only:        0.391       0.402       0.614
   full:        0.456       0.327       0.527       1.956

 projected vibrational frequencies (cm⁻¹)
eigval :       -0.00    -0.00     0.00     0.00     0.00     0.00
eigval :        7.24    11.08    14.35    23.56    28.75    36.53
eigval :       43.96    48.34    57.78    86.11    97.22   101.22
eigval :      101.76   128.42   140.15   150.68   158.07   189.85
eigval :      190.20   212.56   219.25   231.88   239.48   246.61
eigval :      259.28   289.15   303.39   317.71   331.46   342.56
eigval :      349.33   367.06   371.62   377.72   380.17   390.50
eigval :      403.39   409.99   422.16   451.34   455.63   457.54
eigval :      477.55   492.18   513.83   515.18   546.75   547.42
eigval :      571.13   582.44   585.57   591.53   598.00   609.97
eigval :      639.13   645.76   651.44   677.18   682.52   686.91
eigval :      691.20   693.53   726.27   731.30   748.05   765.97
eigval :      776.65   778.03   814.48   820.76   829.41   865.64
eigval :      867.27   869.25   874.05   876.69   898.91   899.79
eigval :      913.05   913.97   915.39   918.06   920.88   921.45
eigval :      923.00   926.00   927.44   930.91   934.40   937.72
eigval :      943.31   957.24   964.35  1004.32  1014.43  1026.78
eigval :     1077.30  1079.50  1086.19  1100.13  1112.59  1114.21
eigval :     1116.30  1119.92  1128.84  1137.39  1141.21  1160.53
eigval :     1169.30  1176.12  1179.38  1181.76  1187.51  1188.28
eigval :     1194.28  1195.99  1211.76  1244.64  1250.18  1259.72
eigval :     1261.76  1264.80  1269.38  1274.14  1295.10  1311.79
eigval :     1316.80  1320.58  1325.99  1327.05  1335.45  1342.95
eigval :     1397.09  1400.13  1402.94  1421.05  1428.78  1436.67
eigval :     1443.69  1446.79  1452.25  1473.92  1480.75  1490.08
eigval :     1490.94  1497.52  1500.58  1505.43  1554.71  1559.78
eigval :     1572.83  1575.98  1581.31  1582.99  1585.58  1591.70
eigval :     1593.38  1603.14  1688.80  3026.40  3028.77  3039.60
eigval :     3042.33  3048.46  3052.35  3078.10  3078.81  3080.65
eigval :     3081.34  3083.01  3083.42  3083.51  3084.20  3086.64
eigval :     3088.47  3090.40  3093.49  3093.55  3094.33  3096.38
eigval :     3097.64  3098.02  3099.04  3099.55  3100.93  3101.33

   temp. (K)  partition function   enthalpy   heat capacity  entropy
                                   cal/mol     cal/K/mol   cal/K/mol   J/K/mol
 298.15  VIB  0.134E+16            18461.204    114.139    115.720
         ROT  0.537E+08              888.752      2.981     38.352
         INT  0.717E+23            19349.957    117.120    154.073
         TR   0.107E+29             1481.254      4.968     44.481
         TOT                       20831.2106   122.0883   198.5537   830.7488

       T/K    H(0)-H(T)+PV         H(T)/Eh          T*S/Eh         G(T)/Eh
   ------------------------------------------------------------------------
    298.15    0.331966E-01    0.531951E+00    0.943393E-01    0.437612E+00
   ------------------------------------------------------------------------

         :::::::::::::::::::::::::::::::::::::::::::::::::::::
         ::                  THERMODYNAMIC                  ::
         :::::::::::::::::::::::::::::::::::::::::::::::::::::
         :: total free energy         -96.369351186069 Eh   ::
         ::.................................................::
         :: total energy              -96.806962761683 Eh   ::
         :: zero point energy           0.498754215427 Eh   ::
         :: G(RRHO) w/o ZPVE           -0.061142639813 Eh   ::
         :: G(RRHO) contrib.            0.437611575614 Eh   ::
         :::::::::::::::::::::::::::::::::::::::::::::::::::::

           -------------------------------------------------
          | TOTAL ENERGY              -96.806962761683 Eh   |
          | TOTAL ENTHALPY            -96.275011899056 Eh   |
          | TOTAL FREE ENERGY         -96.369351186069 Eh   |
          | GRADIENT NORM               0.000024959339 Eh/α |
          | HOMO-LUMO GAP               1.493188378967 eV   |
           -------------------------------------------------

 * finished run on 2025/07/20 at 04:13:01.747
