   * xtb version 6.7.1 (edcfbbe) compiled by 'albert@albert-system' on 2024-07-22

   ID    Z sym.   atoms
    1    6 C      1-4, 6-11, 13-17, 19-32, 34-49
    2    7 N      5, 12, 18, 33
    3    1 H      50-79

          program call               : xtb data2507/toluene/PPZPPI/PPZPPI_toluene_S0_crest.xyz --gfn 2 --gbsa toluene --ohess vtight --parallel 40 --molden --ceasefiles --namespace data2507/toluene/PPZPPI/PPZPPI_toluene_S0_finalOpt
      * Solvation model:               GBSA
        Solvent                        toluene
        Solvent mass                       9.2140E+01 g/mol
          :  Hamiltonian                  GFN2-xTB          :
 * total energy  :  -123.4806368 Eh     change       -0.1602018E-08 Eh
 * total energy  :  -123.4806877 Eh     change       -0.5090387E-04 Eh
 * total energy  :  -123.4807297 Eh     change       -0.4197416E-04 Eh
 * total energy  :  -123.4807564 Eh     change       -0.2672214E-04 Eh
 * total energy  :  -123.4807805 Eh     change       -0.2400865E-04 Eh
 * total energy  :  -123.4808105 Eh     change       -0.3006029E-04 Eh
 * total energy  :  -123.4808298 Eh     change       -0.1924999E-04 Eh
 * total energy  :  -123.4808481 Eh     change       -0.1838543E-04 Eh
 * total energy  :  -123.4808677 Eh     change       -0.1958436E-04 Eh
 * total energy  :  -123.4808787 Eh     change       -0.1096047E-04 Eh
 * total energy  :  -123.4810125 Eh     change       -0.1041792E-05 Eh
 * total energy  :  -123.4810133 Eh     change       -0.7192961E-06 Eh
 * total energy  :  -123.4810139 Eh     change       -0.6646899E-06 Eh
 * total energy  :  -123.4810143 Eh     change       -0.4308458E-06 Eh
 * total energy  :  -123.4810149 Eh     change       -0.5298166E-06 Eh
 * total energy  :  -123.4810155 Eh     change       -0.6356185E-06 Eh
 * total energy  :  -123.4810160 Eh     change       -0.4742888E-06 Eh
 * total energy  :  -123.4810162 Eh     change       -0.2240312E-06 Eh
 * total energy  :  -123.4810162 Eh     change       -0.3867595E-07 Eh
   *** GEOMETRY OPTIMIZATION CONVERGED AFTER 43 ITERATIONS ***

 final structure:
================
79
 xtb: 6.7.1 (edcfbbe)
C           10.06125498345059       -0.08452453659877        0.11166935594032
C            9.38100718722355       -0.08812110326701       -1.09524865136378
C            7.99833146653183       -0.13868758582532       -1.11414169321410
C            7.29050888839781       -0.19074653113596        0.08126440860127
N            5.87089943272263       -0.24154627195243        0.06573899710028
C            5.13766441357804        0.89107738119751        0.41062190546297
C            5.77061639543899        2.08022601128521        0.74258001571027
C            5.03959693727720        3.19788617563881        1.12445414912442
C            3.66554343902812        3.12699632735835        1.18759116418587
C            3.01712953450245        1.94995310513337        0.83420304275371
C            3.73129770419335        0.83705771715239        0.41594411168762
N            3.08350272887868       -0.33959919515170        0.03112057495437
C            1.67133767803331       -0.38399964062625        0.00935432872236
C            0.97703502131323       -1.21310928043959        0.88773929560406
C           -0.40160269407982       -1.23883824415684        0.87239289375425
C           -1.11957539027737       -0.42714051645408       -0.00772431989217
C           -2.57219684244600       -0.48294877742333        0.03248461898957
N           -3.24236524316208       -1.58817485470481        0.25189929745698
C           -4.55667606379579       -1.24149656791100        0.21082845173165
C           -5.68776163670224       -2.09366350063259        0.35310454863985
C           -5.53971294183144       -3.47103419350176        0.55130973489035
C           -6.64359220759286       -4.28008980838548        0.65819813882883
C           -7.91541016203109       -3.71738527483843        0.56584364004478
C           -8.07291577000906       -2.36409231194974        0.37625562487192
C           -6.96959762814523       -1.50260065216396        0.26937061881722
C           -7.10379909763489       -0.06501537418478        0.10241148426350
C           -8.35980208038057        0.55929653168529        0.08976158146519
C           -8.49673097349668        1.92284543528584       -0.02378233148774
C           -7.36869100510355        2.73227959194175       -0.11640643043918
C           -6.12032168909806        2.16007761200892       -0.11686090769859
C           -5.95915233270235        0.76960128730807       -0.02824814514974
C           -4.68870874030987        0.12622162132834       -0.02389079844054
N           -3.40172150321405        0.60053663254173       -0.15029931391881
C           -2.95957299763681        1.91915751216694       -0.39576692206771
C           -2.20675640772696        2.58044607877238        0.56725130301191
C           -1.74013780328855        3.85823653016451        0.31302964907108
C           -2.02185588530776        4.47591835501308       -0.89431097845738
C           -2.77173806554667        3.81428800533528       -1.85405345800489
C           -3.23915281865264        2.53514511252145       -1.61210899694332
C           -0.42007039401607        0.37990584403175       -0.90430572849552
C            0.95997523314849        0.39996852299922       -0.89480322612269
C            3.82135375864842       -1.46779954940340       -0.33674732223637
C            3.19716374055133       -2.62746947584495       -0.77108493622619
C            3.93530461538413       -3.75554889243674       -1.10753118350365
C            5.30920492293217       -3.72945526425065       -1.01143935706943
C            5.95044549265883       -2.56370646628754       -0.61248576863006
C            5.22731777261288       -1.42275688944826       -0.29654279967587
C            7.97394056537224       -0.19150149078153        1.29185174906304
C            9.35652845118060       -0.13529907520593        1.30336986212690
H           11.14020431575627       -0.04252332769877        0.12346717054676
H            9.92793652092187       -0.04796721315372       -2.02571730486718
H            7.45879045486373       -0.14086247615710       -2.05010666447337
H            6.84732225433718        2.13664588270887        0.70506176611209
H            5.55802045693073        4.11012533124381        1.37812792647717
H            3.08290624341655        3.97841405708617        1.50482161178656
H            1.94072666275907        1.90325966788238        0.88747919891552
H            1.52736082331304       -1.83040759193851        1.58235888711950
H           -0.94783593835247       -1.87752375072515        1.54922119277248
H           -4.53754274742399       -3.86799936222706        0.60930477067504
H           -6.53184320769254       -5.34370998834557        0.80986190751616
H           -8.78771403968138       -4.35047185708160        0.64337750892787
H           -9.07620994425383       -1.97464773859624        0.30829582165476
H           -9.25436907392383       -0.03519426752982        0.18053146932057
H           -9.48151098892516        2.36666513985652       -0.02903842227121
H           -7.47236092338614        3.80524930281948       -0.18342779068679
H           -5.24824096055188        2.79147308910572       -0.17234112789479
H           -1.99225009525284        2.08844312347187        1.50471390785799
H           -1.15579563048755        4.37096860748477        1.06201104970142
H           -1.65618583378040        5.47260644766971       -1.08890977744268
H           -2.99061047480110        4.29206169114103       -2.79710534225897
H           -3.82160553070364        2.00792186570366       -2.35411211153761
H           -0.95046782211544        0.97627847782218       -1.63025122013321
H            1.49780574338987        1.02482278058613       -1.59249811874876
H            2.12177228082136       -2.65668169569726       -0.85159483267284
H            3.42144179791075       -4.64569897452444       -1.43732126893366
H            5.89617535341099       -4.60294548667575       -1.25150361094741
H            7.02727238029558       -2.54434241881098       -0.54839314147036
H            7.41563332896535       -0.23189961008308        2.21584838400824
H            9.88442455164745       -0.13495507589252        2.24562165599606

          :  Hamiltonian                  GFN2-xTB          :
         :: gradient norm              0.000100443715 Eh/a0 ::
         :: HOMO-LUMO gap              1.625213559940 eV    ::
         :: SCC energy              -125.778134816820 Eh    ::
         :: -> dispersion             -0.116538199285 Eh    ::
         :: -> Gsolv                  -0.050808377992 Eh    ::
         :: repulsion energy           2.297118566807 Eh    ::

    * Orbital Energies and Occupations

         #    Occupation            Energy/Eh            Energy/eV
      -------------------------------------------------------------
         1        2.0000           -0.6901620             -18.7803
       ...           ...                  ...                  ...
       103        2.0000           -0.4151821             -11.2977
       104        2.0000           -0.4127923             -11.2327
       105        2.0000           -0.4101173             -11.1599
       106        2.0000           -0.4084109             -11.1134
       107        2.0000           -0.4072342             -11.0814
       108        2.0000           -0.4058810             -11.0446
       109        2.0000           -0.4025719             -10.9545
       110        2.0000           -0.3998764             -10.8812
       111        2.0000           -0.3837609             -10.4427
       112        2.0000           -0.3813121             -10.3760
       113        2.0000           -0.3749421             -10.2027
       114        2.0000           -0.3665851              -9.9753
       115        2.0000           -0.3237833              -8.8106 (HOMO)
       116                         -0.2640579              -7.1854 (LUMO)
       117                         -0.2520059              -6.8574
       118                         -0.2451784              -6.6716
       119                         -0.2415571              -6.5731
       120                         -0.2406097              -6.5473
       121                         -0.2346599              -6.3854
       122                         -0.2338165              -6.3625
       123                         -0.2321906              -6.3182
       124                         -0.2285656              -6.2196
       125                         -0.2203289              -5.9955
       126                         -0.2135832              -5.8119
       ...                                ...                  ...
       226                          0.7240219              19.7016
      -------------------------------------------------------------
                  HL-Gap            0.0597254 Eh            1.6252 eV

     #   Z          covCN         q      C6AA      α(0)
     1   6 C        2.919    -0.031    28.774     8.796
     2   6 C        2.919    -0.028    28.705     8.786
     3   6 C        2.922    -0.039    28.964     8.826
     4   6 C        2.923     0.068    26.487     8.440
     5   7 N        2.752    -0.084    22.875     7.103
     6   6 C        2.926     0.051    26.859     8.499
     7   6 C        2.924    -0.064    29.588     8.920
     8   6 C        2.918    -0.044    29.088     8.844
     9   6 C        2.918    -0.045    29.109     8.847
    10   6 C        2.923    -0.064    29.583     8.920
    11   6 C        2.925     0.048    26.914     8.508
    12   7 N        2.751    -0.081    22.813     7.094
    13   6 C        2.923     0.069    26.464     8.436
    14   6 C        2.920    -0.039    28.970     8.826
    15   6 C        2.927    -0.028    28.710     8.787
    16   6 C        2.973    -0.003    28.103     8.696
    17   6 C        3.193     0.135    24.592     8.087
    18   7 N        1.894    -0.317    29.060     7.992
    19   6 C        3.206     0.060    26.087     8.318
    20   6 C        2.985    -0.003    28.090     8.694
    21   6 C        2.921    -0.033    28.833     8.806
    22   6 C        2.917    -0.032    28.791     8.799
    23   6 C        2.917    -0.034    28.850     8.808
    24   6 C        2.921    -0.036    28.906     8.817
    25   6 C        2.979    -0.005    28.134     8.701
    26   6 C        2.979    -0.001    28.054     8.688
    27   6 C        2.922    -0.035    28.872     8.812
    28   6 C        2.916    -0.034    28.845     8.807
    29   6 C        2.917    -0.032    28.808     8.801
    30   6 C        2.919    -0.041    29.027     8.835
    31   6 C        2.978    -0.005    28.140     8.701
    32   6 C        3.074     0.022    27.444     8.589
    33   7 N        2.840    -0.053    22.264     7.008
    34   6 C        2.913     0.066    26.529     8.446
    35   6 C        2.921    -0.038    28.953     8.824
    36   6 C        2.920    -0.025    28.620     8.773
    37   6 C        2.919    -0.028    28.706     8.786
    38   6 C        2.920    -0.026    28.651     8.778
    39   6 C        2.921    -0.037    28.923     8.819
    40   6 C        2.921    -0.035    28.875     8.812
    41   6 C        2.921    -0.040    28.999     8.831
    42   6 C        2.924     0.049    26.911     8.507
    43   6 C        2.923    -0.063    29.574     8.918
    44   6 C        2.918    -0.044    29.097     8.846
    45   6 C        2.918    -0.044    29.083     8.843
    46   6 C        2.924    -0.064    29.584     8.920
    47   6 C        2.925     0.051    26.864     8.500
    48   6 C        2.922    -0.039    28.963     8.825
    49   6 C        2.919    -0.028    28.705     8.786
    50   1 H        0.926     0.042     2.429     2.437
    51   1 H        0.926     0.042     2.425     2.435
    52   1 H        0.926     0.040     2.448     2.447
    53   1 H        0.926     0.027     2.623     2.533
    54   1 H        0.926     0.027     2.623     2.532
    55   1 H        0.926     0.027     2.625     2.533
    56   1 H        0.926     0.026     2.639     2.540
    57   1 H        0.926     0.048     2.348     2.396
    58   1 H        0.926     0.052     2.297     2.370
    59   1 H        0.926     0.043     2.403     2.424
    60   1 H        0.926     0.033     2.548     2.496
    61   1 H        0.926     0.032     2.555     2.499
    62   1 H        0.926     0.035     2.516     2.481
    63   1 H        0.926     0.037     2.485     2.465
    64   1 H        0.926     0.033     2.544     2.494
    65   1 H        0.926     0.032     2.556     2.500
    66   1 H        0.926     0.030     2.587     2.515
    67   1 H        0.926     0.037     2.483     2.464
    68   1 H        0.926     0.047     2.353     2.399
    69   1 H        0.926     0.048     2.339     2.392
    70   1 H        0.926     0.048     2.341     2.393
    71   1 H        0.926     0.042     2.417     2.431
    72   1 H        0.926     0.037     2.489     2.467
    73   1 H        0.926     0.046     2.375     2.410
    74   1 H        0.926     0.028     2.620     2.531
    75   1 H        0.926     0.027     2.626     2.534
    76   1 H        0.926     0.028     2.622     2.532
    77   1 H        0.926     0.028     2.620     2.531
    78   1 H        0.926     0.040     2.446     2.446
    79   1 H        0.926     0.042     2.424     2.435

molecular dipole:
                 x           y           z       tot (Debye)
 q only:        0.860       1.299      -0.220
   full:        0.704       1.613      -0.281       4.531

 projected vibrational frequencies (cm⁻¹)
eigval :       -0.00    -0.00    -0.00     0.00     0.00     0.00
eigval :       10.66    14.56    16.87    21.42    31.59    37.55
eigval :       42.50    45.62    48.75    58.07    62.00    73.54
eigval :       78.54    87.45    94.55   107.69   118.72   127.29
eigval :      163.64   168.21   183.32   205.81   218.97   222.03
eigval :      234.99   245.41   246.71   252.23   261.72   267.58
eigval :      300.44   308.70   346.40   372.21   374.10   377.20
eigval :      380.61   388.66   394.74   398.75   403.41   409.25
eigval :      416.25   428.68   429.90   437.13   446.81   452.96
eigval :      473.91   479.65   493.38   508.64   513.13   518.33
eigval :      523.91   529.61   535.18   583.86   586.89   587.31
eigval :      590.10   594.16   595.37   606.43   632.78   638.42
eigval :      645.10   653.34   655.78   657.78   667.68   672.12
eigval :      676.20   681.75   684.85   699.79   704.98   720.98
eigval :      735.35   743.64   762.00   762.77   765.86   766.19
eigval :      772.46   781.35   793.68   821.23   851.13   856.81
eigval :      861.41   874.03   874.50   874.95   878.97   885.99
eigval :      887.31   888.74   900.24   904.15   905.29   905.81
eigval :      906.48   910.26   910.94   913.16   922.94   923.16
eigval :      926.61   927.32   930.44   931.72   932.55   933.54
eigval :      938.77   944.58   955.88   992.12   997.11  1016.00
eigval :     1029.60  1067.81  1076.93  1078.37  1085.29  1106.82
eigval :     1110.16  1111.70  1112.44  1114.47  1121.73  1127.04
eigval :     1130.89  1134.67  1151.24  1172.32  1176.54  1180.17
eigval :     1180.74  1180.80  1181.77  1182.84  1183.98  1185.11
eigval :     1186.53  1194.95  1207.50  1218.35  1237.32  1252.45
eigval :     1255.55  1260.65  1262.20  1269.97  1272.15  1276.49
eigval :     1281.50  1291.60  1302.81  1308.59  1310.90  1311.11
eigval :     1313.45  1318.56  1331.61  1336.88  1347.01  1361.43
eigval :     1367.05  1371.21  1403.98  1405.86  1416.78  1422.81
eigval :     1428.93  1430.73  1432.01  1434.98  1437.18  1462.71
eigval :     1469.59  1477.10  1492.40  1510.89  1512.38  1514.86
eigval :     1540.45  1554.09  1555.67  1562.24  1567.20  1577.07
eigval :     1580.67  1581.66  1582.04  1590.12  1591.02  1592.81
eigval :     1593.07  1596.76  1603.20  3070.33  3073.54  3075.79
eigval :     3077.42  3079.13  3079.17  3079.52  3080.42  3081.65
eigval :     3083.74  3084.45  3085.75  3087.35  3087.73  3088.13
eigval :     3088.54  3088.65  3092.68  3095.96  3096.60  3099.43
eigval :     3099.78  3101.10  3101.81  3102.02  3103.25  3104.27
eigval :     3106.57  3109.62  3116.84

   temp. (K)  partition function   enthalpy   heat capacity  entropy
                                   cal/mol     cal/K/mol   cal/K/mol   J/K/mol
 298.15  VIB  0.169E+18            22073.855    141.077    136.981
         ROT  0.909E+08              888.752      2.981     39.399
         INT  0.154E+26            22962.608    144.058    176.380
         TR   0.152E+29             1481.254      4.968     45.168
         TOT                       24443.8614   149.0259   221.5484   926.9583

       T/K    H(0)-H(T)+PV         H(T)/Eh          T*S/Eh         G(T)/Eh
   ------------------------------------------------------------------------
    298.15    0.389538E-01    0.645326E+00    0.105265E+00    0.540062E+00
   ------------------------------------------------------------------------

         :::::::::::::::::::::::::::::::::::::::::::::::::::::
         ::                  THERMODYNAMIC                  ::
         :::::::::::::::::::::::::::::::::::::::::::::::::::::
         :: total free energy        -122.940954669109 Eh   ::
         ::.................................................::
         :: total energy             -123.481016248928 Eh   ::
         :: zero point energy           0.606372581917 Eh   ::
         :: G(RRHO) w/o ZPVE           -0.066311002098 Eh   ::
         :: G(RRHO) contrib.            0.540061579819 Eh   ::
         :::::::::::::::::::::::::::::::::::::::::::::::::::::

           -------------------------------------------------
          | TOTAL ENERGY             -123.481016248928 Eh   |
          | TOTAL ENTHALPY           -122.835689894283 Eh   |
          | TOTAL FREE ENERGY        -122.940954669109 Eh   |
          | GRADIENT NORM               0.000100443537 Eh/α |
          | HOMO-LUMO GAP               1.625210495311 eV   |
           -------------------------------------------------

 * finished run on 2025/09/04 at 10:12:05.688
