   * xtb version 6.7.1 (edcfbbe) compiled by 'albert@albert-system' on 2024-07-22

   ID    Z sym.   atoms
    1    6 C      1-4, 6-11, 13-17, 19-32, 34-49
    2    7 N      5, 12, 18, 33
    3    1 H      50-79

          program call               : xtb data2507/toluene/PPZPPI/PPZPPI_toluene_T1_crest.xyz --gfn 2 --uhf 2 --gbsa toluene --ohess vtight --parallel 40 --molden --ceasefiles --namespace data2507/toluene/PPZPPI/PPZPPI_toluene_T1_finalOpt
      * Solvation model:               GBSA
        Solvent                        toluene
        Solvent mass                       9.2140E+01 g/mol
          :  Hamiltonian                  GFN2-xTB          :
 * total energy  :  -123.4041460 Eh     change       -0.5728614E-07 Eh
 * total energy  :  -123.4042242 Eh     change       -0.7824852E-04 Eh
 * total energy  :  -123.4042634 Eh     change       -0.3915425E-04 Eh
 * total energy  :  -123.4042715 Eh     change       -0.8107986E-05 Eh
 * total energy  :  -123.4042790 Eh     change       -0.7543401E-05 Eh
 * total energy  :  -123.4042837 Eh     change       -0.4601946E-05 Eh
 * total energy  :  -123.4042888 Eh     change       -0.5130315E-05 Eh
 * total energy  :  -123.4042935 Eh     change       -0.4736781E-05 Eh
 * total energy  :  -123.4042966 Eh     change       -0.3113118E-05 Eh
 * total energy  :  -123.4042986 Eh     change       -0.1974765E-05 Eh
 * total energy  :  -123.4043045 Eh     change       -0.1201864E-05 Eh
 * total energy  :  -123.4043052 Eh     change       -0.6951431E-06 Eh
 * total energy  :  -123.4043058 Eh     change       -0.6136021E-06 Eh
 * total energy  :  -123.4043065 Eh     change       -0.7058538E-06 Eh
 * total energy  :  -123.4043072 Eh     change       -0.6976511E-06 Eh
 * total energy  :  -123.4043079 Eh     change       -0.6909971E-06 Eh
 * total energy  :  -123.4043085 Eh     change       -0.6309732E-06 Eh
 * total energy  :  -123.4043090 Eh     change       -0.4513684E-06 Eh
 * total energy  :  -123.4043090 Eh     change       -0.2843819E-08 Eh
   *** GEOMETRY OPTIMIZATION CONVERGED AFTER 22 ITERATIONS ***

 final structure:
================
79
 xtb: 6.7.1 (edcfbbe)
C           10.09921513893157       -0.20864445784562        0.03336799825281
C            9.40691667804494        0.15675068604185       -1.10985872349177
C            8.02273466311783        0.15420263213367       -1.11521973828006
C            7.33353285496443       -0.21843074466087        0.03165422012395
N            5.90702566132119       -0.22351782296363        0.03100067004145
C            5.22022835160369        0.83077893767750        0.60024104970750
C            5.90082505171649        1.91223915616355        1.15679065474769
C            5.21120410491643        2.93706943521602        1.77675274322979
C            3.82819337856840        2.88254280274901        1.87029850547039
C            3.13514644069558        1.82926635359477        1.30669701788686
C            3.80699565533949        0.80756694910884        0.63246598359063
N            3.11921454767879       -0.23585153397170        0.03449635167479
C            1.71015828538670       -0.24476430015744        0.04236608421770
C            1.00041485410009       -1.29939061508758        0.65305615445506
C           -0.36103874769257       -1.29102038011305        0.67784749475910
C           -1.11834099788421       -0.23081757348215        0.09201199652654
C           -2.51844011922943       -0.31513661038324        0.16488622703958
N           -3.14345071213578       -1.46470463580535        0.48062374572047
C           -4.44849768313560       -1.24211134364563        0.34027982731559
C           -5.50854079235143       -2.18511621987092        0.49789465868086
C           -5.24015997471077       -3.52198680344275        0.79817871376651
C           -6.26477916178832       -4.43628494145338        0.90568164474915
C           -7.57385480412081       -4.01331073197297        0.70061272763697
C           -7.85176253427970       -2.69505297563141        0.41004363952949
C           -6.83579212890844       -1.73077078220634        0.30926776386392
C           -7.09719726355813       -0.32960079151252        0.04698973733888
C           -8.40113118327908        0.16953551298661       -0.03523188043955
C           -8.67068153815627        1.50460133693634       -0.23691109381052
C           -7.61777910493275        2.41697434988476       -0.34416754996695
C           -6.32468760605778        1.97530146253673       -0.27989842946817
C           -6.01678523562944        0.60645640804231       -0.10685652490871
C           -4.70679252203600        0.10151437458214       -0.03040540102782
N           -3.46103242735684        0.68823335160874       -0.14576851503563
C           -3.15974491236758        2.02466259577893       -0.43370950915692
C           -2.47177106696243        2.80062043426815        0.50144627492486
C           -2.15504003718743        4.11296443628689        0.20955759032972
C           -2.51625762474004        4.66671080947906       -1.00969095198963
C           -3.19955845663710        3.89793039463899       -1.94145835223904
C           -3.52092511553501        2.58419772573795       -1.66139987091374
C           -0.38080141719077        0.79553402029915       -0.56602759261250
C            0.98506394006895        0.78857170578940       -0.57567448710798
C            3.81474204349780       -1.26976012000377       -0.57122602983562
C            3.14998770692454       -2.29227295617771       -1.25121889226604
C            3.85069239509366       -3.33797330054276       -1.81948527833027
C            5.23406718154989       -3.38318866816010       -1.72563245769010
C            5.91653248172174       -2.35567538318654       -1.10216923558886
C            5.22810987236844       -1.28164238278345       -0.54099909877082
C            8.02389555393103       -0.58617610703112        1.17935529202725
C            9.40807585049488       -0.57890936481436        1.17571759735400
H           11.17862458315759       -0.20488850522041        0.03402937667412
H            9.94409417134073        0.44595968472887       -2.00036811005105
H            7.47253881919373        0.43702814012629       -2.00032859997524
H            6.97727139787629        1.94185598397782        1.10453751053085
H            5.75509684017844        3.76610211636677        2.20117228363947
H            3.28537459352247        3.66104969583795        2.38306892512340
H            2.06155218115684        1.78664518644608        1.39038920809041
H            1.55191624676370       -2.09623780934986        1.13156083261108
H           -0.91267229640573       -2.08089661359224        1.16194205392851
H           -4.20871988686271       -3.81060790051228        0.93438837820193
H           -6.05645416590859       -5.47034510557301        1.13861812273108
H           -8.38506119090967       -4.72465127289929        0.76986124361959
H           -8.88236602316313       -2.41673999356567        0.25439615656234
H           -9.23754752943103       -0.50320575502879        0.07339233768817
H           -9.69314337591650        1.84825742402593       -0.29441093813944
H           -7.82501103773577        3.47007620239040       -0.47152930140207
H           -5.51956942487435        2.68965059551703       -0.34013095594703
H           -2.19335182222522        2.35923960058865        1.44750406413995
H           -1.62755702509044        4.70933296715418        0.93948422182712
H           -2.26660138651212        5.69265193807420       -1.23429711084286
H           -3.47882270840832        4.32301106982101       -2.89451477037496
H           -4.04925954214168        1.97695853233387       -2.38290181869315
H           -0.90114373456386        1.56595933815469       -1.11015122691312
H            1.52383021771341        1.56599641194350       -1.09944797782977
H            2.07614905317861       -2.25720407322851       -1.33559026595986
H            3.31311969949434       -4.11791998808359       -2.33555786278978
H            5.78372446779182       -4.20694212026291       -2.15286862020299
H            6.99319856880354       -2.37758507102459       -1.05063702235049
H            7.47456977567774       -0.87299694452399        2.06370185513655
H            9.94614793962618       -0.86444691415619        2.06685930983746

          :  Hamiltonian                  GFN2-xTB          :
         :: gradient norm              0.000057611970 Eh/a0 ::
         :: HOMO-LUMO gap              0.209205856968 eV    ::
         :: SCC energy              -125.685221109652 Eh    ::
         :: -> dispersion             -0.116258394109 Eh    ::
         :: -> Gsolv                  -0.057402624143 Eh    ::
         :: repulsion energy           2.280912145612 Eh    ::

    * Orbital Energies and Occupations

         #    Occupation            Energy/Eh            Energy/eV
      -------------------------------------------------------------
         1        2.0000           -0.7011618             -19.0796
       ...           ...                  ...                  ...
       104        2.0000           -0.4101037             -11.1595
       105        2.0000           -0.4075271             -11.0894
       106        2.0000           -0.4069519             -11.0737
       107        2.0000           -0.4011078             -10.9147
       108        2.0000           -0.3985018             -10.8438
       109        2.0000           -0.3972717             -10.8103
       110        2.0000           -0.3874653             -10.5435
       111        2.0000           -0.3859274             -10.5016
       112        2.0000           -0.3709075             -10.0929
       113        2.0000           -0.3634748              -9.8907
       114        1.9959           -0.3505858              -9.5399
       115        1.0041           -0.3401414              -9.2557
       116        0.9828           -0.2606052              -7.0914 (HOMO)
       117        0.0172           -0.2529164              -6.8822 (LUMO)
       118        0.0000           -0.2456456              -6.6844
       119        0.0000           -0.2427704              -6.6061
       120                         -0.2403607              -6.5405
       121                         -0.2393196              -6.5122
       122                         -0.2356441              -6.4122
       123                         -0.2279658              -6.2033
       124                         -0.2267246              -6.1695
       125                         -0.2208931              -6.0108
       126                         -0.2130787              -5.7982
       127                         -0.2062014              -5.6110
       ...                                ...                  ...
       226                          0.7388361              20.1048
      -------------------------------------------------------------
                  HL-Gap            0.0076888 Eh            0.2092 eV

     #   Z          covCN         q      C6AA      α(0)
     1   6 C        2.919    -0.026    28.650     8.777
     2   6 C        2.920    -0.024    28.608     8.771
     3   6 C        2.921    -0.035    28.881     8.813
     4   6 C        2.927     0.060    26.664     8.468
     5   7 N        2.754    -0.032    21.868     6.945
     6   6 C        2.929     0.051    26.845     8.497
     7   6 C        2.921    -0.053    29.325     8.880
     8   6 C        2.917    -0.031    28.772     8.796
     9   6 C        2.917    -0.032    28.792     8.799
    10   6 C        2.920    -0.049    29.222     8.865
    11   6 C        2.929     0.050    26.881     8.503
    12   7 N        2.751    -0.015    21.538     6.893
    13   6 C        2.924     0.023    27.495     8.599
    14   6 C        2.911    -0.045    29.113     8.848
    15   6 C        2.925    -0.042    29.051     8.839
    16   6 C        2.967    -0.022    28.543     8.763
    17   6 C        3.133     0.121    25.147     8.209
    18   7 N        1.881    -0.340    29.688     8.077
    19   6 C        3.166     0.075    25.988     8.330
    20   6 C        2.983    -0.011    28.274     8.722
    21   6 C        2.922    -0.035    28.861     8.810
    22   6 C        2.916    -0.039    28.965     8.825
    23   6 C        2.917    -0.035    28.878     8.812
    24   6 C        2.921    -0.041    29.030     8.836
    25   6 C        2.977    -0.007    28.196     8.710
    26   6 C        2.977    -0.014    28.351     8.734
    27   6 C        2.920    -0.037    28.927     8.820
    28   6 C        2.915    -0.044    29.104     8.847
    29   6 C        2.914    -0.038    28.951     8.823
    30   6 C        2.917    -0.045    29.117     8.849
    31   6 C        2.973    -0.020    28.500     8.757
    32   6 C        3.033     0.030    27.310     8.572
    33   7 N        2.816    -0.085    22.893     7.106
    34   6 C        2.909     0.067    26.502     8.441
    35   6 C        2.921    -0.043    29.058     8.840
    36   6 C        2.918    -0.030    28.748     8.792
    37   6 C        2.919    -0.038    28.956     8.824
    38   6 C        2.918    -0.031    28.776     8.797
    39   6 C        2.920    -0.042    29.047     8.838
    40   6 C        2.914    -0.052    29.296     8.876
    41   6 C        2.912    -0.044    29.084     8.843
    42   6 C        2.929     0.050    26.879     8.502
    43   6 C        2.920    -0.049    29.217     8.864
    44   6 C        2.917    -0.031    28.785     8.798
    45   6 C        2.917    -0.031    28.765     8.795
    46   6 C        2.920    -0.053    29.324     8.880
    47   6 C        2.929     0.051    26.845     8.497
    48   6 C        2.921    -0.035    28.880     8.813
    49   6 C        2.920    -0.024    28.607     8.771
    50   1 H        0.926     0.049     2.329     2.387
    51   1 H        0.926     0.050     2.315     2.379
    52   1 H        0.926     0.048     2.341     2.393
    53   1 H        0.926     0.048     2.341     2.392
    54   1 H        0.926     0.048     2.341     2.393
    55   1 H        0.926     0.046     2.370     2.408
    56   1 H        0.926     0.050     2.324     2.384
    57   1 H        0.926     0.032     2.562     2.503
    58   1 H        0.926     0.041     2.430     2.438
    59   1 H        0.926     0.038     2.480     2.463
    60   1 H        0.926     0.026     2.639     2.540
    61   1 H        0.926     0.026     2.642     2.542
    62   1 H        0.926     0.026     2.639     2.541
    63   1 H        0.926     0.025     2.652     2.547
    64   1 H        0.926     0.020     2.727     2.583
    65   1 H        0.926     0.020     2.738     2.587
    66   1 H        0.926     0.020     2.733     2.585
    67   1 H        0.926     0.029     2.596     2.519
    68   1 H        0.926     0.037     2.484     2.465
    69   1 H        0.926     0.036     2.499     2.472
    70   1 H        0.926     0.035     2.511     2.478
    71   1 H        0.926     0.030     2.584     2.514
    72   1 H        0.926     0.020     2.740     2.588
    73   1 H        0.926     0.029     2.606     2.524
    74   1 H        0.926     0.051     2.312     2.378
    75   1 H        0.926     0.046     2.364     2.405
    76   1 H        0.926     0.049     2.338     2.391
    77   1 H        0.926     0.048     2.339     2.391
    78   1 H        0.926     0.048     2.339     2.392
    79   1 H        0.926     0.050     2.314     2.379

molecular dipole:
                 x           y           z       tot (Debye)
 q only:        7.537       0.608      -0.195
   full:        7.184       0.946      -0.308      18.435

 projected vibrational frequencies (cm⁻¹)
eigval :       -0.00    -0.00    -0.00     0.00     0.00     0.00
eigval :        5.69     9.67    16.03    21.95    32.57    35.80
eigval :       42.85    44.09    56.64    60.09    67.81    75.47
eigval :       80.60    86.95    99.07   108.46   122.51   133.78
eigval :      160.65   170.13   184.10   203.99   213.16   223.24
eigval :      235.40   244.18   244.79   251.92   263.26   273.21
eigval :      302.50   304.81   330.82   371.68   372.21   377.42
eigval :      381.10   389.75   391.19   399.81   403.49   406.67
eigval :      414.15   422.06   425.58   438.76   442.94   450.96
eigval :      461.28   484.02   491.81   492.88   498.83   500.71
eigval :      521.09   526.77   532.02   574.43   582.21   584.14
eigval :      587.60   592.22   593.10   598.57   606.49   626.51
eigval :      633.45   642.01   645.55   656.01   663.73   665.41
eigval :      668.91   670.36   673.17   674.62   693.22   715.12
eigval :      720.36   735.14   751.48   756.39   765.01   767.12
eigval :      771.35   772.15   785.71   790.45   832.11   848.75
eigval :      858.51   860.42   860.99   869.07   880.26   885.66
eigval :      887.24   888.02   891.33   893.08   898.75   901.69
eigval :      905.17   906.21   908.51   910.53   913.94   915.52
eigval :      917.21   919.86   921.22   922.65   926.50   932.23
eigval :      932.91   935.83   938.73   977.57   984.68   993.72
eigval :     1001.53  1051.53  1074.89  1076.71  1081.32  1092.85
eigval :     1098.93  1100.34  1100.92  1114.04  1116.32  1127.41
eigval :     1128.35  1133.01  1136.97  1158.61  1168.18  1175.68
eigval :     1176.11  1178.72  1179.86  1179.91  1180.89  1183.10
eigval :     1186.08  1198.21  1200.39  1210.12  1233.73  1236.32
eigval :     1247.54  1251.38  1252.94  1254.98  1270.87  1275.45
eigval :     1278.91  1281.83  1295.12  1308.09  1310.94  1315.25
eigval :     1315.60  1318.32  1326.51  1331.15  1334.77  1342.15
eigval :     1346.86  1360.76  1378.57  1390.61  1393.22  1407.17
eigval :     1411.37  1422.45  1429.73  1429.79  1431.74  1433.44
eigval :     1436.71  1450.94  1461.68  1465.51  1468.31  1473.02
eigval :     1487.36  1505.42  1521.62  1529.70  1535.46  1539.56
eigval :     1543.52  1546.43  1560.80  1561.69  1569.05  1578.29
eigval :     1581.06  1587.82  1590.79  3062.71  3064.23  3065.83
eigval :     3070.90  3071.91  3073.44  3074.72  3076.01  3081.31
eigval :     3084.01  3084.46  3085.46  3088.43  3090.97  3093.92
eigval :     3094.26  3094.93  3095.13  3095.94  3098.84  3102.35
eigval :     3102.65  3102.81  3108.38  3112.83  3113.15  3116.13
eigval :     3117.27  3117.72  3118.72

   temp. (K)  partition function   enthalpy   heat capacity  entropy
                                   cal/mol     cal/K/mol   cal/K/mol   J/K/mol
 298.15  VIB  0.400E+18            22236.347    142.814    138.503
         ROT  0.934E+08              888.752      2.981     39.451
         INT  0.373E+26            23125.100    145.795    177.954
         TR   0.152E+29             1481.254      4.968     45.168
         TOT                       24606.3537   150.7634   223.1220   933.5424

       T/K    H(0)-H(T)+PV         H(T)/Eh          T*S/Eh         G(T)/Eh
   ------------------------------------------------------------------------
    298.15    0.392127E-01    0.641713E+00    0.106012E+00    0.535700E+00
   ------------------------------------------------------------------------

         :::::::::::::::::::::::::::::::::::::::::::::::::::::
         ::                  THERMODYNAMIC                  ::
         :::::::::::::::::::::::::::::::::::::::::::::::::::::
         :: total free energy        -122.868608668337 Eh   ::
         ::.................................................::
         :: total energy             -123.404308965280 Eh   ::
         :: zero point energy           0.602500034212 Eh   ::
         :: G(RRHO) w/o ZPVE           -0.066799737269 Eh   ::
         :: G(RRHO) contrib.            0.535700296943 Eh   ::
         :::::::::::::::::::::::::::::::::::::::::::::::::::::

           -------------------------------------------------
          | TOTAL ENERGY             -123.404308965280 Eh   |
          | TOTAL ENTHALPY           -122.762596210520 Eh   |
          | TOTAL FREE ENERGY        -122.868608668337 Eh   |
          | GRADIENT NORM               0.000057868848 Eh/α |
          | HOMO-LUMO GAP               0.209222902795 eV   |
           -------------------------------------------------

 * finished run on 2025/09/04 at 10:17:21.835
