   * xtb version 6.7.1 (edcfbbe) compiled by 'albert@albert-system' on 2024-07-22

   ID    Z sym.   atoms
    1    6 C      1-4, 6-11, 13-17, 19-32, 34-49
    2    7 N      5, 12, 18, 33
    3    1 H      50-79

          program call               : xtb data2507/toluene/PPZPPI/PPZPPI.xyz --gfn 2 --gbsa toluene --ohess vtight --parallel 40 --molden --ceasefiles --namespace data2507/toluene/PPZPPI/PPZPPI_toluene_S0_preOpt
      * Solvation model:               GBSA
        Solvent                        toluene
        Solvent mass                       9.2140E+01 g/mol
          :  Hamiltonian                  GFN2-xTB          :
 * total energy  :  -123.4537393 Eh     change       -0.3067044E-08 Eh
 * total energy  :  -123.4702909 Eh     change       -0.1655159E-01 Eh
 * total energy  :  -123.4756120 Eh     change       -0.5321116E-02 Eh
 * total energy  :  -123.4767581 Eh     change       -0.1146143E-02 Eh
 * total energy  :  -123.4775309 Eh     change       -0.7727305E-03 Eh
 * total energy  :  -123.4778879 Eh     change       -0.3570124E-03 Eh
 * total energy  :  -123.4781969 Eh     change       -0.3090510E-03 Eh
 * total energy  :  -123.4785026 Eh     change       -0.3056288E-03 Eh
 * total energy  :  -123.4788006 Eh     change       -0.2980778E-03 Eh
 * total energy  :  -123.4791338 Eh     change       -0.3331210E-03 Eh
 * total energy  :  -123.4809598 Eh     change       -0.8756768E-06 Eh
 * total energy  :  -123.4809606 Eh     change       -0.8160656E-06 Eh
 * total energy  :  -123.4809615 Eh     change       -0.8281219E-06 Eh
 * total energy  :  -123.4809624 Eh     change       -0.9263096E-06 Eh
 * total energy  :  -123.4809635 Eh     change       -0.1098556E-05 Eh
 * total energy  :  -123.4809648 Eh     change       -0.1270427E-05 Eh
 * total energy  :  -123.4809661 Eh     change       -0.1321467E-05 Eh
 * total energy  :  -123.4809674 Eh     change       -0.1325126E-05 Eh
 * total energy  :  -123.4809674 Eh     change       -0.8095157E-08 Eh
   *** GEOMETRY OPTIMIZATION CONVERGED AFTER 68 ITERATIONS ***

 final structure:
================
79
 xtb: 6.7.1 (edcfbbe)
C            9.93687536335278       -0.00933307036459        0.04576640656272
C            9.24061912598921        0.13622316618408       -1.14308951901711
C            7.85868342459638        0.06211225364772       -1.15268911667500
C            7.16994875442932       -0.16055224964469        0.03341354400374
N            5.74954536615636       -0.23584126111682        0.02692666660507
C            5.00170086541765        0.87841810933076        0.39396482894366
C            5.62065143525961        2.06758309692128        0.75028940167756
C            4.87493911247792        3.16947629690418        1.14976771027543
C            3.50179002074744        3.08037338820608        1.20774032720249
C            2.86812772723003        1.89950545497193        0.83916785244135
C            3.59650652309655        0.80206594754079        0.40578791374070
N            2.96633193785212       -0.38289946496798        0.01596904103664
C            1.55500972091868       -0.45033041828874        0.00368675356124
C            0.87989787618437       -1.29244655081633        0.88457083553310
C           -0.49828838997425       -1.33888447810226        0.87937814341348
C           -1.23488626363039       -0.53599305040748        0.00658826048118
C           -2.68612245079121       -0.61351049396628        0.05762791456361
N           -3.33804788147524       -1.72867738117605        0.28168532519479
C           -4.65765588160033       -1.40181397329532        0.25004338112672
C           -5.77471130439238       -2.27090752123567        0.40016022597567
C           -5.60440398368378       -3.64583554607396        0.59737386970818
C           -6.69507367573814       -4.47150209597535        0.71222872109023
C           -7.97588687289940       -3.92822739580484        0.62814601162809
C           -8.15521946757158       -2.57755235402617        0.43919485835219
C           -7.06586713899838       -1.69936179970521        0.32501499117947
C           -7.22292499018752       -0.26397828728476        0.15900666306116
C           -8.48829776263550        0.34121160129209        0.15487750116698
C           -8.64662745052274        1.70249162422265        0.04196092087875
C           -7.53163286038497        2.52887478747745       -0.05878674701747
C           -6.27473447927397        1.97571296827090       -0.06763308875360
C           -6.09194902561920        0.58787433882846        0.02050701472410
C           -4.81195123927981       -0.03624196989101        0.01636947925748
N           -3.53323022961757        0.45745714287459       -0.11877167287574
C           -3.11277541667551        1.78208103391760       -0.36977320774510
C           -2.36263732630653        2.45663067949840        0.58609679409416
C           -1.91517303622822        3.73981796523493        0.32472148509354
C           -2.21324949956659        4.34971191575081       -0.88264098307878
C           -2.96115133276043        3.67516621417355       -1.83491323434997
C           -3.40972511793499        2.39073256887580       -1.58571122640957
C           -0.55423759841430        0.28341150132961       -0.89332156276237
C            0.82532139816860        0.32482942828448       -0.89338203471105
C            3.72047423929328       -1.49594611888495       -0.36610456215791
C            3.11454803310859       -2.66455000082552       -0.80150809037578
C            3.87199151401861       -3.77225955353896       -1.16338144890776
C            5.24659368102611       -3.71537870199861       -1.09696965652604
C            5.86926824455439       -2.54043465423137       -0.69503099235397
C            5.12568883975365       -1.42339359288957       -0.34411332063511
C            7.86826466959553       -0.30799688309236        1.22566421640713
C            9.25012860406631       -0.23123109689749        1.22832343683724
H           11.01509058956514        0.04968067787605        0.05057721762263
H            9.77404875717867        0.31029739363762       -2.06587228796372
H            7.30540090284556        0.17379707167765       -2.07378286846144
H            6.69711283765973        2.13435591292437        0.71830488234378
H            5.38108727978316        4.08356236390570        1.42103432688691
H            2.90785114382723        3.91992199983430        1.53560177540040
H            1.79253127846392        1.83783130667752        0.89405588751890
H            1.44468853308956       -1.90305830396708        1.57346447545879
H           -1.02992240216096       -1.98716470607038        1.55871037584671
H           -4.59588192302854       -4.02735883099775        0.64821134054414
H           -6.56616317035868       -5.53328149447307        0.86321790293516
H           -8.83790701593873       -4.57449121882385        0.71178182081558
H           -9.16473875622047       -2.20342244877801        0.37786704772091
H           -9.37309088988511       -0.26676366273203        0.25195353333570
H           -9.63805004296906        2.13128975623980        0.04342799775305
H           -7.65212122084921        3.60009402764727       -0.12557541594638
H           -5.41276166998339        2.62030230700493       -0.12958789199327
H           -2.13465793585249        1.97046734188784        1.52342574377847
H           -1.33257213838462        4.26270488446096        1.06800721361413
H           -1.86210558531903        5.35045745624653       -1.08310878576791
H           -3.19297654753415        4.14694809515171       -2.77788521101018
H           -3.99031364846390        1.85333083816354       -2.32184314988783
H           -1.09871741352072        0.87299222355301       -1.61431546409149
H            1.34860034511680        0.95975302987309       -1.59305685285053
H            2.03883552974389       -2.71729296899664       -0.86412117800980
H            3.37188667319310       -4.67060364111508       -1.49217167336077
H            5.84802512652163       -4.57123840454527       -1.36333485814152
H            6.94664286235060       -2.49326293757892       -0.65703469051663
H            7.32255074774625       -0.47985825315674        2.14199176310997
H            9.79117795225997       -0.34667033474735        2.15585399185138

          :  Hamiltonian                  GFN2-xTB          :
         :: gradient norm              0.000068010741 Eh/a0 ::
         :: HOMO-LUMO gap              1.615317190590 eV    ::
         :: SCC energy              -125.778428832645 Eh    ::
         :: -> dispersion             -0.116507739335 Eh    ::
         :: -> Gsolv                  -0.050898740842 Eh    ::
         :: repulsion energy           2.297461404959 Eh    ::

    * Orbital Energies and Occupations

         #    Occupation            Energy/Eh            Energy/eV
      -------------------------------------------------------------
         1        2.0000           -0.6901388             -18.7796
       ...           ...                  ...                  ...
       103        2.0000           -0.4148804             -11.2895
       104        2.0000           -0.4138759             -11.2621
       105        2.0000           -0.4101422             -11.1605
       106        2.0000           -0.4086798             -11.1207
       107        2.0000           -0.4072804             -11.0827
       108        2.0000           -0.4056439             -11.0381
       109        2.0000           -0.4025450             -10.9538
       110        2.0000           -0.3998654             -10.8809
       111        2.0000           -0.3837490             -10.4423
       112        2.0000           -0.3813021             -10.3758
       113        2.0000           -0.3748856             -10.2012
       114        2.0000           -0.3665500              -9.9743
       115        2.0000           -0.3234030              -8.8002 (HOMO)
       116                         -0.2640412              -7.1849 (LUMO)
       117                         -0.2519910              -6.8570
       118                         -0.2451400              -6.6706
       119                         -0.2415433              -6.5727
       120                         -0.2405928              -6.5469
       121                         -0.2345596              -6.3827
       122                         -0.2341844              -6.3725
       123                         -0.2328346              -6.3358
       124                         -0.2283048              -6.2125
       125                         -0.2201448              -5.9904
       126                         -0.2135303              -5.8105
       ...                                ...                  ...
       226                          0.7240586              19.7026
      -------------------------------------------------------------
                  HL-Gap            0.0593618 Eh            1.6153 eV

     #   Z          covCN         q      C6AA      α(0)
     1   6 C        2.919    -0.030    28.756     8.794
     2   6 C        2.920    -0.028    28.697     8.785
     3   6 C        2.922    -0.038    28.948     8.823
     4   6 C        2.924     0.068    26.473     8.438
     5   7 N        2.753    -0.085    22.900     7.107
     6   6 C        2.926     0.051    26.852     8.498
     7   6 C        2.923    -0.064    29.595     8.921
     8   6 C        2.918    -0.044    29.089     8.844
     9   6 C        2.918    -0.045    29.116     8.848
    10   6 C        2.923    -0.064    29.586     8.920
    11   6 C        2.924     0.048    26.917     8.508
    12   7 N        2.751    -0.081    22.823     7.095
    13   6 C        2.923     0.069    26.461     8.436
    14   6 C        2.920    -0.039    28.970     8.826
    15   6 C        2.927    -0.028    28.711     8.787
    16   6 C        2.973    -0.003    28.104     8.696
    17   6 C        3.193     0.135    24.592     8.087
    18   7 N        1.894    -0.317    29.060     7.992
    19   6 C        3.206     0.060    26.086     8.318
    20   6 C        2.985    -0.003    28.090     8.694
    21   6 C        2.921    -0.033    28.833     8.806
    22   6 C        2.917    -0.032    28.790     8.799
    23   6 C        2.917    -0.034    28.850     8.808
    24   6 C        2.921    -0.036    28.906     8.817
    25   6 C        2.979    -0.005    28.134     8.701
    26   6 C        2.979    -0.001    28.054     8.688
    27   6 C        2.922    -0.035    28.872     8.812
    28   6 C        2.916    -0.034    28.845     8.807
    29   6 C        2.917    -0.032    28.808     8.801
    30   6 C        2.919    -0.041    29.026     8.835
    31   6 C        2.978    -0.005    28.140     8.701
    32   6 C        3.074     0.022    27.444     8.589
    33   7 N        2.840    -0.053    22.264     7.008
    34   6 C        2.913     0.066    26.529     8.446
    35   6 C        2.921    -0.038    28.953     8.824
    36   6 C        2.920    -0.025    28.620     8.773
    37   6 C        2.919    -0.028    28.706     8.786
    38   6 C        2.920    -0.026    28.651     8.778
    39   6 C        2.921    -0.037    28.923     8.819
    40   6 C        2.921    -0.035    28.876     8.812
    41   6 C        2.921    -0.040    28.999     8.831
    42   6 C        2.924     0.048    26.913     8.507
    43   6 C        2.923    -0.063    29.578     8.919
    44   6 C        2.918    -0.044    29.104     8.847
    45   6 C        2.918    -0.044    29.083     8.843
    46   6 C        2.923    -0.064    29.590     8.921
    47   6 C        2.926     0.051    26.857     8.499
    48   6 C        2.921    -0.038    28.947     8.823
    49   6 C        2.920    -0.028    28.697     8.785
    50   1 H        0.926     0.042     2.417     2.431
    51   1 H        0.926     0.043     2.415     2.430
    52   1 H        0.926     0.041     2.442     2.444
    53   1 H        0.926     0.026     2.637     2.539
    54   1 H        0.926     0.027     2.627     2.535
    55   1 H        0.926     0.027     2.629     2.536
    56   1 H        0.926     0.026     2.644     2.543
    57   1 H        0.926     0.048     2.348     2.396
    58   1 H        0.926     0.052     2.297     2.370
    59   1 H        0.926     0.043     2.403     2.424
    60   1 H        0.926     0.033     2.548     2.496
    61   1 H        0.926     0.032     2.554     2.499
    62   1 H        0.926     0.035     2.516     2.481
    63   1 H        0.926     0.037     2.485     2.465
    64   1 H        0.926     0.033     2.544     2.494
    65   1 H        0.926     0.032     2.556     2.500
    66   1 H        0.926     0.030     2.587     2.515
    67   1 H        0.926     0.037     2.483     2.464
    68   1 H        0.926     0.047     2.353     2.399
    69   1 H        0.926     0.048     2.339     2.392
    70   1 H        0.926     0.048     2.341     2.393
    71   1 H        0.926     0.042     2.417     2.431
    72   1 H        0.926     0.037     2.489     2.467
    73   1 H        0.926     0.046     2.376     2.411
    74   1 H        0.926     0.027     2.624     2.533
    75   1 H        0.926     0.027     2.630     2.536
    76   1 H        0.926     0.027     2.626     2.534
    77   1 H        0.926     0.027     2.633     2.538
    78   1 H        0.926     0.041     2.441     2.443
    79   1 H        0.926     0.043     2.414     2.430

molecular dipole:
                 x           y           z       tot (Debye)
 q only:        0.890       1.314      -0.228
   full:        0.729       1.626      -0.288       4.588

 projected vibrational frequencies (cm⁻¹)
eigval :       -0.00    -0.00    -0.00     0.00     0.00     0.00
eigval :      -17.72     5.72    14.38    15.37    19.77    28.75
eigval :       41.37    44.83    46.33    56.56    61.95    72.69
eigval :       76.32    85.84    92.22   106.70   115.29   124.85
eigval :      162.62   165.81   181.57   204.20   218.62   221.72
eigval :      233.99   243.53   246.24   251.53   260.33   266.53
eigval :      300.18   308.02   345.92   372.53   376.45   377.25
eigval :      380.13   387.72   394.87   397.45   402.78   409.09
eigval :      416.42   427.99   428.48   436.74   446.64   451.23
eigval :      473.14   478.56   493.02   508.56   512.81   517.70
eigval :      523.79   529.35   533.55   583.69   586.88   587.53
eigval :      590.05   592.67   595.23   606.30   632.74   638.42
eigval :      645.14   653.13   655.55   657.54   667.51   671.77
eigval :      675.87   681.23   683.88   699.65   704.73   720.80
eigval :      734.77   743.31   760.33   761.42   763.33   765.05
eigval :      768.81   780.88   793.38   820.19   847.86   853.77
eigval :      860.06   873.07   873.73   873.85   874.58   883.05
eigval :      885.91   887.03   898.29   901.82   902.40   905.45
eigval :      905.68   906.74   910.67   912.83   922.24   922.60
eigval :      925.73   926.88   927.65   928.53   931.10   931.46
eigval :      938.77   944.91   955.78   992.16   997.17  1015.97
eigval :     1029.44  1067.79  1076.90  1077.46  1085.27  1106.60
eigval :     1107.73  1109.66  1112.28  1112.89  1120.74  1126.59
eigval :     1130.82  1134.13  1151.27  1172.19  1175.78  1178.82
eigval :     1179.23  1179.74  1180.25  1180.74  1183.88  1184.33
eigval :     1186.38  1194.15  1207.63  1217.78  1235.54  1252.49
eigval :     1255.58  1259.34  1261.96  1270.15  1272.06  1273.72
eigval :     1281.74  1291.59  1303.18  1307.60  1310.72  1311.05
eigval :     1313.58  1318.85  1331.52  1336.76  1346.85  1362.42
eigval :     1367.91  1371.27  1403.95  1405.94  1416.89  1423.08
eigval :     1428.90  1430.58  1431.04  1434.97  1436.89  1462.73
eigval :     1469.56  1477.17  1493.30  1511.09  1512.41  1515.17
eigval :     1540.42  1553.53  1555.60  1562.13  1567.23  1577.58
eigval :     1581.07  1581.58  1582.16  1590.19  1591.11  1593.01
eigval :     1593.32  1597.21  1603.11  3070.18  3073.81  3076.14
eigval :     3077.54  3077.98  3078.07  3079.17  3080.27  3081.39
eigval :     3084.09  3084.65  3085.63  3086.52  3087.00  3087.31
eigval :     3087.57  3088.38  3092.47  3096.16  3096.88  3098.21
eigval :     3099.35  3100.03  3101.29  3101.70  3103.20  3103.62
eigval :     3106.22  3109.65  3116.43

   temp. (K)  partition function   enthalpy   heat capacity  entropy
                                   cal/mol     cal/K/mol   cal/K/mol   J/K/mol
 298.15  VIB  0.108E+19            22171.508    140.815    138.660
         ROT  0.909E+08              888.752      2.981     39.398
         INT  0.980E+26            23060.260    143.796    178.058
         TR   0.152E+29             1481.254      4.968     45.168
         TOT                       24541.5143   148.7638   223.2266   933.9802

       T/K    H(0)-H(T)+PV         H(T)/Eh          T*S/Eh         G(T)/Eh
   ------------------------------------------------------------------------
    298.15    0.391094E-01    0.645087E+00    0.106062E+00    0.539025E+00
   ------------------------------------------------------------------------

         :::::::::::::::::::::::::::::::::::::::::::::::::::::
         ::                  THERMODYNAMIC                  ::
         :::::::::::::::::::::::::::::::::::::::::::::::::::::
         :: total free energy        -122.941942570980 Eh   ::
         ::.................................................::
         :: total energy             -123.480967425986 Eh   ::
         :: zero point energy           0.605977634721 Eh   ::
         :: G(RRHO) w/o ZPVE           -0.066952779715 Eh   ::
         :: G(RRHO) contrib.            0.539024855005 Eh   ::
         :::::::::::::::::::::::::::::::::::::::::::::::::::::

           -------------------------------------------------
          | TOTAL ENERGY             -123.480967425986 Eh   |
          | TOTAL ENTHALPY           -122.835880398832 Eh   |
          | TOTAL FREE ENERGY        -122.941942570980 Eh   |
          | GRADIENT NORM               0.000068013747 Eh/α |
          | HOMO-LUMO GAP               1.615316728955 eV   |
           -------------------------------------------------

 * finished run on 2025/09/04 at 10:07:43.252
