   * xtb version 6.7.1 (edcfbbe) compiled by 'albert@albert-system' on 2024-07-22

   ID    Z sym.   atoms
    1    6 C      1-4, 6-11, 13-17, 19-32, 34-49
    2    7 N      5, 12, 18, 33
    3    1 H      50-79

          program call               : xtb data2507/toluene/PPZPPI/PPZPPI_toluene_S0_finalOpt.xtbopt.xyz --gfn 2 --uhf 2 --gbsa toluene --ohess vtight --parallel 40 --molden --ceasefiles --namespace data2507/toluene/PPZPPI/PPZPPI_toluene_T1_preOpt
      * Solvation model:               GBSA
        Solvent                        toluene
        Solvent mass                       9.2140E+01 g/mol
          :  Hamiltonian                  GFN2-xTB          :
 * total energy  :  -123.3960792 Eh     change       -0.2243041E-09 Eh
 * total energy  :  -123.4004379 Eh     change       -0.4358695E-02 Eh
 * total energy  :  -123.4017813 Eh     change       -0.1343435E-02 Eh
 * total energy  :  -123.4020296 Eh     change       -0.2482611E-03 Eh
 * total energy  :  -123.4025329 Eh     change       -0.5032633E-03 Eh
 * total energy  :  -123.4029066 Eh     change       -0.3737121E-03 Eh
 * total energy  :  -123.4032392 Eh     change       -0.3326386E-03 Eh
 * total energy  :  -123.4033993 Eh     change       -0.1600576E-03 Eh
 * total energy  :  -123.4034883 Eh     change       -0.8906404E-04 Eh
 * total energy  :  -123.4035426 Eh     change       -0.5427161E-04 Eh
 * total energy  :  -123.4042438 Eh     change       -0.8450146E-06 Eh
 * total energy  :  -123.4042451 Eh     change       -0.1323669E-05 Eh
 * total energy  :  -123.4042467 Eh     change       -0.1558390E-05 Eh
 * total energy  :  -123.4042475 Eh     change       -0.8658682E-06 Eh
 * total energy  :  -123.4042479 Eh     change       -0.4131880E-06 Eh
 * total energy  :  -123.4042482 Eh     change       -0.2161628E-06 Eh
 * total energy  :  -123.4042484 Eh     change       -0.2427317E-06 Eh
 * total energy  :  -123.4042488 Eh     change       -0.4065550E-06 Eh
 * total energy  :  -123.4042488 Eh     change       -0.5181306E-08 Eh
   *** GEOMETRY OPTIMIZATION CONVERGED AFTER 122 ITERATIONS ***

 final structure:
================
79
 xtb: 6.7.1 (edcfbbe)
C           10.09600470768811       -0.34154852511214        0.16428898834674
C            9.43071662826645       -0.01906166809429       -1.00752244637592
C            8.04694181455510       -0.00562892644191       -1.04029538167417
C            7.33148413542975       -0.31801872296859        0.10824275543014
N            5.90485670461655       -0.30582563340303        0.07982439769769
C            5.22312729876842        0.80731009167659        0.52970748942179
C            5.91013364084555        1.92805322245058        0.99294101344490
C            5.22482310518366        3.01734613486641        1.49691126802672
C            3.83979827560678        2.98997370390581        1.56854118905322
C            3.14124074717684        1.89526330697521        1.09805911967321
C            3.80941375200832        0.80443738589685        0.53827502925576
N            3.11803654194857       -0.28614880389171        0.03511092268687
C            1.70917984855964       -0.28274984179478        0.02862476405487
C            0.98378979314994       -1.27215996745013        0.72453693534189
C           -0.37760011129220       -1.24420372302019        0.74310677760859
C           -1.11817569362445       -0.22528752250475        0.07015625189055
C           -2.51928258344484       -0.27054671051374        0.15938131152287
N           -3.17047677300994       -1.37824909823529        0.55888731010864
C           -4.47084462148092       -1.12819773843943        0.41967088409680
C           -5.55356923431278       -2.02913603171650        0.65105029133042
C           -5.31731879357240       -3.35272502170774        1.02748971857067
C           -6.36474876890717       -4.23016336455956        1.20128184412117
C           -7.66444705644390       -3.78441449188034        0.98514107983694
C           -7.91070897740332       -2.47796591382020        0.62161605347538
C           -6.87054077548991       -1.54969319402310        0.45387315730363
C           -7.09717594350385       -0.15880600130641        0.11512093452597
C           -8.38776332892464        0.37402086853757        0.03583356423386
C           -8.62392888584435        1.70196835623914       -0.24126292581613
C           -7.54820729908812        2.57259935094101       -0.43329708722202
C           -6.26708219944727        2.09671927465744       -0.37215756659933
C           -5.99417195019139        0.73275416700191       -0.12006356169685
C           -4.69749397737204        0.19525291089179       -0.03561056235717
N           -3.43743184875753        0.73631536595338       -0.20797530790995
C           -3.09732724159053        2.04387723000434       -0.57292365455983
C           -2.35149656353969        2.83812467673536        0.30094192599314
C           -1.99213026566705        4.11971124218068       -0.06748802502178
C           -2.36780706246763        4.62546647264131       -1.30311350266240
C           -3.10868847904436        3.83880834057334       -2.17405047105881
C           -3.47227093907379        2.55493412160938       -1.81763159569516
C           -0.36616561465631        0.72529282071718       -0.67894391238579
C            0.99938980869784        0.69837727282122       -0.68507354118155
C            3.81024348984654       -1.38075427717475       -0.45754282247236
C            3.14422606828407       -2.45458049346967       -1.05173449335446
C            3.84133477612710       -3.55633056828861       -1.50740662662147
C            5.22240040743654       -3.60764243995618       -1.38595353194744
C            5.90733633295717       -2.53397129478872       -0.84880851806963
C            5.22256375751055       -1.40569924619553       -0.40114980923099
C            7.99437610266675       -0.64209434392200        1.28465333347179
C            9.37839545949657       -0.65230561390811        1.30803600119108
H           11.17516406021083       -0.35079629533908        0.18597654214379
H            9.98878466879579        0.22387011160853       -1.89898774740140
H            7.51724090292392        0.24436054243996       -1.94748816690747
H            6.98782062159136        1.93665619026082        0.96107595476924
H            5.77312083292554        3.87662486152173        1.84948376468991
H            3.29927222484585        3.82112185503584        1.99353739361564
H            2.06597810496494        1.87500320164364        1.16669057523979
H            1.52322853069782       -2.03168086714292        1.27240424784495
H           -0.94114101182090       -1.98178348119865        1.29172668897751
H           -4.29230153175754       -3.66130214869099        1.16811053724930
H           -6.18136055459884       -5.25396816824208        1.49301252289069
H           -8.49316499095478       -4.46850668215188        1.10380088802650
H           -8.93514777489522       -2.18118024105930        0.45932336447084
H           -9.23987598588519       -0.26458793743997        0.20939150952076
H           -9.63709697676776        2.07299845943969       -0.29310995273119
H           -7.72795765460419        3.62145943620237       -0.62251286657948
H           -5.44378004029339        2.78149667643815       -0.49587407032103
H           -2.06331991197989        2.43490676731158        1.26102247244521
H           -1.41961228993789        4.73016545373051        0.61537373064550
H           -2.08463681049341        5.62752415620611       -1.58771731087647
H           -3.39935763776880        4.22586970625004       -3.13985568029940
H           -4.04407737927996        1.93385467888055       -2.49271817307980
H           -0.87622697527109        1.44760355522298       -1.29444366589628
H            1.54980244044046        1.41631670818874       -1.27718098346396
H            2.07253874944803       -2.41538568617764       -1.15875765932573
H            3.30267707750767       -4.37445956249858       -1.95920989754453
H            5.76849194726312       -4.47364691692470       -1.72521988811247
H            6.98292657357308       -2.56078076032331       -0.77864816074832
H            7.42420932867122       -0.88241963412054        2.16962566097343
H            9.89546990900537       -0.90420778782733        2.22146836164157

          :  Hamiltonian                  GFN2-xTB          :
         :: gradient norm              0.000070496646 Eh/a0 ::
         :: HOMO-LUMO gap              0.211222483143 eV    ::
         :: SCC energy              -125.685233538273 Eh    ::
         :: -> dispersion             -0.116351742689 Eh    ::
         :: -> Gsolv                  -0.057364784150 Eh    ::
         :: repulsion energy           2.280984717043 Eh    ::

    * Orbital Energies and Occupations

         #    Occupation            Energy/Eh            Energy/eV
      -------------------------------------------------------------
         1        2.0000           -0.7012126             -19.0810
       ...           ...                  ...                  ...
       104        2.0000           -0.4099331             -11.1548
       105        2.0000           -0.4075305             -11.0895
       106        2.0000           -0.4070230             -11.0757
       107        2.0000           -0.4010594             -10.9134
       108        2.0000           -0.3986261             -10.8472
       109        2.0000           -0.3973288             -10.8119
       110        2.0000           -0.3873725             -10.5409
       111        2.0000           -0.3858074             -10.4984
       112        2.0000           -0.3709327             -10.0936
       113        2.0000           -0.3636200              -9.8946
       114        1.9962           -0.3506882              -9.5427
       115        1.0038           -0.3401258              -9.2553
       116        0.9835           -0.2606990              -7.0940 (HOMO)
       117        0.0165           -0.2529370              -6.8828 (LUMO)
       118        0.0000           -0.2456058              -6.6833
       119        0.0000           -0.2428413              -6.6080
       120                         -0.2404234              -6.5423
       121                         -0.2394174              -6.5149
       122                         -0.2357131              -6.4141
       123                         -0.2277283              -6.1968
       124                         -0.2263703              -6.1598
       125                         -0.2209560              -6.0125
       126                         -0.2131550              -5.8002
       127                         -0.2063037              -5.6138
       ...                                ...                  ...
       226                          0.7386943              20.1009
      -------------------------------------------------------------
                  HL-Gap            0.0077619 Eh            0.2112 eV

     #   Z          covCN         q      C6AA      α(0)
     1   6 C        2.919    -0.026    28.648     8.777
     2   6 C        2.920    -0.024    28.607     8.771
     3   6 C        2.921    -0.035    28.879     8.813
     4   6 C        2.927     0.060    26.663     8.468
     5   7 N        2.754    -0.033    21.872     6.946
     6   6 C        2.929     0.052    26.842     8.496
     7   6 C        2.921    -0.053    29.325     8.880
     8   6 C        2.917    -0.031    28.770     8.796
     9   6 C        2.917    -0.032    28.793     8.799
    10   6 C        2.920    -0.049    29.225     8.865
    11   6 C        2.929     0.050    26.883     8.503
    12   7 N        2.750    -0.015    21.536     6.892
    13   6 C        2.924     0.023    27.491     8.598
    14   6 C        2.911    -0.045    29.113     8.848
    15   6 C        2.925    -0.042    29.047     8.838
    16   6 C        2.967    -0.021    28.538     8.763
    17   6 C        3.134     0.121    25.139     8.207
    18   7 N        1.881    -0.340    29.690     8.077
    19   6 C        3.168     0.075    25.982     8.329
    20   6 C        2.983    -0.011    28.272     8.722
    21   6 C        2.922    -0.035    28.862     8.810
    22   6 C        2.916    -0.039    28.963     8.825
    23   6 C        2.917    -0.035    28.878     8.812
    24   6 C        2.921    -0.041    29.029     8.835
    25   6 C        2.977    -0.007    28.194     8.710
    26   6 C        2.977    -0.014    28.350     8.734
    27   6 C        2.920    -0.037    28.927     8.820
    28   6 C        2.915    -0.044    29.105     8.847
    29   6 C        2.914    -0.038    28.949     8.823
    30   6 C        2.917    -0.045    29.121     8.849
    31   6 C        2.973    -0.020    28.495     8.756
    32   6 C        3.032     0.029    27.317     8.573
    33   7 N        2.816    -0.085    22.885     7.105
    34   6 C        2.909     0.066    26.511     8.443
    35   6 C        2.921    -0.043    29.062     8.840
    36   6 C        2.918    -0.030    28.749     8.793
    37   6 C        2.919    -0.039    28.964     8.825
    38   6 C        2.918    -0.031    28.781     8.798
    39   6 C        2.920    -0.042    29.055     8.839
    40   6 C        2.914    -0.052    29.284     8.874
    41   6 C        2.912    -0.044    29.084     8.843
    42   6 C        2.929     0.050    26.882     8.503
    43   6 C        2.920    -0.049    29.217     8.864
    44   6 C        2.917    -0.032    28.786     8.798
    45   6 C        2.917    -0.031    28.764     8.795
    46   6 C        2.920    -0.053    29.324     8.880
    47   6 C        2.929     0.052    26.843     8.497
    48   6 C        2.921    -0.035    28.878     8.812
    49   6 C        2.920    -0.024    28.606     8.771
    50   1 H        0.926     0.049     2.328     2.386
    51   1 H        0.926     0.050     2.314     2.379
    52   1 H        0.926     0.048     2.341     2.393
    53   1 H        0.926     0.048     2.342     2.393
    54   1 H        0.926     0.048     2.341     2.393
    55   1 H        0.926     0.046     2.370     2.408
    56   1 H        0.926     0.050     2.322     2.383
    57   1 H        0.926     0.032     2.559     2.502
    58   1 H        0.926     0.041     2.433     2.439
    59   1 H        0.926     0.038     2.480     2.462
    60   1 H        0.926     0.026     2.638     2.540
    61   1 H        0.926     0.026     2.641     2.541
    62   1 H        0.926     0.026     2.638     2.540
    63   1 H        0.926     0.025     2.652     2.546
    64   1 H        0.926     0.020     2.727     2.582
    65   1 H        0.926     0.020     2.737     2.587
    66   1 H        0.926     0.020     2.728     2.583
    67   1 H        0.926     0.029     2.603     2.523
    68   1 H        0.926     0.037     2.488     2.467
    69   1 H        0.926     0.036     2.503     2.474
    70   1 H        0.926     0.035     2.515     2.480
    71   1 H        0.926     0.030     2.585     2.514
    72   1 H        0.926     0.019     2.741     2.589
    73   1 H        0.926     0.029     2.601     2.522
    74   1 H        0.926     0.051     2.311     2.377
    75   1 H        0.926     0.046     2.364     2.404
    76   1 H        0.926     0.049     2.338     2.391
    77   1 H        0.926     0.048     2.341     2.393
    78   1 H        0.926     0.048     2.339     2.392
    79   1 H        0.926     0.051     2.313     2.378

molecular dipole:
                 x           y           z       tot (Debye)
 q only:        7.564       0.450      -0.201
   full:        7.219       0.786      -0.333      18.478

 projected vibrational frequencies (cm⁻¹)
eigval :       -0.00    -0.00    -0.00     0.00     0.00     0.00
eigval :        5.48    11.04    12.53    20.98    30.32    33.84
eigval :       43.76    45.42    56.77    61.98    67.14    75.49
eigval :       76.22    86.16    98.55   107.87   120.75   134.60
eigval :      163.99   170.12   184.62   203.51   213.01   223.40
eigval :      235.60   240.71   244.59   251.66   262.00   272.60
eigval :      302.44   304.95   332.57   370.81   372.01   380.01
eigval :      381.15   390.06   391.72   398.90   403.51   406.64
eigval :      414.09   421.91   426.22   436.26   443.06   451.77
eigval :      461.44   484.81   490.18   490.79   498.81   500.74
eigval :      521.15   525.80   530.80   575.19   582.36   584.38
eigval :      587.92   592.20   593.33   599.17   606.93   626.26
eigval :      633.31   642.21   645.75   657.37   664.81   664.93
eigval :      668.65   670.00   672.50   674.51   693.49   715.76
eigval :      721.27   735.25   751.22   757.26   763.40   765.42
eigval :      769.51   771.59   788.93   790.62   829.67   848.28
eigval :      857.59   861.14   861.40   870.04   876.92   885.50
eigval :      887.68   889.92   891.83   892.68   894.20   902.61
eigval :      905.03   905.35   905.75   908.71   909.12   914.29
eigval :      917.40   920.07   921.20   922.51   928.48   930.25
eigval :      932.76   935.18   938.69   977.05   984.60   993.99
eigval :     1001.84  1051.68  1074.78  1076.93  1081.50  1093.04
eigval :     1098.87  1100.06  1101.14  1113.90  1115.59  1127.29
eigval :     1128.36  1131.20  1136.13  1158.96  1169.59  1175.56
eigval :     1176.13  1178.24  1179.16  1180.21  1181.27  1183.32
eigval :     1185.50  1198.09  1202.47  1209.01  1233.97  1237.23
eigval :     1247.90  1250.42  1252.99  1254.65  1271.09  1275.63
eigval :     1279.58  1281.13  1295.91  1308.12  1310.69  1315.33
eigval :     1316.30  1318.36  1326.36  1331.04  1334.99  1342.47
eigval :     1346.71  1360.56  1379.19  1390.22  1393.49  1406.74
eigval :     1411.51  1422.12  1429.64  1429.91  1431.29  1433.30
eigval :     1436.65  1450.81  1461.81  1466.01  1468.21  1473.09
eigval :     1487.51  1505.51  1521.80  1528.95  1535.70  1539.34
eigval :     1543.34  1546.12  1560.81  1561.66  1568.92  1578.34
eigval :     1581.46  1588.31  1590.84  3062.42  3064.08  3065.72
eigval :     3070.08  3071.60  3073.44  3074.23  3075.62  3081.24
eigval :     3083.71  3084.40  3085.90  3088.44  3091.12  3093.86
eigval :     3094.15  3094.54  3095.68  3096.18  3098.75  3102.07
eigval :     3102.57  3102.80  3107.43  3112.47  3112.77  3116.17
eigval :     3116.77  3118.21  3118.77

   temp. (K)  partition function   enthalpy   heat capacity  entropy
                                   cal/mol     cal/K/mol   cal/K/mol   J/K/mol
 298.15  VIB  0.542E+18            22253.855    142.807    138.823
         ROT  0.931E+08              888.752      2.981     39.445
         INT  0.504E+26            23142.607    145.788    178.268
         TR   0.152E+29             1481.254      4.968     45.168
         TOT                       24623.8613   150.7557   223.4366   934.8586

       T/K    H(0)-H(T)+PV         H(T)/Eh          T*S/Eh         G(T)/Eh
   ------------------------------------------------------------------------
    298.15    0.392406E-01    0.641660E+00    0.106162E+00    0.535498E+00
   ------------------------------------------------------------------------

         :::::::::::::::::::::::::::::::::::::::::::::::::::::
         ::                  THERMODYNAMIC                  ::
         :::::::::::::::::::::::::::::::::::::::::::::::::::::
         :: total free energy        -122.868750476222 Eh   ::
         ::.................................................::
         :: total energy             -123.404248827805 Eh   ::
         :: zero point energy           0.602419651649 Eh   ::
         :: G(RRHO) w/o ZPVE           -0.066921300066 Eh   ::
         :: G(RRHO) contrib.            0.535498351583 Eh   ::
         :::::::::::::::::::::::::::::::::::::::::::::::::::::

           -------------------------------------------------
          | TOTAL ENERGY             -123.404248827805 Eh   |
          | TOTAL ENTHALPY           -122.762588555414 Eh   |
          | TOTAL FREE ENERGY        -122.868750476222 Eh   |
          | GRADIENT NORM               0.000070464607 Eh/α |
          | HOMO-LUMO GAP               0.211212994709 eV   |
           -------------------------------------------------

 * finished run on 2025/09/04 at 10:12:19.074
