   * xtb version 6.7.1 (edcfbbe) compiled by 'albert@albert-system' on 2024-07-22

   ID    Z sym.   atoms
    1    6 C      1-9, 11-15, 17-19, 21-34, 36-56
    2    7 N      10, 20, 35
    3    8 O      16
    4    1 H      57-93

          program call               : xtb data2507/toluene/DCPDAPM/DCPDAPM_toluene_S0_finalOpt.xtbopt.xyz --gfn 2 --uhf 2 --gbsa toluene --ohess vtight --parallel 40 --molden --ceasefiles --namespace data2507/toluene/DCPDAPM/DCPDAPM_toluene_T1_preOpt
      * Solvation model:               GBSA
        Solvent                        toluene
        Solvent mass                       9.2140E+01 g/mol
          :  Hamiltonian                  GFN2-xTB          :
 * total energy  :  -143.1202288 Eh     change       -0.1323741E-08 Eh
 * total energy  :  -143.1235819 Eh     change       -0.3353162E-02 Eh
 * total energy  :  -143.1244796 Eh     change       -0.8976503E-03 Eh
 * total energy  :  -143.1246778 Eh     change       -0.1981645E-03 Eh
 * total energy  :  -143.1248736 Eh     change       -0.1958498E-03 Eh
 * total energy  :  -143.1250482 Eh     change       -0.1745862E-03 Eh
 * total energy  :  -143.1252194 Eh     change       -0.1711608E-03 Eh
 * total energy  :  -143.1253237 Eh     change       -0.1043295E-03 Eh
 * total energy  :  -143.1253766 Eh     change       -0.5294958E-04 Eh
 * total energy  :  -143.1254192 Eh     change       -0.4257356E-04 Eh
 * total energy  :  -143.1267714 Eh     change       -0.2871145E-06 Eh
 * total energy  :  -143.1267718 Eh     change       -0.3648176E-06 Eh
 * total energy  :  -143.1267722 Eh     change       -0.4284790E-06 Eh
 * total energy  :  -143.1267726 Eh     change       -0.4466316E-06 Eh
 * total energy  :  -143.1267731 Eh     change       -0.4428625E-06 Eh
 * total energy  :  -143.1267735 Eh     change       -0.4558882E-06 Eh
 * total energy  :  -143.1267741 Eh     change       -0.5128526E-06 Eh
 * total energy  :  -143.1267747 Eh     change       -0.6053396E-06 Eh
 * total energy  :  -143.1267747 Eh     change       -0.1531305E-08 Eh
   *** GEOMETRY OPTIMIZATION CONVERGED AFTER 122 ITERATIONS ***

 final structure:
================
93
 xtb: 6.7.1 (edcfbbe)
C            5.88120492568654        0.59952743014551       -1.58242062109106
C            6.96634285671399        0.02903386478064       -0.64472545633241
C            8.29606448387814        0.69643402166023       -0.99787126170085
C            6.55666414852394        0.27750400261694        0.79572326024962
C            7.12550775157998        1.23377946136084        1.62088937392338
C            6.70172709168922        1.38853674645734        2.93173513381640
C            5.71929044483761        0.56110276375719        3.44903071410456
C            5.13777400415651       -0.40090804380717        2.64581361410209
C            5.52599729621967       -0.52016570658423        1.31348323639876
N            4.98054885786261       -1.51042120672444        0.47989925332282
C            3.62216287004285       -1.69452190767237        0.29605146047412
C            2.67978738080685       -0.88869268793025        0.96524516565747
C            1.33295812823720       -1.06100079922118        0.77305010641730
C            0.83703663312138       -2.00874101410532       -0.14115802640838
C           -0.58617993425557       -2.25625780360016       -0.34138561203295
O           -0.95678035777194       -3.44030006438850       -0.62865489958281
C           -1.54461275702705       -1.18679939469307       -0.18561699146927
C           -2.90208450762811       -1.51257923069346        0.01788338391775
C           -3.86584293863373       -0.52841266259923        0.10780173928440
N           -5.20654818584358       -0.88314663843676        0.33320645024905
C           -5.92353658213986       -1.81160772420409       -0.39110583960691
C           -5.54068869004020       -2.55138162860747       -1.50257572537451
C           -6.47536488522633       -3.40165215045546       -2.06336139045336
C           -7.76366930930789       -3.51024000446802       -1.54407582014335
C           -8.15660858716733       -2.76146605631885       -0.44950927151667
C           -7.23534982705862       -1.90291367632994        0.13265065728390
C           -7.29549495307040       -0.98643451128793        1.23992567961273
C           -8.28879231985142       -0.64609448127132        2.14668975508965
C           -7.99871148745566        0.28363023785240        3.12898398394280
C           -6.73398402188474        0.86045743619234        3.21982651193987
C           -5.72821230358526        0.53757703735072        2.32791813046770
C           -6.01951845810494       -0.37932491775531        1.32595616175944
C           -3.51872893715917        0.82074648812137       -0.00260000831529
C           -2.18285014727156        1.15269221648214       -0.23985069136305
N           -1.83256656241418        2.50067194724969       -0.43178077305856
C           -2.42044997911677        3.36237804429373       -1.33394845594323
C           -3.44703693829017        3.12848912691790       -2.23941679328834
C           -3.84240545863609        4.17542007347190       -3.05105571656989
C           -3.23056705535140        5.42483361020356       -2.97557947841055
C           -2.19141815880383        5.65690053360391       -2.09305149789385
C           -1.77652231540322        4.62123096193693       -1.26818816698327
C           -0.74440791933810        4.49834445083672       -0.27408475980585
C            0.20154995945129        5.37483671299485        0.23812055148193
C            1.05730196362414        4.92293295534786        1.22621274142495
C            0.96453775626421        3.62213933492262        1.71665260652970
C            0.02697909700878        2.73344595476528        1.22542259076773
C           -0.81519618025422        3.17100298083997        0.21217497721393
C           -1.21023687017700        0.17418951161685       -0.33796195553211
C            1.78232074023908       -2.80736390552356       -0.81357303689961
C            3.12923889221418       -2.63644770874333       -0.62932362555757
C            5.96589774371751       -2.21641188521836       -0.22920325243623
C            5.96877913188895       -3.60830960113179       -0.27442768047297
C            6.97650903386836       -4.27327899307753       -0.94580382480605
C            7.99117861468763       -3.55311685401563       -1.55379545330033
C            8.01407867322817       -2.16983297140848       -1.46696472318329
C            7.01426036010924       -1.48040940470440       -0.80078958106661
H            6.14767896337826        0.39988654180337       -2.61803307449275
H            4.90678839657834        0.15840297404723       -1.39012972585977
H            5.80235140590128        1.67550679699751       -1.44290010226869
H            9.09834278796874        0.32952681494219       -0.36188113720253
H            8.54738157188542        0.50125746132449       -2.03699360705394
H            8.21441544383201        1.77403466703083       -0.88348176666953
H            7.91056886706811        1.87231078693314        1.25113524088951
H            7.15626321768769        2.14371288671861        3.55496822281457
H            5.41465373734349        0.65273375737637        4.48065624680020
H            4.40846588088511       -1.08491985428726        3.05284652324212
H            3.01176080458653       -0.10725631068281        1.62941111106581
H            0.63853750166004       -0.46614041703839        1.34524269521094
H           -3.16405412354039       -2.55417715739144        0.12834581332160
H           -4.54602130258716       -2.46782142024697       -1.91390513875185
H           -6.19980120359749       -3.99268305364757       -2.92444118283452
H           -8.46477865864697       -4.18672080717583       -2.01002502403328
H           -9.15908059287378       -2.83897160960987       -0.05653435649556
H           -9.26509092277136       -1.10285861368028        2.08710817197294
H           -8.75909168200838        0.56250520546570        3.84334800302774
H           -6.53291962562994        1.57238220381361        4.00680482360259
H           -4.74555094705870        0.97520750815619        2.41568664135716
H           -4.27016122792021        1.58983217330071        0.07145502819794
H           -3.91386974408790        2.15811488374796       -2.31537077540809
H           -4.64124073993673        4.01941025287928       -3.76111633279780
H           -3.56975077771152        6.21871560698353       -3.62446577461772
H           -1.70888452950875        6.62153510823919       -2.04699402390433
H            0.26344658726440        6.38885670872716       -0.12710607090472
H            1.80328198594567        5.58879843487578        1.63413128861007
H            1.63498083207960        3.30386516774783        2.50135322792951
H           -0.05672835011790        1.73370621990850        1.62182962614953
H           -0.20268745215687        0.45621444085627       -0.60224041719265
H            1.41597322497306       -3.54135779708009       -1.51649150440264
H            3.81283188515763       -3.21473134433897       -1.22989043252433
H            5.20002233054374       -4.16115343403095        0.24420952656026
H            6.97485743380999       -5.35220818362661       -0.98098171703805
H            8.77908395432092       -4.06883668520069       -2.08151105036087
H            8.82745580498837       -1.63497962402705       -1.92859103578450

          :  Hamiltonian                  GFN2-xTB          :
         :: gradient norm              0.000032826709 Eh/a0 ::
         :: HOMO-LUMO gap              0.727809759671 eV    ::
         :: SCC energy              -145.721138736636 Eh    ::
         :: -> dispersion             -0.132603574706 Eh    ::
         :: -> Gsolv                  -0.069060855122 Eh    ::
         :: repulsion energy           2.594364071200 Eh    ::

    * Orbital Energies and Occupations

         #    Occupation            Energy/Eh            Energy/eV
      -------------------------------------------------------------
         1        2.0000           -0.6841145             -18.6157
       ...           ...                  ...                  ...
       122        2.0000           -0.4096725             -11.1478
       123        2.0000           -0.4095197             -11.1436
       124        2.0000           -0.4079099             -11.0998
       125        2.0000           -0.4073278             -11.0840
       126        2.0000           -0.4066476             -11.0654
       127        2.0000           -0.4015506             -10.9267
       128        2.0000           -0.3838415             -10.4449
       129        2.0000           -0.3832930             -10.4299
       130        1.9994           -0.3709628             -10.0944
       131        1.9809           -0.3675806             -10.0024
       132        1.7359           -0.3648122              -9.9270
       133        1.2837           -0.3629586              -9.8766
       134        1.0000           -0.2769904              -7.5373 (HOMO)
       135        0.0000           -0.2502442              -6.8095 (LUMO)
       136        0.0000           -0.2494369              -6.7875
       137                         -0.2411107              -6.5610
       138                         -0.2370462              -6.4504
       139                         -0.2338838              -6.3643
       140                         -0.2319286              -6.3111
       141                         -0.2292278              -6.2376
       142                         -0.2273736              -6.1872
       143                         -0.2268915              -6.1740
       144                         -0.2248376              -6.1181
       145                         -0.2194010              -5.9702
       ...                                ...                  ...
       261                          0.7405163              20.1505
      -------------------------------------------------------------
                  HL-Gap            0.0267462 Eh            0.7278 eV

     #   Z          covCN         q      C6AA      α(0)
     1   6 C        3.761    -0.101    22.471     6.757
     2   6 C        3.911     0.024    20.115     6.375
     3   6 C        3.759    -0.112    22.683     6.790
     4   6 C        2.987    -0.001    28.047     8.687
     5   6 C        2.922    -0.035    28.879     8.813
     6   6 C        2.919    -0.032    28.802     8.801
     7   6 C        2.919    -0.031    28.773     8.796
     8   6 C        2.919    -0.042    29.047     8.838
     9   6 C        2.953     0.053    26.800     8.491
    10   7 N        2.753    -0.025    21.726     6.923
    11   6 C        2.910     0.055    26.761     8.483
    12   6 C        2.917    -0.049    29.225     8.865
    13   6 C        2.918    -0.039    28.975     8.827
    14   6 C        2.967    -0.010    28.272     8.722
    15   6 C        2.832     0.161    24.511     8.113
    16   8 O        0.858    -0.528    24.423     6.626
    17   6 C        2.966    -0.022    28.562     8.766
    18   6 C        2.926    -0.045    29.119     8.849
    19   6 C        2.908     0.059    26.677     8.469
    20   7 N        2.804    -0.032    21.850     6.943
    21   6 C        3.076     0.050    26.803     8.488
    22   6 C        2.909    -0.044    29.099     8.845
    23   6 C        2.923    -0.032    28.810     8.802
    24   6 C        2.920    -0.038    28.936     8.821
    25   6 C        2.912    -0.032    28.804     8.801
    26   6 C        3.066    -0.016    28.330     8.728
    27   6 C        3.066    -0.015    28.317     8.726
    28   6 C        2.912    -0.032    28.794     8.799
    29   6 C        2.920    -0.038    28.938     8.822
    30   6 C        2.923    -0.033    28.825     8.804
    31   6 C        2.909    -0.046    29.154     8.854
    32   6 C        3.075     0.049    26.819     8.491
    33   6 C        2.922    -0.078    29.947     8.974
    34   6 C        2.908     0.060    26.664     8.467
    35   7 N        2.803    -0.032    21.861     6.944
    36   6 C        3.077     0.049    26.832     8.493
    37   6 C        2.909    -0.047    29.157     8.854
    38   6 C        2.923    -0.033    28.821     8.804
    39   6 C        2.920    -0.038    28.948     8.823
    40   6 C        2.912    -0.032    28.803     8.800
    41   6 C        3.067    -0.015    28.327     8.727
    42   6 C        3.066    -0.015    28.326     8.727
    43   6 C        2.912    -0.032    28.801     8.800
    44   6 C        2.920    -0.038    28.954     8.824
    45   6 C        2.923    -0.033    28.824     8.804
    46   6 C        2.910    -0.046    29.148     8.853
    47   6 C        3.077     0.048    26.838     8.493
    48   6 C        2.921    -0.058    29.450     8.899
    49   6 C        2.921    -0.028    28.693     8.784
    50   6 C        2.916    -0.049    29.226     8.865
    51   6 C        2.953     0.054    26.797     8.491
    52   6 C        2.919    -0.042    29.038     8.837
    53   6 C        2.919    -0.031    28.774     8.796
    54   6 C        2.919    -0.032    28.807     8.801
    55   6 C        2.922    -0.036    28.884     8.813
    56   6 C        2.987    -0.002    28.058     8.689
    57   1 H        0.925     0.046     2.374     2.410
    58   1 H        0.925     0.034     2.527     2.486
    59   1 H        0.925     0.046     2.366     2.405
    60   1 H        0.925     0.045     2.386     2.415
    61   1 H        0.925     0.049     2.334     2.389
    62   1 H        0.925     0.049     2.326     2.385
    63   1 H        0.926     0.054     2.265     2.353
    64   1 H        0.926     0.044     2.401     2.423
    65   1 H        0.926     0.043     2.411     2.428
    66   1 H        0.926     0.045     2.380     2.412
    67   1 H        0.926     0.048     2.344     2.394
    68   1 H        0.926     0.034     2.527     2.486
    69   1 H        0.926     0.038     2.475     2.460
    70   1 H        0.926     0.032     2.557     2.501
    71   1 H        0.926     0.034     2.525     2.485
    72   1 H        0.926     0.036     2.502     2.474
    73   1 H        0.926     0.039     2.463     2.454
    74   1 H        0.926     0.038     2.474     2.460
    75   1 H        0.926     0.036     2.500     2.473
    76   1 H        0.926     0.037     2.490     2.468
    77   1 H        0.926     0.036     2.509     2.477
    78   1 H        0.926     0.041     2.430     2.438
    79   1 H        0.926     0.033     2.547     2.496
    80   1 H        0.926     0.035     2.519     2.482
    81   1 H        0.926     0.035     2.517     2.481
    82   1 H        0.926     0.038     2.477     2.461
    83   1 H        0.926     0.037     2.483     2.464
    84   1 H        0.926     0.036     2.504     2.475
    85   1 H        0.926     0.036     2.498     2.472
    86   1 H        0.926     0.032     2.562     2.503
    87   1 H        0.926     0.039     2.467     2.456
    88   1 H        0.926     0.034     2.534     2.489
    89   1 H        0.926     0.044     2.394     2.420
    90   1 H        0.926     0.044     2.391     2.418
    91   1 H        0.926     0.042     2.422     2.434
    92   1 H        0.926     0.043     2.407     2.426
    93   1 H        0.926     0.054     2.265     2.354

molecular dipole:
                 x           y           z       tot (Debye)
 q only:        3.700       2.596       0.605
   full:        3.645       2.421       0.607      11.228

 projected vibrational frequencies (cm⁻¹)
eigval :       -0.00    -0.00     0.00     0.00     0.00     0.00
eigval :        8.09    11.56    14.62    19.45    22.65    26.27
eigval :       33.84    42.35    49.88    57.19    66.99    71.69
eigval :       83.27    94.58   100.36   103.75   124.71   134.12
eigval :      137.79   139.50   142.13   147.02   153.52   172.09
eigval :      184.04   193.15   198.23   205.36   226.13   232.57
eigval :      243.33   251.75   270.37   271.23   280.42   281.81
eigval :      291.31   298.39   309.00   317.80   328.30   335.09
eigval :      340.92   359.82   366.36   370.34   381.03   391.80
eigval :      395.26   397.43   406.49   415.06   421.81   423.18
eigval :      433.19   434.40   442.72   457.08   465.25   479.01
eigval :      497.06   503.44   508.33   515.73   517.23   533.91
eigval :      538.58   539.11   539.57   546.03   552.13   563.61
eigval :      571.43   577.23   585.55   586.16   588.60   604.55
eigval :      613.17   620.08   625.41   630.98   652.45   653.63
eigval :      665.17   674.02   674.54   679.01   690.64   708.89
eigval :      710.13   720.87   723.86   747.69   753.36   766.72
eigval :      767.26   769.44   774.64   776.35   779.23   780.27
eigval :      782.13   800.04   806.88   809.45   833.13   844.19
eigval :      864.32   870.23   870.86   875.23   875.89   882.03
eigval :      883.87   886.87   895.69   897.50   901.55   901.70
eigval :      902.34   904.81   905.21   907.07   912.44   914.43
eigval :      918.93   919.09   919.66   920.50   924.64   925.84
eigval :      940.14   941.65   944.94   967.08   970.74   994.68
eigval :     1008.43  1008.56  1010.71  1028.40  1036.00  1066.39
eigval :     1066.90  1069.61  1071.00  1071.84  1075.84  1097.14
eigval :     1103.08  1115.61  1118.25  1133.98  1142.88  1144.22
eigval :     1149.07  1150.25  1152.40  1162.04  1168.63  1173.06
eigval :     1175.36  1176.61  1178.38  1179.39  1180.80  1186.23
eigval :     1193.22  1207.50  1226.01  1227.66  1228.70  1231.13
eigval :     1232.21  1237.62  1249.57  1258.64  1260.36  1264.90
eigval :     1268.50  1281.97  1289.46  1290.51  1292.84  1294.18
eigval :     1316.20  1321.77  1324.05  1326.54  1332.93  1345.17
eigval :     1346.63  1350.71  1356.38  1357.28  1363.71  1393.03
eigval :     1396.70  1404.07  1412.61  1414.35  1415.19  1416.58
eigval :     1421.92  1425.55  1430.16  1435.21  1439.17  1443.78
eigval :     1446.97  1463.29  1463.92  1465.64  1469.27  1481.75
eigval :     1482.83  1487.56  1488.69  1489.62  1501.59  1517.56
eigval :     1521.06  1559.97  1563.10  1565.95  1566.70  1567.77
eigval :     1573.58  1580.77  1582.21  1583.33  1583.65  1585.04
eigval :     1600.06  1605.46  3029.96  3031.46  3035.54  3036.28
eigval :     3049.75  3050.25  3075.39  3075.66  3076.14  3076.30
eigval :     3081.00  3081.28  3081.58  3081.90  3081.93  3082.87
eigval :     3083.17  3087.93  3088.22  3088.55  3088.86  3089.50
eigval :     3091.60  3091.85  3094.01  3094.17  3094.35  3094.90
eigval :     3095.63  3096.83  3097.13  3099.55  3105.46  3109.61
eigval :     3110.23  3116.28  3116.70

   temp. (K)  partition function   enthalpy   heat capacity  entropy
                                   cal/mol     cal/K/mol   cal/K/mol   J/K/mol
 298.15  VIB  0.113E+21            26346.948    169.645    161.939
         ROT  0.140E+09              888.752      2.981     40.250
         INT  0.158E+29            27235.700    172.626    202.189
         TR   0.187E+29             1481.254      4.968     45.581
         TOT                       28716.9538   177.5938   247.7702  1036.6705

       T/K    H(0)-H(T)+PV         H(T)/Eh          T*S/Eh         G(T)/Eh
   ------------------------------------------------------------------------
    298.15    0.457634E-01    0.765855E+00    0.117724E+00    0.648131E+00
   ------------------------------------------------------------------------

         :::::::::::::::::::::::::::::::::::::::::::::::::::::
         ::                  THERMODYNAMIC                  ::
         :::::::::::::::::::::::::::::::::::::::::::::::::::::
         :: total free energy        -142.478643536745 Eh   ::
         ::.................................................::
         :: total energy             -143.126774663526 Eh   ::
         :: zero point energy           0.720091358907 Eh   ::
         :: G(RRHO) w/o ZPVE           -0.071960232126 Eh   ::
         :: G(RRHO) contrib.            0.648131126781 Eh   ::
         :::::::::::::::::::::::::::::::::::::::::::::::::::::

           -------------------------------------------------
          | TOTAL ENERGY             -143.126774663526 Eh   |
          | TOTAL ENTHALPY           -142.360919925779 Eh   |
          | TOTAL FREE ENERGY        -142.478643536745 Eh   |
          | GRADIENT NORM               0.000033321353 Eh/α |
          | HOMO-LUMO GAP               0.727800613399 eV   |
           -------------------------------------------------

 * finished run on 2025/09/08 at 06:26:11.833
