   * xtb version 6.7.1 (edcfbbe) compiled by 'albert@albert-system' on 2024-07-22

   ID    Z sym.   atoms
    1    6 C      1-9, 11-15, 17-19, 21-34, 36-56
    2    7 N      10, 20, 35
    3    8 O      16
    4    1 H      57-93

          program call               : xtb data2507/toluene/DCPDAPM/DCPDAPM_toluene_S0_crest.xyz --gfn 2 --gbsa toluene --ohess vtight --parallel 40 --molden --ceasefiles --namespace data2507/toluene/DCPDAPM/DCPDAPM_toluene_S0_finalOpt
      * Solvation model:               GBSA
        Solvent                        toluene
        Solvent mass                       9.2140E+01 g/mol
          :  Hamiltonian                  GFN2-xTB          :
 * total energy  :  -143.2076384 Eh     change       -0.5284392E-08 Eh
 * total energy  :  -143.2077890 Eh     change       -0.1505901E-03 Eh
 * total energy  :  -143.2078792 Eh     change       -0.9022835E-04 Eh
 * total energy  :  -143.2079229 Eh     change       -0.4364703E-04 Eh
 * total energy  :  -143.2079906 Eh     change       -0.6769515E-04 Eh
 * total energy  :  -143.2080572 Eh     change       -0.6662180E-04 Eh
 * total energy  :  -143.2081172 Eh     change       -0.6000407E-04 Eh
 * total energy  :  -143.2081763 Eh     change       -0.5905765E-04 Eh
 * total energy  :  -143.2082416 Eh     change       -0.6530981E-04 Eh
 * total energy  :  -143.2083055 Eh     change       -0.6397380E-04 Eh
 * total energy  :  -143.2098151 Eh     change       -0.6705655E-06 Eh
 * total energy  :  -143.2098159 Eh     change       -0.7165976E-06 Eh
 * total energy  :  -143.2098167 Eh     change       -0.8025124E-06 Eh
 * total energy  :  -143.2098176 Eh     change       -0.9154052E-06 Eh
 * total energy  :  -143.2098186 Eh     change       -0.1029133E-05 Eh
 * total energy  :  -143.2098197 Eh     change       -0.1079468E-05 Eh
 * total energy  :  -143.2098207 Eh     change       -0.1033409E-05 Eh
 * total energy  :  -143.2098216 Eh     change       -0.9301227E-06 Eh
 * total energy  :  -143.2098217 Eh     change       -0.3507438E-08 Eh
   *** GEOMETRY OPTIMIZATION CONVERGED AFTER 122 ITERATIONS ***

 final structure:
================
93
 xtb: 6.7.1 (edcfbbe)
C            5.43156490223933        0.88149582214490       -1.19786288610819
C            6.55818549048874        0.34353872930014       -0.29125957031078
C            7.78264196335825        1.24032159673485       -0.47685955696489
C            6.07114814282605        0.31702715990587        1.14824293959031
C            6.47390008052462        1.21118501113101        2.12885113835736
C            6.00166212814145        1.10465817317238        3.42673125915627
C            5.14404544866706        0.07594060509658        3.77448312943032
C            4.73703539779190       -0.83232242137890        2.81416023947853
C            5.16792292217255       -0.69062249824912        1.50114471895143
N            4.79256523907466       -1.62085063834755        0.50422406896640
C            3.49109995570024       -1.85712662191088        0.14147911611867
C            2.42196034767126       -1.28510813928544        0.85246412255860
C            1.12219889477799       -1.46795752225304        0.44974958341929
C            0.81517648004825       -2.22761836455287       -0.68341155139385
C           -0.56039614632813       -2.40303946632886       -1.15168715952135
O           -0.92402090076975       -3.36286650819160       -1.82074128680305
C           -1.51601535361276       -1.31404183605804       -0.79111463286420
C           -2.80290891404265       -1.63788867021190       -0.38219592112244
C           -3.70589895076725       -0.62862476437166       -0.06144884995185
N           -5.00190240714493       -0.94983535243604        0.35731993131607
C           -5.86136818311269       -1.82591122918451       -0.28134880022230
C           -5.68495099410278       -2.53872619267719       -1.45889489901693
C           -6.73048608566760       -3.32979967710735       -1.89691486680065
C           -7.92931739315733       -3.40865092256746       -1.19118530644740
C           -8.11889654755887       -2.68343764569419       -0.03156016275286
C           -7.08254077138483       -1.88101467435705        0.42852517201741
C           -6.94244659191720       -0.99927890739479        1.55451986241570
C           -7.78155431530369       -0.65444996207775        2.60648937183726
C           -7.31717157502848        0.22813642261733        3.56167053953358
C           -6.02840068238976        0.75180472814219        3.48570386471623
C           -5.17548617452650        0.42346543297440        2.44857380795196
C           -5.64552272102356       -0.44276333781944        1.47155053390611
C           -3.31727136093861        0.70415683516469       -0.15700001894322
C           -2.03603722959093        1.03076542710047       -0.59245018764250
N           -1.65942310025955        2.37299198356712       -0.71632698996338
C           -2.39828733687289        3.36469136970892       -1.33811911444335
C           -3.60745344313166        3.27830422444254       -2.01371657798937
C           -4.11773269730053        4.43281513606148       -2.57732167031587
C           -3.44327179948130        5.64825667617668       -2.48409850407470
C           -2.22635718234408        5.73523337309072       -1.83754463801464
C           -1.69345129836966        4.58782858584069       -1.26409367078880
C           -0.46988268391399        4.31409886941477       -0.56256891287590
C            0.60552321304472        5.10538422524180       -0.17906643108505
C            1.64707442421926        4.51834302031918        0.51187638903839
C            1.61657168007344        3.16356836764666        0.83478204743393
C            0.55511640820283        2.35807822845450        0.46691964910039
C           -0.48369141072473        2.93551779244433       -0.24958747147312
C           -1.13593554326479        0.01855771283743       -0.91149002354986
C            1.87484613895299       -2.81470500082595       -1.38253319027681
C            3.17837022568853       -2.62116225823768       -0.99704790491151
C            5.90193784775205       -2.06036857752205       -0.25257744308303
C            6.10768063204218       -3.41182422570331       -0.49843285247804
C            7.22852714297834       -3.82083534691459       -1.19737806596069
C            8.14967999811132       -2.88186835043970       -1.62726770681188
C            7.96181921065792       -1.53840349801551       -1.34633928613128
C            6.84023495819911       -1.10521278133980       -0.65543129063879
H            5.75047790542509        0.85197341610995       -2.23774497413640
H            4.51997435098811        0.29764146903588       -1.10475165197743
H            5.20440900459612        1.91191889648011       -0.93264076253289
H            8.61051121370498        0.90545205123276        0.14412360443889
H            8.09412974100601        1.23614945441704       -1.51824729158902
H            7.53679686514167        2.26718359872726       -0.21880148121321
H            7.16291877307398        2.00504260480322        1.89161525767694
H            6.32077119401786        1.81810094292882        4.17188129694646
H            4.80157643861180       -0.02983254696539        4.79306162403461
H            4.10020728740462       -1.66213695585665        3.08246290778627
H            2.61774146293805       -0.66863633175421        1.71406002200479
H            0.32258142113332       -1.03805656894818        1.03492901148132
H           -3.08566144026126       -2.67566794086255       -0.29326984418343
H           -4.76564275227561       -2.47828353074522       -2.02191171730665
H           -6.61452367827207       -3.89785781055544       -2.80846570822352
H           -8.72135868337031       -4.04076917774892       -1.56502833783083
H           -9.05303182801966       -2.73275765023743        0.50765086506719
H           -8.77399469438692       -1.07418185043468        2.67422397361895
H           -7.95489480599070        0.51159783903647        4.38596916489724
H           -5.68606114843699        1.42735763415635        4.25603207529909
H           -4.17268652247864        0.82148069125710        2.41212817424134
H           -4.01539297706421        1.48609424476488        0.09855391533110
H           -4.13100998937531        2.33958319021689       -2.11416976453321
H           -5.05893372851902        4.38935954825766       -3.10577204432079
H           -3.87648682898883        6.52882105814293       -2.93517344740006
H           -1.69334541213247        6.67254444109309       -1.78215369891376
H            0.62060406754521        6.15847245245877       -0.41663340868573
H            2.49405283752765        5.11573816587331        0.81575561901115
H            2.43794823788638        2.73341803479335        1.38929644074910
H            0.53933127578155        1.31474010205979        0.73727353885740
H           -0.15498293147036        0.26974765480768       -1.28378668302162
H            1.64855923234769       -3.39907392184912       -2.26283415002693
H            3.96973774344525       -3.03902074302147       -1.59822635241930
H            5.39792975544201       -4.13646344262008       -0.12757540281310
H            7.38565208011327       -4.87091165893948       -1.39368715188899
H            9.02710172282007       -3.19584705134296       -2.17275666254624
H            8.70527789404819       -0.83133161456626       -1.67592328803691

          :  Hamiltonian                  GFN2-xTB          :
         :: gradient norm              0.000047092008 Eh/a0 ::
         :: HOMO-LUMO gap              2.071077388267 eV    ::
         :: SCC energy              -145.820564130794 Eh    ::
         :: -> dispersion             -0.134316528781 Eh    ::
         :: -> Gsolv                  -0.060316965121 Eh    ::
         :: repulsion energy           2.610742479129 Eh    ::

    * Orbital Energies and Occupations

         #    Occupation            Energy/Eh            Energy/eV
      -------------------------------------------------------------
         1        2.0000           -0.7055508             -19.1990
       ...           ...                  ...                  ...
       121        2.0000           -0.4148593             -11.2889
       122        2.0000           -0.4126586             -11.2290
       123        2.0000           -0.4075535             -11.0901
       124        2.0000           -0.4068674             -11.0714
       125        2.0000           -0.4060464             -11.0491
       126        2.0000           -0.4031560             -10.9704
       127        2.0000           -0.4023699             -10.9490
       128        2.0000           -0.3932028             -10.6996
       129        2.0000           -0.3810296             -10.3683
       130        2.0000           -0.3802931             -10.3483
       131        2.0000           -0.3670906              -9.9890
       132        2.0000           -0.3658068              -9.9541
       133        2.0000           -0.3626193              -9.8674 (HOMO)
       134                         -0.2865086              -7.7963 (LUMO)
       135                         -0.2518880              -6.8542
       136                         -0.2482742              -6.7559
       137                         -0.2427779              -6.6063
       138                         -0.2419587              -6.5840
       139                         -0.2325142              -6.3270
       140                         -0.2311842              -6.2908
       141                         -0.2262051              -6.1554
       142                         -0.2257862              -6.1440
       143                         -0.2243459              -6.1048
       144                         -0.2241480              -6.0994
       ...                                ...                  ...
       261                          0.7426217              20.2078
      -------------------------------------------------------------
                  HL-Gap            0.0761107 Eh            2.0711 eV

     #   Z          covCN         q      C6AA      α(0)
     1   6 C        3.761    -0.099    22.434     6.752
     2   6 C        3.910     0.023    20.123     6.376
     3   6 C        3.759    -0.109    22.641     6.784
     4   6 C        2.986    -0.004    28.123     8.699
     5   6 C        2.923    -0.038    28.933     8.821
     6   6 C        2.919    -0.036    28.889     8.814
     7   6 C        2.919    -0.033    28.828     8.805
     8   6 C        2.920    -0.046    29.131     8.851
     9   6 C        2.951     0.054    26.787     8.489
    10   7 N        2.754    -0.060    22.405     7.030
    11   6 C        2.911     0.077    26.283     8.407
    12   6 C        2.921    -0.057    29.427     8.896
    13   6 C        2.920    -0.026    28.658     8.779
    14   6 C        2.971    -0.034    28.840     8.809
    15   6 C        2.829     0.224    23.291     7.908
    16   8 O        0.857    -0.437    22.429     6.350
    17   6 C        2.972    -0.009    28.238     8.717
    18   6 C        2.925    -0.040    28.985     8.829
    19   6 C        2.910     0.069    26.458     8.434
    20   7 N        2.802    -0.044    22.094     6.981
    21   6 C        3.071     0.047    26.872     8.500
    22   6 C        2.909    -0.051    29.254     8.869
    23   6 C        2.924    -0.034    28.842     8.807
    24   6 C        2.920    -0.041    29.030     8.836
    25   6 C        2.912    -0.034    28.855     8.808
    26   6 C        3.067    -0.017    28.372     8.734
    27   6 C        3.066    -0.017    28.362     8.733
    28   6 C        2.912    -0.034    28.846     8.807
    29   6 C        2.920    -0.042    29.032     8.836
    30   6 C        2.924    -0.034    28.853     8.809
    31   6 C        2.910    -0.052    29.288     8.874
    32   6 C        3.071     0.047    26.885     8.502
    33   6 C        2.926    -0.057    29.421     8.895
    34   6 C        2.909     0.069    26.456     8.434
    35   7 N        2.801    -0.043    22.071     6.978
    36   6 C        3.070     0.046    26.891     8.503
    37   6 C        2.910    -0.052    29.279     8.873
    38   6 C        2.924    -0.034    28.846     8.808
    39   6 C        2.920    -0.041    29.026     8.835
    40   6 C        2.912    -0.034    28.848     8.807
    41   6 C        3.066    -0.017    28.360     8.732
    42   6 C        3.066    -0.017    28.356     8.732
    43   6 C        2.912    -0.034    28.848     8.807
    44   6 C        2.920    -0.041    29.028     8.835
    45   6 C        2.923    -0.034    28.838     8.806
    46   6 C        2.910    -0.053    29.316     8.878
    47   6 C        3.069     0.046    26.898     8.504
    48   6 C        2.924    -0.048    29.187     8.860
    49   6 C        2.922    -0.018    28.453     8.747
    50   6 C        2.920    -0.057    29.407     8.893
    51   6 C        2.952     0.054    26.787     8.489
    52   6 C        2.920    -0.045    29.124     8.850
    53   6 C        2.920    -0.033    28.826     8.804
    54   6 C        2.919    -0.036    28.894     8.815
    55   6 C        2.923    -0.038    28.940     8.822
    56   6 C        2.986    -0.005    28.137     8.701
    57   1 H        0.925     0.042     2.428     2.437
    58   1 H        0.925     0.033     2.548     2.496
    59   1 H        0.925     0.043     2.407     2.426
    60   1 H        0.925     0.041     2.431     2.438
    61   1 H        0.925     0.045     2.379     2.412
    62   1 H        0.925     0.046     2.374     2.409
    63   1 H        0.926     0.048     2.347     2.396
    64   1 H        0.926     0.038     2.481     2.463
    65   1 H        0.926     0.037     2.484     2.464
    66   1 H        0.926     0.040     2.444     2.445
    67   1 H        0.926     0.047     2.360     2.402
    68   1 H        0.926     0.036     2.509     2.477
    69   1 H        0.926     0.051     2.305     2.374
    70   1 H        0.926     0.029     2.597     2.520
    71   1 H        0.926     0.031     2.573     2.508
    72   1 H        0.926     0.030     2.580     2.512
    73   1 H        0.926     0.033     2.537     2.491
    74   1 H        0.926     0.033     2.544     2.494
    75   1 H        0.926     0.031     2.578     2.511
    76   1 H        0.926     0.033     2.550     2.497
    77   1 H        0.926     0.030     2.584     2.514
    78   1 H        0.926     0.059     2.213     2.326
    79   1 H        0.926     0.029     2.599     2.521
    80   1 H        0.926     0.032     2.564     2.504
    81   1 H        0.926     0.030     2.580     2.512
    82   1 H        0.926     0.034     2.536     2.490
    83   1 H        0.926     0.033     2.543     2.494
    84   1 H        0.926     0.031     2.571     2.507
    85   1 H        0.926     0.033     2.550     2.497
    86   1 H        0.926     0.032     2.553     2.499
    87   1 H        0.926     0.051     2.306     2.375
    88   1 H        0.926     0.041     2.434     2.440
    89   1 H        0.926     0.044     2.394     2.420
    90   1 H        0.926     0.039     2.455     2.450
    91   1 H        0.926     0.037     2.488     2.467
    92   1 H        0.926     0.037     2.485     2.465
    93   1 H        0.926     0.048     2.349     2.397

molecular dipole:
                 x           y           z       tot (Debye)
 q only:        2.660       1.513       0.987
   full:        2.621       1.403       0.962       7.942

 projected vibrational frequencies (cm⁻¹)
eigval :       -0.00    -0.00    -0.00     0.00     0.00     0.00
eigval :        6.13    13.47    14.85    20.39    24.06    27.89
eigval :       33.84    43.26    52.19    61.45    68.90    71.83
eigval :       81.12    95.03   100.56   105.28   122.03   134.18
eigval :      135.73   137.95   142.41   148.52   158.19   172.78
eigval :      192.64   195.93   197.55   207.08   229.13   241.19
eigval :      245.83   249.64   272.21   273.08   279.90   286.01
eigval :      294.15   296.60   310.31   319.73   325.92   336.14
eigval :      346.70   360.27   367.53   377.23   384.99   393.89
eigval :      395.19   403.41   408.58   414.09   423.22   424.40
eigval :      436.54   437.58   447.69   457.23   472.58   478.50
eigval :      500.32   511.71   517.04   520.28   520.44   533.55
eigval :      541.08   541.60   543.96   556.56   557.02   568.81
eigval :      573.99   586.41   588.09   591.21   604.83   616.54
eigval :      620.25   628.59   639.53   652.46   662.85   671.60
eigval :      673.59   677.36   685.35   695.51   708.51   709.78
eigval :      722.76   727.02   730.72   749.37   754.32   768.52
eigval :      769.46   771.43   776.04   779.94   782.91   783.42
eigval :      788.22   809.36   816.35   842.56   856.73   864.36
eigval :      869.53   873.33   877.95   882.68   886.60   889.56
eigval :      891.37   896.25   897.62   898.92   903.78   904.42
eigval :      906.60   907.32   911.98   913.08   916.10   919.76
eigval :      922.83   924.32   925.74   926.36   927.79   928.24
eigval :      936.87   938.90   947.33   968.44   990.58  1000.21
eigval :     1009.60  1010.52  1011.36  1031.50  1044.26  1070.30
eigval :     1070.89  1072.47  1073.36  1074.39  1078.99  1097.82
eigval :     1104.39  1120.44  1123.30  1136.19  1150.50  1151.44
eigval :     1151.86  1153.34  1156.26  1164.80  1173.09  1178.18
eigval :     1179.48  1181.08  1181.44  1182.04  1188.35  1193.13
eigval :     1201.48  1213.10  1227.36  1228.23  1234.12  1234.45
eigval :     1235.87  1248.38  1256.13  1263.19  1270.47  1271.51
eigval :     1271.61  1290.40  1294.71  1297.01  1299.99  1301.41
eigval :     1316.07  1318.04  1324.40  1330.39  1339.28  1348.35
eigval :     1355.33  1355.92  1358.18  1360.27  1381.52  1398.63
eigval :     1415.42  1415.79  1419.83  1424.53  1426.11  1427.32
eigval :     1437.30  1441.96  1450.97  1452.02  1456.03  1470.78
eigval :     1473.70  1475.26  1485.91  1486.07  1490.46  1492.69
eigval :     1494.32  1504.71  1519.93  1536.34  1563.16  1564.36
eigval :     1573.60  1574.38  1574.58  1575.07  1583.51  1587.09
eigval :     1587.52  1587.66  1597.02  1597.32  1597.53  1611.75
eigval :     1612.17  1644.27  3026.94  3029.99  3032.86  3034.42
eigval :     3047.81  3053.45  3072.53  3072.83  3073.55  3073.79
eigval :     3077.69  3077.82  3078.34  3078.67  3079.37  3079.52
eigval :     3080.08  3082.18  3083.56  3084.22  3085.77  3086.09
eigval :     3087.16  3090.14  3092.74  3093.21  3093.48  3093.75
eigval :     3095.11  3101.26  3102.84  3106.04  3109.06  3111.38
eigval :     3113.61  3114.23  3119.49

   temp. (K)  partition function   enthalpy   heat capacity  entropy
                                   cal/mol     cal/K/mol   cal/K/mol   J/K/mol
 298.15  VIB  0.754E+20            26121.510    168.350    160.723
         ROT  0.131E+09              888.752      2.981     40.121
         INT  0.986E+28            27010.262    171.331    200.844
         TR   0.187E+29             1481.254      4.968     45.581
         TOT                       28491.5159   176.2992   246.4250  1031.0422

       T/K    H(0)-H(T)+PV         H(T)/Eh          T*S/Eh         G(T)/Eh
   ------------------------------------------------------------------------
    298.15    0.454041E-01    0.769213E+00    0.117084E+00    0.652129E+00
   ------------------------------------------------------------------------

         :::::::::::::::::::::::::::::::::::::::::::::::::::::
         ::                  THERMODYNAMIC                  ::
         :::::::::::::::::::::::::::::::::::::::::::::::::::::
         :: total free energy        -142.557692709635 Eh   ::
         ::.................................................::
         :: total energy             -143.209821651965 Eh   ::
         :: zero point energy           0.723809289471 Eh   ::
         :: G(RRHO) w/o ZPVE           -0.071680347141 Eh   ::
         :: G(RRHO) contrib.            0.652128942330 Eh   ::
         :::::::::::::::::::::::::::::::::::::::::::::::::::::

           -------------------------------------------------
          | TOTAL ENERGY             -143.209821651965 Eh   |
          | TOTAL ENTHALPY           -142.440608241879 Eh   |
          | TOTAL FREE ENERGY        -142.557692709635 Eh   |
          | GRADIENT NORM               0.000047091778 Eh/α |
          | HOMO-LUMO GAP               2.071077241471 eV   |
           -------------------------------------------------

 * finished run on 2025/09/08 at 06:25:51.199
