   * xtb version 6.7.1 (edcfbbe) compiled by 'albert@albert-system' on 2024-07-22

   ID    Z sym.   atoms
    1    6 C      1-9, 11-15, 17-19, 21-34, 36-56
    2    7 N      10, 20, 35
    3    8 O      16
    4    1 H      57-93

          program call               : xtb data2507/toluene/DCPDAPM/DCPDAPM_toluene_T1_crest.xyz --gfn 2 --uhf 2 --gbsa toluene --ohess vtight --parallel 40 --molden --ceasefiles --namespace data2507/toluene/DCPDAPM/DCPDAPM_toluene_T1_finalOpt
      * Solvation model:               GBSA
        Solvent                        toluene
        Solvent mass                       9.2140E+01 g/mol
          :  Hamiltonian                  GFN2-xTB          :
 * total energy  :  -143.1346368 Eh     change       -0.4891942E-07 Eh
 * total energy  :  -143.1348017 Eh     change       -0.1648920E-03 Eh
 * total energy  :  -143.1348651 Eh     change       -0.6347149E-04 Eh
 * total energy  :  -143.1348893 Eh     change       -0.2412687E-04 Eh
 * total energy  :  -143.1349078 Eh     change       -0.1853719E-04 Eh
 * total energy  :  -143.1349296 Eh     change       -0.2180602E-04 Eh
 * total energy  :  -143.1349422 Eh     change       -0.1259969E-04 Eh
 * total energy  :  -143.1349521 Eh     change       -0.9882448E-05 Eh
 * total energy  :  -143.1349646 Eh     change       -0.1255353E-04 Eh
 * total energy  :  -143.1349744 Eh     change       -0.9719688E-05 Eh
 * total energy  :  -143.1353474 Eh     change       -0.4185697E-06 Eh
 * total energy  :  -143.1353480 Eh     change       -0.6351317E-06 Eh
 * total energy  :  -143.1353486 Eh     change       -0.6106547E-06 Eh
 * total energy  :  -143.1353492 Eh     change       -0.5689554E-06 Eh
 * total energy  :  -143.1353500 Eh     change       -0.7937796E-06 Eh
 * total energy  :  -143.1353511 Eh     change       -0.1087912E-05 Eh
 * total energy  :  -143.1353518 Eh     change       -0.7783899E-06 Eh
 * total energy  :  -143.1353522 Eh     change       -0.3264607E-06 Eh
 * total energy  :  -143.1353522 Eh     change       -0.7686137E-07 Eh
   *** GEOMETRY OPTIMIZATION CONVERGED AFTER 133 ITERATIONS ***

 final structure:
================
93
 xtb: 6.7.1 (edcfbbe)
C            8.62482352094591        0.31445206709901        1.41362602221964
C            7.98068582833042       -0.43180814587584        0.22798223549711
C            9.06640393687906       -0.86873149068285       -0.77586938893243
C            7.28137760388904       -1.66610099371054        0.75463542188916
C            8.00832193024528       -2.63192510409666        1.43755077216716
C            7.41316260704083       -3.77110938656294        1.94832087432135
C            6.04820370212195       -3.96219564004022        1.78663914898701
C            5.30126073492426       -3.02437940178052        1.11141398763403
C            5.90280814274580       -1.87353969697219        0.57827016748638
N            5.12901793788085       -0.95823483536979       -0.10149703415429
C            3.74433880872213       -1.23403715548760       -0.29540385349964
C            2.79026019022801       -0.65581961646421        0.54389626972418
C            1.45398264613554       -0.91314852167025        0.35177510041710
C            1.01755107666474       -1.74707328696493       -0.69453177407016
C           -0.37566705444457       -2.08448348924818       -0.91753287038435
O           -0.68118457175374       -3.18632899186785       -1.47479680060107
C           -1.42249062216935       -1.15989438024877       -0.51155268919507
C           -2.72173469831520       -1.65941875903124       -0.30489056074330
C           -3.76970046995272       -0.81449142452189        0.00732450962202
N           -5.05176381857369       -1.34488312982288        0.22382186074275
C           -5.71905983999671       -2.20271655836715       -0.62541109451346
C           -5.33596653554345       -2.69041130681474       -1.86803006566857
C           -6.21677873837377       -3.52354052572309       -2.53233762988094
C           -7.45356544626144       -3.85883213055234       -1.98554420975522
C           -7.84905813242648       -3.35921396667353       -0.75801369419286
C           -6.98122470570781       -2.52270046983322       -0.07086813967813
C           -7.06232552897569       -1.82554240499956        1.18487895584426
C           -8.02806908615126       -1.75451157002311        2.17842552426517
C           -7.77015009003749       -0.98566576267428        3.29891458594550
C           -6.56235015311548       -0.30614829207090        3.44017367243293
C           -5.58534181298293       -0.36086674014849        2.46353338704553
C           -5.84783077614137       -1.11223052650376        1.32536124803110
C           -3.56127439693494        0.56118833653740        0.12664034874420
C           -2.28347444126971        1.06993721027975       -0.10838511640401
N           -2.07527698346721        2.45976648912861       -0.07799796813022
C           -2.78985988490880        3.39553892666311       -0.79703806858163
C           -3.84854220950642        3.21460660695658       -1.67717170787460
C           -4.38101481140403        4.33611202504245       -2.28534724296885
C           -3.87365571566533        5.60915123432369       -2.03444722711084
C           -2.80533756456225        5.79346295740175       -1.17613787735995
C           -2.25313093048834        4.68258245046145       -0.55434905241474
C           -1.15583375157562        4.50064065086337        0.35744807983799
C           -0.26079136481731        5.36981432227180        0.96513670512768
C            0.68696084432969        4.84903205405027        1.82708108919950
C            0.73701418071695        3.48343286459570        2.09872070565943
C           -0.14582191523195        2.59940527781915        1.50782602728748
C           -1.08164372697738        3.11198832822583        0.61982617386590
C           -1.22976086703665        0.23122388647240       -0.43086641674537
C            2.00166262855572       -2.36326139264776       -1.49584269139633
C            3.33600083473439       -2.10351319882536       -1.30974037314766
C            5.65640803306213        0.20739863673049       -0.61367244781509
C            4.81786214224450        1.10306411504581       -1.29544667746151
C            5.31314960749396        2.27676876633787       -1.81545457638227
C            6.65962946866861        2.58045516041019       -1.67252853813442
C            7.49258788736392        1.69623001327837       -1.01144860622565
C            7.02227168426984        0.50583788612734       -0.47336677719008
H            9.32811666948379       -0.32671988364674        1.93608822567991
H            9.15753579691646        1.19574019898621        1.06967732949176
H            7.85591921937026        0.62845672103393        2.11700607437166
H            8.61025699963807       -1.40127965976370       -1.60829728815781
H            9.59692372301472       -0.00653502432300       -1.16838822491987
H            9.78748114566582       -1.52662375094090       -0.30019082045640
H            9.06922325640847       -2.49729589843258        1.57871528918746
H            8.00784328593946       -4.50294986393125        2.47305197538020
H            5.56708869080740       -4.84117810345112        2.18800998103575
H            4.23962594797820       -3.16994964220816        0.98848911718581
H            3.11481523444907       -0.01797973670931        1.35361937291223
H            0.73023648153709       -0.50720949923318        1.04122246548494
H           -2.87551544367427       -2.72580949881023       -0.37395943634594
H           -4.38183971904927       -2.43049087335050       -2.30117379625682
H           -5.93868332748852       -3.92092198381180       -3.49740452861652
H           -8.11262074252594       -4.51489854129924       -2.53467485799339
H           -8.81301974374800       -3.61057267693862       -0.34211336531620
H           -8.95855081627796       -2.29233893194954        2.07728820052814
H           -8.50988233355790       -0.91648486492210        4.08269139922776
H           -6.38287636732716        0.27302751511436        4.33399479095725
H           -4.64481214801292        0.15358989522851        2.58827252468448
H           -4.37792868637952        1.22111535570174        0.37070832986277
H           -4.23661320174288        2.22995165945572       -1.88931895942120
H           -5.20629904838860        4.22158964850042       -2.97265881783428
H           -4.31886985180909        6.46118035764816       -2.52653320541169
H           -2.40503191511774        6.77937101006430       -0.99399899075968
H           -0.30851270696219        6.43050654362789        0.77006065354777
H            1.39464434108029        5.50882834258463        2.30682671701774
H            1.47709219915512        3.10869121395315        2.79035191885737
H           -0.11728377318398        1.54542438026721        1.73582269528121
H           -0.27498039134340        0.66200362037939       -0.68994787407599
H            1.66893853387063       -3.03739336937614       -2.27176194158516
H            4.07899158765364       -2.56486480025094       -1.94437928033274
H            3.77335186018916        0.86172446652812       -1.41267212897511
H            4.65111615199452        2.95367249191825       -2.33375063050754
H            7.05769439996622        3.49799490126782       -2.07781007765881
H            8.53784787429626        1.94527812174182       -0.91721391004986

          :  Hamiltonian                  GFN2-xTB          :
         :: gradient norm              0.000122683146 Eh/a0 ::
         :: HOMO-LUMO gap              0.772861160543 eV    ::
         :: SCC energy              -145.731662707623 Eh    ::
         :: -> dispersion             -0.132341349709 Eh    ::
         :: -> Gsolv                  -0.070009785475 Eh    ::
         :: repulsion energy           2.596310467972 Eh    ::

    * Orbital Energies and Occupations

         #    Occupation            Energy/Eh            Energy/eV
      -------------------------------------------------------------
         1        2.0000           -0.6855649             -18.6552
       ...           ...                  ...                  ...
       122        2.0000           -0.4099568             -11.1555
       123        2.0000           -0.4095632             -11.1448
       124        2.0000           -0.4085271             -11.1166
       125        2.0000           -0.4080420             -11.1034
       126        2.0000           -0.4036212             -10.9831
       127        2.0000           -0.3983831             -10.8406
       128        2.0000           -0.3838749             -10.4458
       129        2.0000           -0.3832311             -10.4282
       130        1.9981           -0.3696809             -10.0595
       131        1.9842           -0.3676756             -10.0050
       132        1.6801           -0.3644696              -9.9177
       133        1.3377           -0.3631132              -9.8808
       134        1.0000           -0.2787692              -7.5857 (HOMO)
       135        0.0000           -0.2503668              -6.8128 (LUMO)
       136        0.0000           -0.2494516              -6.7879
       137                         -0.2429389              -6.6107
       138                         -0.2348455              -6.3905
       139                         -0.2340810              -6.3697
       140                         -0.2339224              -6.3654
       141                         -0.2329159              -6.3380
       142                         -0.2273651              -6.1869
       143                         -0.2267853              -6.1711
       144                         -0.2236759              -6.0865
       145                         -0.2075477              -5.6477
       ...                                ...                  ...
       261                          0.7405124              20.1504
      -------------------------------------------------------------
                  HL-Gap            0.0284024 Eh            0.7729 eV

     #   Z          covCN         q      C6AA      α(0)
     1   6 C        3.761    -0.108    22.611     6.779
     2   6 C        3.909     0.024    20.105     6.373
     3   6 C        3.761    -0.108    22.602     6.777
     4   6 C        2.978    -0.001    28.045     8.687
     5   6 C        2.925    -0.033    28.813     8.803
     6   6 C        2.917    -0.031    28.768     8.795
     7   6 C        2.917    -0.027    28.682     8.782
     8   6 C        2.922    -0.046    29.147     8.853
     9   6 C        2.930     0.062    26.614     8.460
    10   7 N        2.754    -0.016    21.555     6.895
    11   6 C        2.929     0.038    27.158     8.546
    12   6 C        2.915    -0.041    29.029     8.835
    13   6 C        2.920    -0.043    29.063     8.841
    14   6 C        2.968    -0.020    28.493     8.756
    15   6 C        2.833     0.162    24.488     8.109
    16   8 O        0.857    -0.532    24.504     6.637
    17   6 C        2.967    -0.018    28.443     8.748
    18   6 C        2.927    -0.044    29.096     8.846
    19   6 C        2.908     0.060    26.655     8.466
    20   7 N        2.804    -0.032    21.862     6.944
    21   6 C        3.075     0.050    26.807     8.489
    22   6 C        2.909    -0.044    29.103     8.846
    23   6 C        2.923    -0.032    28.808     8.802
    24   6 C        2.920    -0.038    28.940     8.822
    25   6 C        2.912    -0.032    28.807     8.801
    26   6 C        3.066    -0.016    28.330     8.728
    27   6 C        3.066    -0.015    28.315     8.726
    28   6 C        2.912    -0.032    28.796     8.799
    29   6 C        2.920    -0.038    28.941     8.822
    30   6 C        2.923    -0.033    28.825     8.804
    31   6 C        2.909    -0.047    29.162     8.855
    32   6 C        3.075     0.049    26.825     8.492
    33   6 C        2.922    -0.076    29.892     8.966
    34   6 C        2.909     0.060    26.649     8.465
    35   7 N        2.803    -0.033    21.879     6.947
    36   6 C        3.076     0.048    26.836     8.493
    37   6 C        2.909    -0.047    29.166     8.856
    38   6 C        2.923    -0.033    28.821     8.804
    39   6 C        2.920    -0.038    28.953     8.824
    40   6 C        2.912    -0.032    28.805     8.801
    41   6 C        3.067    -0.015    28.327     8.727
    42   6 C        3.066    -0.015    28.327     8.727
    43   6 C        2.912    -0.032    28.802     8.800
    44   6 C        2.920    -0.038    28.957     8.824
    45   6 C        2.923    -0.033    28.821     8.804
    46   6 C        2.910    -0.046    29.150     8.853
    47   6 C        3.077     0.048    26.839     8.494
    48   6 C        2.921    -0.056    29.392     8.891
    49   6 C        2.924    -0.031    28.772     8.796
    50   6 C        2.915    -0.041    29.024     8.834
    51   6 C        2.930     0.062    26.614     8.460
    52   6 C        2.922    -0.046    29.150     8.854
    53   6 C        2.917    -0.027    28.679     8.782
    54   6 C        2.917    -0.031    28.767     8.795
    55   6 C        2.925    -0.033    28.812     8.803
    56   6 C        2.978    -0.001    28.044     8.687
    57   1 H        0.925     0.052     2.291     2.367
    58   1 H        0.925     0.053     2.287     2.365
    59   1 H        0.925     0.038     2.481     2.463
    60   1 H        0.925     0.037     2.494     2.470
    61   1 H        0.925     0.052     2.291     2.367
    62   1 H        0.925     0.052     2.291     2.367
    63   1 H        0.926     0.051     2.304     2.374
    64   1 H        0.926     0.045     2.387     2.416
    65   1 H        0.926     0.041     2.429     2.437
    66   1 H        0.926     0.041     2.437     2.441
    67   1 H        0.926     0.038     2.482     2.464
    68   1 H        0.926     0.032     2.554     2.499
    69   1 H        0.926     0.039     2.455     2.450
    70   1 H        0.926     0.032     2.559     2.501
    71   1 H        0.926     0.034     2.527     2.486
    72   1 H        0.926     0.036     2.504     2.475
    73   1 H        0.926     0.039     2.464     2.455
    74   1 H        0.926     0.038     2.475     2.460
    75   1 H        0.926     0.036     2.502     2.473
    76   1 H        0.926     0.037     2.492     2.468
    77   1 H        0.926     0.035     2.515     2.480
    78   1 H        0.926     0.043     2.403     2.424
    79   1 H        0.926     0.032     2.553     2.499
    80   1 H        0.926     0.035     2.520     2.482
    81   1 H        0.926     0.035     2.519     2.482
    82   1 H        0.926     0.038     2.479     2.462
    83   1 H        0.926     0.037     2.484     2.465
    84   1 H        0.926     0.035     2.511     2.478
    85   1 H        0.926     0.035     2.510     2.477
    86   1 H        0.926     0.031     2.568     2.506
    87   1 H        0.926     0.041     2.441     2.443
    88   1 H        0.926     0.032     2.555     2.499
    89   1 H        0.926     0.035     2.520     2.482
    90   1 H        0.926     0.041     2.434     2.440
    91   1 H        0.926     0.042     2.422     2.434
    92   1 H        0.926     0.045     2.385     2.415
    93   1 H        0.926     0.051     2.304     2.374

molecular dipole:
                 x           y           z       tot (Debye)
 q only:        3.940       2.419       1.378
   full:        3.873       2.311       1.310      11.936

 projected vibrational frequencies (cm⁻¹)
eigval :       -0.00    -0.00    -0.00     0.00     0.00     0.00
eigval :        6.00     7.25    12.96    15.94    18.41    25.02
eigval :       26.15    32.87    45.37    53.18    58.34    70.87
eigval :       77.50    92.29    93.91    99.97   103.04   117.20
eigval :      122.70   125.88   134.05   141.06   144.88   158.15
eigval :      176.52   191.14   192.28   197.08   216.85   224.94
eigval :      234.56   234.92   257.57   264.52   269.58   271.09
eigval :      284.93   298.59   306.05   312.97   324.63   330.44
eigval :      338.69   349.43   373.15   379.86   383.74   391.15
eigval :      393.67   395.01   404.11   408.44   419.97   420.83
eigval :      433.50   434.07   443.30   449.52   466.49   483.50
eigval :      501.40   504.80   515.76   516.76   517.88   534.83
eigval :      537.95   538.38   538.72   541.05   544.21   555.01
eigval :      574.06   583.12   586.29   588.17   598.68   604.49
eigval :      618.37   621.88   630.93   633.08   652.68   656.34
eigval :      668.45   673.40   673.94   680.38   688.30   702.67
eigval :      708.73   708.95   724.95   747.99   753.47   765.79
eigval :      767.39   768.05   773.78   775.68   775.91   778.32
eigval :      783.33   797.49   812.69   825.08   839.81   852.10
eigval :      863.03   868.38   870.26   870.96   872.28   873.54
eigval :      880.02   882.57   895.80   897.33   897.63   900.11
eigval :      902.06   903.04   904.11   911.65   915.14   915.86
eigval :      916.43   918.36   918.65   921.23   923.14   926.29
eigval :      926.48   927.00   936.20   958.27   976.99   997.75
eigval :     1008.95  1010.65  1010.71  1028.74  1036.20  1065.90
eigval :     1067.17  1068.73  1070.66  1072.40  1083.32  1104.16
eigval :     1110.18  1116.90  1118.25  1127.51  1136.92  1143.54
eigval :     1144.16  1145.10  1147.34  1161.11  1164.80  1167.25
eigval :     1175.11  1176.99  1177.75  1178.36  1181.93  1182.37
eigval :     1194.56  1205.30  1226.83  1228.02  1230.19  1231.71
eigval :     1232.30  1239.19  1239.65  1249.15  1256.00  1258.26
eigval :     1289.36  1290.18  1291.45  1292.80  1293.76  1305.16
eigval :     1309.31  1321.89  1325.69  1327.67  1334.27  1343.37
eigval :     1346.48  1349.97  1355.73  1356.91  1365.43  1396.31
eigval :     1397.58  1406.57  1407.83  1413.90  1414.64  1415.78
eigval :     1416.90  1426.14  1429.29  1437.40  1441.32  1450.72
eigval :     1452.18  1464.07  1465.61  1472.88  1480.32  1481.16
eigval :     1481.88  1482.65  1483.60  1491.10  1495.37  1495.82
eigval :     1525.80  1547.82  1560.19  1566.33  1566.92  1575.39
eigval :     1578.48  1581.51  1583.11  1584.01  1585.71  1586.02
eigval :     1600.51  1605.57  3027.73  3029.63  3049.04  3051.27
eigval :     3055.79  3059.77  3071.26  3073.79  3075.92  3076.33
eigval :     3076.61  3076.64  3081.60  3081.88  3082.34  3082.79
eigval :     3084.74  3085.24  3085.78  3088.53  3089.31  3090.11
eigval :     3091.55  3091.99  3092.25  3092.38  3094.56  3094.72
eigval :     3094.90  3095.93  3096.32  3098.86  3101.39  3101.83
eigval :     3108.48  3109.09  3109.53

   temp. (K)  partition function   enthalpy   heat capacity  entropy
                                   cal/mol     cal/K/mol   cal/K/mol   J/K/mol
 298.15  VIB  0.240E+22            26676.462    169.285    166.233
         ROT  0.143E+09              888.752      2.981     40.305
         INT  0.344E+30            27565.214    172.266    206.538
         TR   0.187E+29             1481.254      4.968     45.581
         TOT                       29046.4678   177.2343   252.1190  1054.8657

       T/K    H(0)-H(T)+PV         H(T)/Eh          T*S/Eh         G(T)/Eh
   ------------------------------------------------------------------------
    298.15    0.462885E-01    0.765561E+00    0.119790E+00    0.645771E+00
   ------------------------------------------------------------------------

         :::::::::::::::::::::::::::::::::::::::::::::::::::::
         ::                  THERMODYNAMIC                  ::
         :::::::::::::::::::::::::::::::::::::::::::::::::::::
         :: total free energy        -142.489580930959 Eh   ::
         ::.................................................::
         :: total energy             -143.135352240932 Eh   ::
         :: zero point energy           0.719272671992 Eh   ::
         :: G(RRHO) w/o ZPVE           -0.073501362019 Eh   ::
         :: G(RRHO) contrib.            0.645771309973 Eh   ::
         :::::::::::::::::::::::::::::::::::::::::::::::::::::

           -------------------------------------------------
          | TOTAL ENERGY             -143.135352240932 Eh   |
          | TOTAL ENTHALPY           -142.369791076075 Eh   |
          | TOTAL FREE ENERGY        -142.489580930959 Eh   |
          | GRADIENT NORM               0.000123193094 Eh/α |
          | HOMO-LUMO GAP               0.772867871346 eV   |
           -------------------------------------------------

 * finished run on 2025/09/08 at 06:35:53.224
