   * xtb version 6.7.1 (edcfbbe) compiled by 'albert@albert-system' on 2024-07-22

   ID    Z sym.   atoms
    1    6 C      1-9, 11-15, 17-19, 21-34, 36-56
    2    7 N      10, 20, 35
    3    8 O      16
    4    1 H      57-93

          program call               : xtb data2507/toluene/DCPDAPM/DCPDAPM.xyz --gfn 2 --gbsa toluene --ohess vtight --parallel 40 --molden --ceasefiles --namespace data2507/toluene/DCPDAPM/DCPDAPM_toluene_S0_preOpt
      * Solvation model:               GBSA
        Solvent                        toluene
        Solvent mass                       9.2140E+01 g/mol
          :  Hamiltonian                  GFN2-xTB          :
 * total energy  :  -143.1812419 Eh     change       -0.7545651E-08 Eh
 * total energy  :  -143.1999231 Eh     change       -0.1868122E-01 Eh
 * total energy  :  -143.2051443 Eh     change       -0.5221251E-02 Eh
 * total energy  :  -143.2061361 Eh     change       -0.9917943E-03 Eh
 * total energy  :  -143.2068153 Eh     change       -0.6791985E-03 Eh
 * total energy  :  -143.2071022 Eh     change       -0.2868815E-03 Eh
 * total energy  :  -143.2072688 Eh     change       -0.1665753E-03 Eh
 * total energy  :  -143.2073893 Eh     change       -0.1204782E-03 Eh
 * total energy  :  -143.2074798 Eh     change       -0.9051944E-04 Eh
 * total energy  :  -143.2075398 Eh     change       -0.5997797E-04 Eh
 * total energy  :  -143.2082331 Eh     change       -0.8652627E-06 Eh
 * total energy  :  -143.2082340 Eh     change       -0.9030821E-06 Eh
 * total energy  :  -143.2082351 Eh     change       -0.1048237E-05 Eh
 * total energy  :  -143.2082364 Eh     change       -0.1271037E-05 Eh
 * total energy  :  -143.2082379 Eh     change       -0.1516526E-05 Eh
 * total energy  :  -143.2082396 Eh     change       -0.1689228E-05 Eh
 * total energy  :  -143.2082416 Eh     change       -0.1977955E-05 Eh
 * total energy  :  -143.2082436 Eh     change       -0.2063572E-05 Eh
 * total energy  :  -143.2082436 Eh     change       -0.7335331E-08 Eh
   *** GEOMETRY OPTIMIZATION CONVERGED AFTER 122 ITERATIONS ***

 final structure:
================
93
 xtb: 6.7.1 (edcfbbe)
C            8.03172301383767       -0.00208912739784       -1.86154006929308
C            7.48357155875197       -0.19656710892391       -0.43513139801086
C            8.61276902846394       -0.02131775543389        0.59781128963766
C            6.41994725331349        0.85370219366566       -0.17407864787372
C            6.76018710954276        2.19876141632850       -0.23621222414761
C            5.84378003459865        3.20270117672222        0.01727483547125
C            4.54743964554134        2.86269406314926        0.35981755845180
C            4.18254548515042        1.53429692182812        0.42839942171789
C            5.10065967934265        0.51763954114195        0.14758150196910
N            4.70171477770484       -0.81093365721836        0.22016709454048
C            3.36030852714601       -1.10875240244459        0.56764433384594
C            3.05959096591274       -1.59799002320859        1.83659483696576
C            1.75167523460761       -1.87765615046506        2.17369637606939
C            0.71958722404445       -1.65598516931940        1.26070802429556
C           -0.66653193962145       -1.97349390619297        1.67356730015376
O           -0.90500916878850       -2.86446572217134        2.47297203220680
C           -1.76092617618743       -1.15645507834810        1.08675411115201
C           -3.01414934994709       -1.74318845340983        0.94199842743119
C           -4.07374262014749       -1.01035136122812        0.41866657415849
N           -5.32722457652716       -1.60665900414183        0.25361386259171
C           -5.56435897168213       -2.82749983357601       -0.35310245212815
C           -4.67763569163992       -3.69066867077186       -0.98067140440196
C           -5.18921107553899       -4.84405434945088       -1.54545702300848
C           -6.55096869175715       -5.13438390668849       -1.49929920615628
C           -7.44139349729112       -4.26705889143815       -0.89771968331491
C           -6.95044984290180       -3.10178032394483       -0.32282487074580
C           -7.57308746046126       -1.99271711108662        0.34637474872071
C           -8.88738311181643       -1.70190711032498        0.68903231032985
C           -9.15046170874556       -0.52736102192956        1.36600665259001
C           -8.12064743204950        0.34371884723587        1.71452898742603
C           -6.80516794612854        0.07553888754924        1.38462220485891
C           -6.53766140465869       -1.09094969801601        0.68240455180433
C           -3.88324549799657        0.32393213933256        0.06968614294237
C           -2.63704542437245        0.92124793997020        0.23813203899352
N           -2.44991711641554        2.26176193568009       -0.11367585582552
C           -2.84222421311489        2.84924476788916       -1.30454777235595
C           -3.44650100398179        2.28141157364004       -2.41728440773888
C           -3.70660607910811        3.10020269751936       -3.50040314865343
C           -3.36827477530023        4.45154778135695       -3.48944492079635
C           -2.74044200090018        5.01589692604250       -2.39665268647284
C           -2.46876739670428        4.21239526815188       -1.29662124896949
C           -1.82223056919435        4.45351489376542       -0.03605620408475
C           -1.26221735020335        5.58324803166575        0.54645045385333
C           -0.72428687055271        5.47677523845616        1.81384011160338
C           -0.75657359711899        4.26772169349294        2.50511555397546
C           -1.31055920758861        3.13079158248636        1.94659169405978
C           -1.82686413467985        3.22428129561470        0.66181558480383
C           -1.57214337838571        0.17775480224346        0.73979897589033
C            1.02842958424088       -1.18723005301103       -0.01687431355531
C            2.33865073005473       -0.91762308172703       -0.35929506923233
C            5.58727254106251       -1.85509099324641       -0.01216512270274
C            5.12669211583134       -3.17486044673789        0.02549676003438
C            5.98259792334421       -4.23342556470551       -0.19640220479463
C            7.31709863035487       -3.99375798517198       -0.47070533500227
C            7.76888122711735       -2.68849284222737       -0.53491355257166
C            6.92907746134066       -1.60403498523946       -0.31749858456919
H            7.22820511480970       -0.11935845146332       -2.58687115508217
H            8.45918044126468        0.98961369634044       -1.98026116761965
H            8.80348893488101       -0.73361353626475       -2.08401575654154
H            9.40607477047873       -0.74463545317576        0.43088828318283
H            9.04274405989533        0.97453720123469        0.53776046704207
H            8.22175805740943       -0.16651373900153        1.60357738241337
H            7.77221205145695        2.47778179958823       -0.48755224254036
H            6.14296167019328        4.23832678207547       -0.04280267837501
H            3.81733386798978        3.62848172974542        0.57788327749275
H            3.17267943698436        1.28040967731084        0.71121423308732
H            3.85663259446197       -1.75717686681450        2.54739784955787
H            1.50314492742531       -2.25640982419601        3.15416114996666
H           -3.15283844956682       -2.76804945061619        1.25062598279359
H           -3.62221736574065       -3.47038272182974       -1.03630491944240
H           -4.51765482624709       -5.53401359789249       -2.03533159871803
H           -6.91168766807138       -6.04737141459716       -1.94973470300020
H           -8.49866185937209       -4.48444089381368       -0.87613485305051
H           -9.68323586501422       -2.38532120142677        0.43363801960573
H          -10.16581925067621       -0.28150820882227        1.64009543850093
H           -8.35387237147242        1.24737312099448        2.25857558436627
H           -6.01507529279518        0.74915016707948        1.68002135295661
H           -4.70646342485264        0.89833577168084       -0.32561283023144
H           -3.69694373944811        1.23197051509133       -2.44975556129820
H           -4.18025602964004        2.68092698471561       -4.37604100463726
H           -3.59193182667257        5.05911762894103       -4.35395583363354
H           -2.46007179176144        6.05846087616238       -2.39471513677512
H           -1.25418559541503        6.52431262331835        0.01738579561399
H           -0.28075080202218        6.34229460140365        2.28372458991161
H           -0.34391435479041        4.21745602254507        3.50222865555399
H           -1.34737813863917        2.20659854651625        2.50351632960208
H           -0.60832546906224        0.64465456358592        0.86462159952276
H            0.24664495912050       -1.06101468656019       -0.75037793384577
H            2.58234728933956       -0.55625582980769       -1.34732705565223
H            4.08492571849049       -3.37310006640673        0.22587971357078
H            5.60253944934570       -5.24385486256724       -0.15789772071789
H            7.99874317999239       -4.81320812039437       -0.64265860433066
H            8.80937712802621       -2.51555320848861       -0.76443389533395

          :  Hamiltonian                  GFN2-xTB          :
         :: gradient norm              0.000068237099 Eh/a0 ::
         :: HOMO-LUMO gap              1.276173981432 eV    ::
         :: SCC energy              -145.818700378068 Eh    ::
         :: -> dispersion             -0.131367225296 Eh    ::
         :: -> Gsolv                  -0.059254795609 Eh    ::
         :: repulsion energy           2.610456755371 Eh    ::

    * Orbital Energies and Occupations

         #    Occupation            Energy/Eh            Energy/eV
      -------------------------------------------------------------
         1        2.0000           -0.7185503             -19.5527
       ...           ...                  ...                  ...
       121        2.0000           -0.4092881             -11.1373
       122        2.0000           -0.4091376             -11.1332
       123        2.0000           -0.4084743             -11.1152
       124        2.0000           -0.4082002             -11.1077
       125        2.0000           -0.4046212             -11.0103
       126        2.0000           -0.4038756             -10.9900
       127        2.0000           -0.3984716             -10.8430
       128        2.0000           -0.3931484             -10.6981
       129        2.0000           -0.3826082             -10.4113
       130        2.0000           -0.3817043             -10.3867
       131        2.0000           -0.3690218             -10.0416
       132        2.0000           -0.3679719             -10.0130
       133        2.0000           -0.3483452              -9.4790 (HOMO)
       134                         -0.3014467              -8.2028 (LUMO)
       135                         -0.2550121              -6.9392
       136                         -0.2528381              -6.8801
       137                         -0.2472904              -6.7291
       138                         -0.2458186              -6.6891
       139                         -0.2440072              -6.6398
       140                         -0.2259743              -6.1491
       141                         -0.2251306              -6.1261
       142                         -0.2249978              -6.1225
       143                         -0.2200025              -5.9866
       144                         -0.2189226              -5.9572
       ...                                ...                  ...
       261                          0.7412031              20.1692
      -------------------------------------------------------------
                  HL-Gap            0.0468985 Eh            1.2762 eV

     #   Z          covCN         q      C6AA      α(0)
     1   6 C        3.761    -0.104    22.529     6.766
     2   6 C        3.909     0.021    20.162     6.382
     3   6 C        3.761    -0.104    22.526     6.766
     4   6 C        2.979    -0.013    28.333     8.731
     5   6 C        2.928    -0.037    28.923     8.820
     6   6 C        2.917    -0.045    29.128     8.850
     7   6 C        2.919    -0.034    28.854     8.809
     8   6 C        2.924    -0.060    29.487     8.905
     9   6 C        2.927     0.058    26.706     8.475
    10   7 N        2.754    -0.070    22.604     7.061
    11   6 C        2.927     0.079    26.248     8.402
    12   6 C        2.919    -0.035    28.873     8.811
    13   6 C        2.924    -0.016    28.402     8.740
    14   6 C        2.971    -0.014    28.366     8.736
    15   6 C        2.830     0.230    23.188     7.891
    16   8 O        0.858    -0.408    21.841     6.266
    17   6 C        2.970    -0.010    28.256     8.719
    18   6 C        2.927    -0.038    28.934     8.821
    19   6 C        2.909     0.071    26.422     8.429
    20   7 N        2.802    -0.042    22.050     6.974
    21   6 C        3.071     0.046    26.888     8.502
    22   6 C        2.910    -0.051    29.266     8.871
    23   6 C        2.924    -0.034    28.842     8.807
    24   6 C        2.920    -0.041    29.019     8.834
    25   6 C        2.912    -0.034    28.839     8.806
    26   6 C        3.066    -0.016    28.350     8.731
    27   6 C        3.067    -0.016    28.349     8.731
    28   6 C        2.912    -0.034    28.837     8.806
    29   6 C        2.920    -0.041    29.018     8.834
    30   6 C        2.924    -0.034    28.840     8.807
    31   6 C        2.910    -0.052    29.279     8.873
    32   6 C        3.070     0.046    26.892     8.503
    33   6 C        2.925    -0.055    29.365     8.887
    34   6 C        2.909     0.070    26.430     8.430
    35   7 N        2.802    -0.041    22.030     6.971
    36   6 C        3.069     0.046    26.906     8.505
    37   6 C        2.910    -0.052    29.280     8.873
    38   6 C        2.924    -0.034    28.836     8.806
    39   6 C        2.920    -0.041    29.011     8.833
    40   6 C        2.912    -0.033    28.831     8.805
    41   6 C        3.066    -0.016    28.343     8.730
    42   6 C        3.066    -0.016    28.341     8.729
    43   6 C        2.912    -0.033    28.833     8.805
    44   6 C        2.920    -0.041    29.013     8.833
    45   6 C        2.924    -0.034    28.840     8.807
    46   6 C        2.910    -0.052    29.281     8.873
    47   6 C        3.069     0.046    26.909     8.506
    48   6 C        2.923    -0.048    29.191     8.860
    49   6 C        2.920    -0.025    28.624     8.774
    50   6 C        2.920    -0.036    28.892     8.815
    51   6 C        2.927     0.058    26.705     8.475
    52   6 C        2.924    -0.060    29.484     8.905
    53   6 C        2.919    -0.034    28.857     8.809
    54   6 C        2.917    -0.046    29.131     8.851
    55   6 C        2.928    -0.037    28.925     8.820
    56   6 C        2.979    -0.013    28.333     8.731
    57   1 H        0.925     0.030     2.580     2.512
    58   1 H        0.925     0.042     2.421     2.433
    59   1 H        0.925     0.042     2.425     2.435
    60   1 H        0.925     0.042     2.423     2.434
    61   1 H        0.925     0.042     2.423     2.434
    62   1 H        0.925     0.030     2.584     2.514
    63   1 H        0.926     0.034     2.536     2.490
    64   1 H        0.926     0.027     2.635     2.538
    65   1 H        0.926     0.028     2.620     2.531
    66   1 H        0.926     0.024     2.677     2.559
    67   1 H        0.926     0.054     2.268     2.355
    68   1 H        0.926     0.056     2.248     2.345
    69   1 H        0.926     0.060     2.201     2.320
    70   1 H        0.926     0.029     2.605     2.524
    71   1 H        0.926     0.032     2.558     2.501
    72   1 H        0.926     0.031     2.574     2.509
    73   1 H        0.926     0.034     2.533     2.489
    74   1 H        0.926     0.034     2.535     2.490
    75   1 H        0.926     0.031     2.573     2.508
    76   1 H        0.926     0.033     2.549     2.496
    77   1 H        0.926     0.031     2.579     2.511
    78   1 H        0.926     0.062     2.171     2.304
    79   1 H        0.926     0.031     2.567     2.505
    80   1 H        0.926     0.033     2.547     2.496
    81   1 H        0.926     0.031     2.574     2.509
    82   1 H        0.926     0.034     2.534     2.489
    83   1 H        0.926     0.034     2.531     2.488
    84   1 H        0.926     0.031     2.576     2.510
    85   1 H        0.926     0.032     2.560     2.502
    86   1 H        0.926     0.029     2.605     2.524
    87   1 H        0.926     0.057     2.229     2.335
    88   1 H        0.926     0.054     2.272     2.357
    89   1 H        0.926     0.056     2.249     2.345
    90   1 H        0.926     0.024     2.673     2.557
    91   1 H        0.926     0.027     2.629     2.536
    92   1 H        0.926     0.026     2.638     2.540
    93   1 H        0.926     0.034     2.537     2.491

molecular dipole:
                 x           y           z       tot (Debye)
 q only:        0.588       0.970      -0.890
   full:        0.598       0.948      -0.859       3.589

 projected vibrational frequencies (cm⁻¹)
eigval :       -0.00    -0.00     0.00     0.00     0.00     0.00
eigval :        3.87     6.15    10.22    18.51    21.20    24.21
eigval :       25.03    32.31    39.46    51.69    55.23    61.73
eigval :       75.81    94.06   100.01   101.54   103.80   116.39
eigval :      117.71   124.89   138.86   141.92   147.15   157.16
eigval :      174.86   182.21   194.26   205.54   217.49   220.19
eigval :      234.38   246.21   255.95   257.95   273.34   273.40
eigval :      286.40   298.26   308.18   313.41   329.26   330.24
eigval :      344.65   348.69   372.92   376.56   383.55   391.88
eigval :      395.36   396.84   406.41   410.19   423.23   424.40
eigval :      433.91   437.88   439.44   452.70   478.17   485.90
eigval :      495.68   511.66   516.28   517.53   520.05   530.03
eigval :      540.72   541.83   543.76   548.26   557.45   568.59
eigval :      581.16   584.62   587.98   595.17   600.17   608.13
eigval :      620.06   630.43   639.55   652.66   669.42   672.90
eigval :      675.24   680.28   683.64   689.54   694.58   708.02
eigval :      709.83   729.80   737.60   749.33   754.39   769.32
eigval :      769.76   770.23   776.38   779.60   780.90   781.73
eigval :      787.71   819.10   829.16   848.47   867.00   867.27
eigval :      870.11   870.48   871.99   874.02   880.19   889.19
eigval :      893.17   897.79   899.28   901.08   903.00   906.04
eigval :      910.00   914.38   915.15   915.82   916.10   921.25
eigval :      922.84   922.88   923.95   924.24   926.18   926.95
eigval :      929.34   934.12   938.42   957.19   991.73  1004.84
eigval :     1010.76  1012.71  1012.90  1032.37  1045.52  1070.61
eigval :     1071.00  1073.65  1074.42  1075.79  1084.79  1113.32
eigval :     1118.61  1120.23  1123.22  1129.37  1141.29  1149.65
eigval :     1151.38  1154.23  1158.08  1164.38  1172.23  1177.41
eigval :     1179.64  1179.78  1180.59  1181.28  1185.70  1190.35
eigval :     1197.57  1208.79  1227.25  1233.98  1234.94  1235.91
eigval :     1236.06  1246.35  1249.46  1258.98  1262.87  1268.72
eigval :     1293.55  1294.49  1296.62  1299.18  1300.92  1310.58
eigval :     1314.88  1320.04  1323.88  1331.50  1332.69  1334.78
eigval :     1354.81  1355.48  1357.94  1360.15  1381.18  1399.15
eigval :     1399.74  1415.96  1417.85  1418.86  1426.15  1427.34
eigval :     1435.20  1439.24  1450.32  1456.04  1470.27  1473.49
eigval :     1475.10  1476.09  1484.35  1485.67  1485.74  1486.51
eigval :     1494.68  1495.08  1502.04  1553.65  1561.30  1563.48
eigval :     1573.89  1574.08  1574.60  1576.73  1587.14  1587.82
eigval :     1589.64  1590.40  1597.22  1597.61  1600.33  1611.69
eigval :     1612.14  1656.07  3020.97  3023.65  3038.81  3040.79
eigval :     3047.57  3051.71  3072.21  3072.42  3073.01  3073.18
eigval :     3073.73  3074.53  3078.21  3078.52  3079.24  3079.87
eigval :     3080.10  3080.12  3085.15  3085.80  3085.99  3086.72
eigval :     3087.03  3087.50  3090.91  3091.35  3092.51  3092.76
eigval :     3094.94  3095.41  3096.29  3097.72  3098.34  3099.87
eigval :     3103.04  3108.61  3111.66

   temp. (K)  partition function   enthalpy   heat capacity  entropy
                                   cal/mol     cal/K/mol   cal/K/mol   J/K/mol
 298.15  VIB  0.519E+22            26532.693    167.604    166.111
         ROT  0.141E+09              888.752      2.981     40.275
         INT  0.733E+30            27421.445    170.585    206.386
         TR   0.187E+29             1481.254      4.968     45.581
         TOT                       28902.6993   175.5533   251.9671  1054.2303

       T/K    H(0)-H(T)+PV         H(T)/Eh          T*S/Eh         G(T)/Eh
   ------------------------------------------------------------------------
    298.15    0.460594E-01    0.768761E+00    0.119718E+00    0.649044E+00
   ------------------------------------------------------------------------

         :::::::::::::::::::::::::::::::::::::::::::::::::::::
         ::                  THERMODYNAMIC                  ::
         :::::::::::::::::::::::::::::::::::::::::::::::::::::
         :: total free energy        -142.559199889350 Eh   ::
         ::.................................................::
         :: total energy             -143.208243625801 Eh   ::
         :: zero point energy           0.722702043870 Eh   ::
         :: G(RRHO) w/o ZPVE           -0.073658307419 Eh   ::
         :: G(RRHO) contrib.            0.649043736451 Eh   ::
         :::::::::::::::::::::::::::::::::::::::::::::::::::::

           -------------------------------------------------
          | TOTAL ENERGY             -143.208243625801 Eh   |
          | TOTAL ENTHALPY           -142.439482198816 Eh   |
          | TOTAL FREE ENERGY        -142.559199889350 Eh   |
          | GRADIENT NORM               0.000068217229 Eh/α |
          | HOMO-LUMO GAP               1.276174345359 eV   |
           -------------------------------------------------

 * finished run on 2025/09/08 at 06:17:16.107
