   * xtb version 6.7.1 (edcfbbe) compiled by 'albert@albert-system' on 2024-07-22

   ID    Z sym.   atoms
    1    6 C      1-9, 11-23, 25-31, 33-46, 48-53
    2    7 N      10, 24, 32, 47
    3    1 H      54-89

          program call               : xtb data2507/gas/12AcCz-PM/12AcCz-PM_gas_T1_crest.xyz --gfn 2 --spinpol --tblite --uhf 2 --ohess vtight --parallel 40 --molden --ceasefiles --namespace data2507/gas/12AcCz-PM/12AcCz-PM_gas_T1_finalOpt
 * total energy  :  -134.9717599 Eh     change        0.5039587E-07 Eh
 * total energy  :  -134.9718587 Eh     change       -0.9873752E-04 Eh
 * total energy  :  -134.9719085 Eh     change       -0.4980841E-04 Eh
 * total energy  :  -134.9719125 Eh     change       -0.3984429E-05 Eh
 * total energy  :  -134.9719169 Eh     change       -0.4404188E-05 Eh
 * total energy  :  -134.9719189 Eh     change       -0.2018907E-05 Eh
 * total energy  :  -134.9719228 Eh     change       -0.3933361E-05 Eh
 * total energy  :  -134.9719249 Eh     change       -0.2093977E-05 Eh
 * total energy  :  -134.9719282 Eh     change       -0.3297173E-05 Eh
 * total energy  :  -134.9719314 Eh     change       -0.3173841E-05 Eh
 * total energy  :  -134.9719485 Eh     change       -0.1613991E-05 Eh
 * total energy  :  -134.9719496 Eh     change       -0.1140415E-05 Eh
 * total energy  :  -134.9719501 Eh     change       -0.4920295E-06 Eh
 * total energy  :  -134.9719509 Eh     change       -0.8231045E-06 Eh
 * total energy  :  -134.9719511 Eh     change       -0.1869828E-06 Eh
 * total energy  :  -134.9719511 Eh     change       -0.3383897E-07 Eh
 * total energy  :  -134.9719513 Eh     change       -0.1325808E-06 Eh
 * total energy  :  -134.9719514 Eh     change       -0.1656857E-06 Eh
 * total energy  :  -134.9719514 Eh     change       -0.1533550E-08 Eh
   *** GEOMETRY OPTIMIZATION CONVERGED AFTER 28 ITERATIONS ***

 final structure:
================
89
 xtb: 6.7.1 (edcfbbe)
C            4.67062439273152        3.91886125064473        2.55084477863550
C            3.52672911902680        3.21715231949517        1.81870795070385
C            2.35264585291923        3.06473781800691        2.80813448086467
C            3.05106653063795        4.00034102590768        0.60841311946182
C            3.38235156437863        5.31834144325159        0.34071292527739
C            2.90222789931019        5.95711557888105       -0.79131869080339
C            2.10381404731934        5.27378222804443       -1.69150391409796
C            1.76809487907980        3.95555944897339       -1.44950326717594
C            2.21341245364614        3.32906752893223       -0.29064383040071
N            1.92813365590573        1.97608953758252       -0.04072593707871
C            0.63910509026295        1.47031054775851        0.04052370225624
C           -0.48205802240614        2.26283016594164       -0.25684273582776
C           -1.74862204051653        1.74702871282860       -0.17983792443253
C           -1.98862891267896        0.41326432801282        0.21229745833993
C           -3.32987365291058       -0.08509138017855        0.23937180434249
C           -3.67890278605376       -1.41545389164376        0.50110932765646
C           -5.02019712894071       -1.77277790447901        0.48709953461824
C           -5.52028496827955       -3.10150071853191        0.74971147958823
C           -4.68562085288100       -4.21135445204666        0.94651695852915
C           -5.21840833677898       -5.45826833758529        1.19451048227277
C           -6.59210670529505       -5.64313316088962        1.25501173467389
C           -7.43222588965120       -4.55596730022514        1.06031582495888
C           -6.90882742243530       -3.30737732386139        0.81119905122814
N           -5.94831496750219       -0.80266219854746        0.21762968231461
C           -5.59252333801524        0.43640011841877       -0.04935996637608
C           -6.62648236378894        1.42599847597424       -0.35518583882966
C           -7.96245124051096        1.04213154745198       -0.43800686323509
C           -8.93720898811207        1.97727281478249       -0.72756779692258
C           -8.58889974482162        3.30235998511852       -0.93657019370012
C           -7.26074055681348        3.69070560176738       -0.85557630092905
C           -6.28289424291596        2.75886306378064       -0.56673908033969
N           -4.33531440634125        0.80270488150502       -0.03890081322245
C           -0.86359920163239       -0.34720730798946        0.58643731286468
C            0.40463145804589        0.16754424875740        0.51314075173180
C            3.05897481869292        1.25446740920918        0.36628990360757
C            3.91960638912148        1.84358727276950        1.29898632948301
C            5.06037311399153        1.16051381613153        1.70868730975825
C            5.37764864970608       -0.09561784581985        1.22531866286781
C            4.54194037357171       -0.66142636318096        0.27521483794797
C            3.39788037957334        0.01994133664563       -0.19845207655851
C            2.85405319170414       -0.78481796432080       -1.25855905050091
C            1.78525287780325       -0.63938850594226       -2.13763760590316
C            1.53439382039363       -1.64389559428880       -3.04978010843608
C            2.32299246937829       -2.79130458442371       -3.09521540191578
C            3.40464156619324       -2.95005240423052       -2.25151628102332
C            3.67964799854613       -1.93086077232933       -1.35119460373758
N            4.68897546105284       -1.84538920802289       -0.41495702381041
C            5.70830839609187       -2.78681691724778       -0.21096719667500
C            5.97264361483229       -3.25984891483837        1.07098958885869
C            6.98063301641539       -4.18456145892361        1.27108376960709
C            7.72348082659832       -4.65087884880703        0.19919021489847
C            7.45909618950304       -4.18338801215624       -1.07747305848517
C            6.46012284437105       -3.25066490818051       -1.28620877265663
H            4.96832646786765        3.34275286169715        3.42325157200271
H            4.34462916631688        4.89338590089563        2.90568704739113
H            5.53158553737338        4.04769665418215        1.89869897901754
H            1.49832457114058        2.57357211785513        2.35073623076273
H            2.66830998612045        2.47249230242690        3.66457066192296
H            2.03553399878630        4.04479996476429        3.15872268762052
H            4.01956882852319        5.86812120983545        1.01415001715715
H            3.16666933331641        6.98738042116597       -0.97593265184706
H            1.75303484151449        5.76105194964854       -2.58871393945605
H            1.18401888521719        3.39958842470133       -2.16717680313091
H           -0.35519218086712        3.30004384651120       -0.52443035948757
H           -2.59813544890841        2.36850882442777       -0.41677622433981
H           -2.91642799560554       -2.14692403492134        0.70630882289717
H           -3.61283516771092       -4.10300751258058        0.89842670746975
H           -4.55675383847017       -6.30047833592334        1.34181735086308
H           -7.00188447593237       -6.62301144634867        1.44985168351005
H           -8.50405111922105       -4.68933082346844        1.10394577309806
H           -7.55909939255104       -2.45874217985615        0.66201394403298
H           -8.21756823916061        0.00619857058602       -0.27500961099454
H           -9.97245717636868        1.67531450786721       -0.79154765229255
H           -9.35240079604613        4.03255440191569       -1.16223518454291
H           -6.99037073429842        4.72404075615402       -1.01787319074690
H           -5.24470792479116        3.04579090935919       -0.49821808691675
H           -0.98643876021282       -1.35161717119924        0.95979443962698
H            1.23304311752985       -0.43896350265944        0.84189558899974
H            5.72387265136420        1.60754074577221        2.42994854813783
H            6.26878282744168       -0.60392815149017        1.55885836064790
H            1.16007535578665        0.23812765242321       -2.11202821062595
H            0.70646249535053       -1.54487932730276       -3.73557326053023
H            2.08727525071069       -3.56907125163574       -3.80628310742753
H            4.01187395298181       -3.84188275211936       -2.28670026164764
H            5.37703772910239       -2.90911627637328        1.90065652108998
H            7.18114006990656       -4.54899725091215        2.26768186448782
H            8.50655987264927       -5.37654991144840        0.35840372797552
H            8.03943021203144       -4.54064078784257       -1.91517880486258
H            6.26601654139760       -2.86658288187398       -2.27646218503610

 projected vibrational frequencies (cm⁻¹)
eigval :       -0.00    -0.00     0.00     0.00     0.00     0.00
eigval :        5.42    10.13    14.46    16.29    22.86    29.82
eigval :       34.89    41.67    48.27    56.52    58.18    62.54
eigval :       65.57    78.10    82.95    95.74   109.06   115.09
eigval :      131.29   137.59   152.64   159.70   174.88   179.86
eigval :      192.17   194.81   201.04   211.35   218.08   234.03
eigval :      245.60   254.31   263.87   279.95   284.57   292.66
eigval :      306.01   319.81   332.12   343.89   359.07   366.08
eigval :      366.83   371.34   377.23   380.43   382.73   383.89
eigval :      393.32   401.95   405.49   412.85   418.65   436.84
eigval :      456.46   460.51   466.58   480.26   488.87   509.76
eigval :      520.52   526.95   530.51   537.97   545.47   570.26
eigval :      576.30   579.35   582.24   587.70   588.71   590.14
eigval :      591.08   600.68   610.91   618.20   625.39   630.77
eigval :      643.77   648.01   654.47   663.18   664.54   670.85
eigval :      679.88   686.62   705.07   715.29   743.62   749.97
eigval :      764.15   764.31   769.79   773.21   783.32   791.28
eigval :      806.21   816.31   816.89   828.27   834.67   844.78
eigval :      850.65   867.59   872.71   875.10   880.10   881.10
eigval :      889.32   895.30   895.63   901.43   902.68   904.71
eigval :      907.25   911.00   913.49   916.80   918.12   919.09
eigval :      919.46   922.11   927.54   931.54   932.72   934.06
eigval :      935.94   948.41   969.24   973.29   980.11   989.78
eigval :      998.33  1002.39  1009.90  1041.55  1058.86  1068.16
eigval :     1072.40  1075.13  1077.35  1080.30  1083.09  1090.42
eigval :     1104.24  1111.20  1117.84  1123.31  1132.52  1144.21
eigval :     1150.11  1154.66  1166.26  1175.50  1178.75  1179.90
eigval :     1180.61  1180.78  1185.08  1188.39  1192.75  1199.04
eigval :     1202.37  1206.28  1218.06  1233.63  1243.85  1251.07
eigval :     1262.26  1264.70  1268.31  1271.24  1274.50  1277.16
eigval :     1284.05  1294.78  1297.71  1311.72  1318.21  1323.73
eigval :     1325.44  1327.64  1332.39  1333.87  1353.79  1354.31
eigval :     1361.20  1375.18  1379.32  1392.18  1398.57  1412.64
eigval :     1417.55  1422.78  1428.49  1432.02  1436.72  1437.29
eigval :     1440.66  1445.97  1448.79  1457.78  1468.90  1473.23
eigval :     1480.16  1483.60  1484.60  1492.18  1492.33  1494.92
eigval :     1506.70  1524.35  1550.37  1558.11  1566.61  1571.92
eigval :     1577.41  1581.41  1584.52  1584.88  1586.38  1589.19
eigval :     1594.87  1595.53  1601.54  3026.36  3028.97  3031.39
eigval :     3034.61  3046.60  3055.04  3065.22  3067.57  3073.02
eigval :     3078.53  3079.68  3080.44  3081.73  3082.24  3084.29
eigval :     3087.20  3088.08  3088.78  3088.87  3091.30  3092.00
eigval :     3093.69  3094.09  3094.57  3095.45  3095.91  3097.69
eigval :     3097.84  3098.71  3100.24  3104.75  3110.67  3111.39
eigval :     3113.26  3118.24  3120.32

   temp. (K)  partition function   enthalpy   heat capacity  entropy
                                   cal/mol     cal/K/mol   cal/K/mol   J/K/mol
 298.15  VIB  0.203E+21            25445.872    160.823    158.857
         ROT  0.129E+09              888.752      2.981     40.096
         INT  0.262E+29            26334.625    163.804    198.953
         TR   0.172E+29             1481.254      4.968     45.415
         TOT                       27815.8786   168.7720   244.3679  1022.4354

       T/K    H(0)-H(T)+PV         H(T)/Eh          T*S/Eh         G(T)/Eh
   ------------------------------------------------------------------------
    298.15    0.443274E-01    0.735885E+00    0.116107E+00    0.619778E+00
   ------------------------------------------------------------------------

         :::::::::::::::::::::::::::::::::::::::::::::::::::::
         ::                  THERMODYNAMIC                  ::
         :::::::::::::::::::::::::::::::::::::::::::::::::::::
         :: total free energy        -134.352173855638 Eh   ::
         ::.................................................::
         :: total energy             -134.971951433566 Eh   ::
         :: zero point energy           0.691557246235 Eh   ::
         :: G(RRHO) w/o ZPVE           -0.071779668307 Eh   ::
         :: G(RRHO) contrib.            0.619777577928 Eh   ::
         :::::::::::::::::::::::::::::::::::::::::::::::::::::

           -------------------------------------------------
          | TOTAL ENERGY             -134.971951433566 Eh   |
          | TOTAL ENTHALPY           -134.236066763233 Eh   |
          | TOTAL FREE ENERGY        -134.352173855638 Eh   |
          | GRADIENT NORM               0.000208296256 Eh/α |
           -------------------------------------------------

 * finished run on 2025/09/12 at 17:48:10.092
