   * xtb version 6.7.1 (edcfbbe) compiled by 'albert@albert-system' on 2024-07-22

   ID    Z sym.   atoms
    1    6 C      1-9, 11-23, 25-31, 33-46, 48-53
    2    7 N      10, 24, 32, 47
    3    1 H      54-89

          program call               : xtb data2507/gas/12AcCz-PM/12AcCz-PM_gas_S0_crest.xyz --gfn 2 --ohess vtight --parallel 40 --molden --ceasefiles --namespace data2507/gas/12AcCz-PM/12AcCz-PM_gas_S0_finalOpt
          :  Hamiltonian                  GFN2-xTB          :
 * total energy  :  -135.0481884 Eh     change       -0.3364050E-08 Eh
 * total energy  :  -135.0481899 Eh     change       -0.1415477E-05 Eh
 * total energy  :  -135.0481929 Eh     change       -0.3065510E-05 Eh
 * total energy  :  -135.0482002 Eh     change       -0.7226266E-05 Eh
 * total energy  :  -135.0482118 Eh     change       -0.1168722E-04 Eh
 * total energy  :  -135.0482220 Eh     change       -0.1019608E-04 Eh
 * total energy  :  -135.0482286 Eh     change       -0.6558841E-05 Eh
 * total energy  :  -135.0482344 Eh     change       -0.5789153E-05 Eh
 * total energy  :  -135.0482427 Eh     change       -0.8268981E-05 Eh
 * total energy  :  -135.0482560 Eh     change       -0.1338868E-04 Eh
 * total energy  :  -135.0484719 Eh     change       -0.6666132E-06 Eh
 * total energy  :  -135.0484724 Eh     change       -0.5429762E-06 Eh
 * total energy  :  -135.0484728 Eh     change       -0.4035333E-06 Eh
 * total energy  :  -135.0484732 Eh     change       -0.3560295E-06 Eh
 * total energy  :  -135.0484736 Eh     change       -0.4205739E-06 Eh
 * total energy  :  -135.0484742 Eh     change       -0.6081983E-06 Eh
 * total energy  :  -135.0484751 Eh     change       -0.8177086E-06 Eh
 * total energy  :  -135.0484761 Eh     change       -0.1047505E-05 Eh
 * total energy  :  -135.0484761 Eh     change       -0.3361293E-08 Eh
   *** GEOMETRY OPTIMIZATION CONVERGED AFTER 94 ITERATIONS ***

 final structure:
================
89
 xtb: 6.7.1 (edcfbbe)
C            4.58039928394114        3.27459535612876        3.27117648977068
C            3.46359161618122        2.74650241675610        2.37079864389609
C            2.24297309862786        2.43790171980793        3.26185951530579
C            3.05606640717322        3.75266700719970        1.30783798684962
C            3.42198229448395        5.08940101171733        1.30684187695419
C            3.00774233248503        5.93904540498329        0.29439576875483
C            2.24365389163802        5.45594402928891       -0.75251939258905
C            1.87906273072778        4.12280214401038       -0.77821788709255
C            2.25776649964679        3.28216752509395        0.26046152092376
N            1.93857579567037        1.90929834807962        0.23615085243662
C            0.64111293014050        1.43464725849770        0.23919576242890
C           -0.45204159929702        2.29233986398133        0.05954518261072
C           -1.73669639546536        1.80239102525087        0.04980319465422
C           -2.00075144281804        0.44593442667914        0.24545627840529
C           -3.38191105991225       -0.02850739884943        0.21554137586579
C           -3.79215273456588       -1.21930193565195        0.82100928985910
C           -5.14017955517354       -1.55367822944881        0.72786731292459
C           -5.69826982490792       -2.76980105461188        1.33548094166795
C           -7.03805285257769       -2.78260560285049        1.71826834241066
C           -7.59000014031577       -3.90686997162071        2.30051520922875
C           -6.81404454190969       -5.03719442219546        2.50090076564391
C           -5.48517918695148       -5.03821113472751        2.11062115350430
C           -4.92770405405411       -3.91276212829759        1.53254442214968
N           -6.00215497947828       -0.76000617651702        0.09446226894767
C           -5.53100084997046        0.35686178019921       -0.44848421053416
C           -6.48855154937978        1.22578852784924       -1.14186531254288
C           -7.83067775151724        0.86311509799387       -1.22897792900321
C           -8.73083936326896        1.68441783843153       -1.87996792748533
C           -8.30252190445081        2.87297819964386       -2.44985904327417
C           -6.96779647004930        3.23747362672646       -2.36920097790146
C           -6.06328390740856        2.41986228720090       -1.71971794017286
N           -4.26425253266639        0.74902115933541       -0.41243491212955
C           -0.91669414428035       -0.40015753584381        0.47502767854035
C            0.37293191585710        0.08003757674194        0.47805386058776
C            3.04485629525378        1.09976234853947        0.55901544664046
C            3.86484510109732        1.48620085414100        1.61955450686677
C            4.99025192765488        0.72550818495100        1.92978368830800
C            5.32224850303985       -0.41483026949398        1.22446107169094
C            4.51941124585350       -0.78038503884298        0.15529250466048
C            3.39583551191095       -0.00795441207796       -0.21568070392431
C            2.87606382625684       -0.59573937726846       -1.42150073779379
C            1.82786819818478       -0.28036699660404       -2.27917542615835
C            1.59698592300120       -1.09180036807425       -3.37159160850513
C            2.38470658658001       -2.21405027986029       -3.61490657232908
C            3.44444971681042       -2.53806094850672       -2.79053695450505
C            3.69969633933880       -1.71008125986763       -1.70702634178824
N            4.68265101702464       -1.81300970265436       -0.74398621749576
C            5.69591015057697       -2.78108269000350       -0.69962648016792
C            5.92977580001168       -3.49280150774511        0.47336052367488
C            6.93340374908084       -4.44259422448640        0.51608290274164
C            7.70238475311957       -4.69741755409964       -0.60725138259394
C            7.46824735190501       -3.99260221886430       -1.77632278188239
C            6.47388458216360       -3.03340372368925       -1.82568842850526
H            4.83110991481859        2.53789166594414        4.03034032183660
H            4.24959344033819        4.17084570373150        3.79019255308292
H            5.47197501543652        3.50737069064550        2.69318408739359
H            1.40450449335753        2.05807319926305        2.68494839085807
H            2.51081240433931        1.69070484660733        4.00625066410332
H            1.92182570458520        3.34239293160091        3.77467245290364
H            4.03417680098932        5.48852594460897        2.09924164524910
H            3.29633918613122        6.97920997696939        0.31877291014560
H            1.94267602035219        6.11114018906492       -1.55613429028132
H            1.31824894533892        3.72498515218090       -1.61059036477164
H           -0.29405260123184        3.35319632477506       -0.05229209212629
H           -2.56985030058272        2.47158172256510       -0.09735324635723
H           -3.10278331021136       -1.83221466811798        1.37669820265384
H           -7.62877859395204       -1.89467625192944        1.55421295940185
H           -8.62816273350140       -3.90466244269408        2.59937109860375
H           -7.24456182360911       -5.91739692059204        2.95563443038130
H           -4.88078571255517       -5.92214333203825        2.25537904663816
H           -3.89598859963768       -3.93330114965220        1.21322715065648
H           -8.14618902729073       -0.06729787841592       -0.78341607606073
H           -9.77108534408478        1.39946893729626       -1.94570950331492
H           -9.00840106827051        3.51408326824561       -2.95811926459984
H           -6.63419895507292        4.16312082344032       -2.81599518289258
H           -5.02026016717175        2.68608860505359       -1.65095006972329
H           -1.07273794180930       -1.45618323916142        0.63697848855771
H            1.18422306104647       -0.60118206512033        0.67690552711154
H            5.62878314724445        1.01964903160198        2.74603646608197
H            6.20042044679023       -0.98536965645442        1.48400453442432
H            1.20419391585687        0.58022675732952       -2.10004202880797
H            0.78587833721595       -0.85936106359354       -4.04521595030237
H            2.16561942410829       -2.84125227231267       -4.46637680690104
H            4.04922223109845       -3.41214479765272       -2.97957747681909
H            5.31444160075289       -3.30538621315739        1.34073690906026
H            7.11036899560263       -4.99220491828309        1.42876283973636
H            8.48237074700045       -5.44280053769771       -0.57157480339048
H            8.06907135990280       -4.18439363814570       -2.65296904819205
H            6.30335936857600       -2.46567277051455       -2.72814327001335

          :  Hamiltonian                  GFN2-xTB          :
         :: gradient norm              0.000043756967 Eh/a0 ::
         :: HOMO-LUMO gap              2.198358767274 eV    ::
         :: SCC energy              -137.540547598579 Eh    ::
         :: -> dispersion             -0.126951166735 Eh    ::
         :: repulsion energy           2.492071496569 Eh    ::

    * Orbital Energies and Occupations

         #    Occupation            Energy/Eh            Energy/eV
      -------------------------------------------------------------
         1        2.0000           -0.6787693             -18.4703
       ...           ...                  ...                  ...
       114        2.0000           -0.4033541             -10.9758
       115        2.0000           -0.4026074             -10.9555
       116        2.0000           -0.4011673             -10.9163
       117        2.0000           -0.3986385             -10.8475
       118        2.0000           -0.3979921             -10.8299
       119        2.0000           -0.3969574             -10.8018
       120        2.0000           -0.3961212             -10.7790
       121        2.0000           -0.3847936             -10.4708
       122        2.0000           -0.3819958             -10.3946
       123        2.0000           -0.3799680             -10.3395
       124        2.0000           -0.3637814              -9.8990
       125        2.0000           -0.3489923              -9.4966
       126        2.0000           -0.3459253              -9.4131 (HOMO)
       127                         -0.2651371              -7.2147 (LUMO)
       128                         -0.2588232              -7.0429
       129                         -0.2471576              -6.7255
       130                         -0.2365727              -6.4375
       131                         -0.2350081              -6.3949
       132                         -0.2300408              -6.2597
       133                         -0.2255945              -6.1387
       134                         -0.2215644              -6.0291
       135                         -0.2209123              -6.0113
       136                         -0.2185452              -5.9469
       137                         -0.2151195              -5.8537
       ...                                ...                  ...
       248                          0.7403042              20.1447
      -------------------------------------------------------------
                  HL-Gap            0.0807882 Eh            2.1984 eV

     #   Z          covCN         q      C6AA      α(0)
     1   6 C        3.759    -0.106    22.572     6.773
     2   6 C        3.911     0.024    20.119     6.375
     3   6 C        3.762    -0.098    22.423     6.750
     4   6 C        2.987    -0.007    28.193     8.710
     5   6 C        2.923    -0.038    28.955     8.824
     6   6 C        2.919    -0.037    28.924     8.819
     7   6 C        2.920    -0.034    28.835     8.806
     8   6 C        2.920    -0.045    29.113     8.848
     9   6 C        2.953     0.057    26.718     8.478
    10   7 N        2.753    -0.069    22.579     7.057
    11   6 C        2.913     0.071    26.406     8.426
    12   6 C        2.921    -0.059    29.470     8.902
    13   6 C        2.926    -0.026    28.647     8.777
    14   6 C        2.978    -0.011    28.296     8.726
    15   6 C        2.966     0.110    25.580     8.296
    16   6 C        2.912    -0.068    29.684     8.934
    17   6 C        2.969     0.108    25.618     8.302
    18   6 C        2.980     0.005    27.905     8.665
    19   6 C        2.926    -0.024    28.613     8.772
    20   6 C        2.918    -0.028    28.705     8.786
    21   6 C        2.920    -0.028    28.698     8.785
    22   6 C        2.919    -0.030    28.737     8.791
    23   6 C        2.923    -0.031    28.781     8.798
    24   7 N        1.850    -0.277    28.031     7.847
    25   6 C        2.945     0.180    24.138     8.058
    26   6 C        2.985     0.002    27.978     8.676
    27   6 C        2.924    -0.027    28.682     8.783
    28   6 C        2.918    -0.029    28.733     8.790
    29   6 C        2.920    -0.027    28.688     8.783
    30   6 C        2.918    -0.029    28.733     8.790
    31   6 C        2.924    -0.027    28.680     8.782
    32   7 N        1.850    -0.275    27.993     7.842
    33   6 C        2.922    -0.031    28.785     8.798
    34   6 C        2.922    -0.055    29.373     8.888
    35   6 C        2.946     0.052    26.835     8.496
    36   6 C        2.985    -0.020    28.504     8.758
    37   6 C        2.925    -0.043    29.073     8.842
    38   6 C        2.909    -0.060    29.486     8.904
    39   6 C        3.077     0.044    26.932     8.508
    40   6 C        3.064    -0.032    28.731     8.790
    41   6 C        3.065    -0.014    28.296     8.723
    42   6 C        2.913    -0.032    28.804     8.801
    43   6 C        2.920    -0.040    29.000     8.831
    44   6 C        2.924    -0.033    28.817     8.803
    45   6 C        2.910    -0.051    29.274     8.872
    46   6 C        3.079     0.046    26.879     8.500
    47   7 N        2.803    -0.044    22.087     6.980
    48   6 C        2.913     0.065    26.544     8.448
    49   6 C        2.922    -0.042    29.051     8.839
    50   6 C        2.920    -0.028    28.699     8.785
    51   6 C        2.919    -0.033    28.821     8.804
    52   6 C        2.920    -0.028    28.693     8.784
    53   6 C        2.922    -0.042    29.044     8.838
    54   1 H        0.925     0.039     2.457     2.451
    55   1 H        0.925     0.039     2.456     2.451
    56   1 H        0.925     0.037     2.483     2.464
    57   1 H        0.925     0.037     2.495     2.470
    58   1 H        0.925     0.037     2.490     2.468
    59   1 H        0.925     0.037     2.495     2.470
    60   1 H        0.926     0.038     2.474     2.460
    61   1 H        0.926     0.032     2.563     2.503
    62   1 H        0.926     0.033     2.538     2.491
    63   1 H        0.926     0.040     2.454     2.450
    64   1 H        0.926     0.035     2.521     2.483
    65   1 H        0.926     0.050     2.316     2.380
    66   1 H        0.926     0.029     2.603     2.523
    67   1 H        0.926     0.051     2.303     2.373
    68   1 H        0.926     0.033     2.545     2.495
    69   1 H        0.926     0.031     2.567     2.505
    70   1 H        0.926     0.030     2.579     2.512
    71   1 H        0.926     0.031     2.576     2.510
    72   1 H        0.926     0.053     2.283     2.363
    73   1 H        0.926     0.031     2.567     2.506
    74   1 H        0.926     0.031     2.578     2.511
    75   1 H        0.926     0.031     2.568     2.506
    76   1 H        0.926     0.053     2.284     2.363
    77   1 H        0.926     0.028     2.613     2.528
    78   1 H        0.926     0.032     2.560     2.502
    79   1 H        0.926     0.039     2.464     2.455
    80   1 H        0.926     0.030     2.584     2.514
    81   1 H        0.926     0.033     2.538     2.491
    82   1 H        0.926     0.029     2.598     2.520
    83   1 H        0.926     0.030     2.593     2.518
    84   1 H        0.926     0.028     2.620     2.531
    85   1 H        0.926     0.040     2.445     2.445
    86   1 H        0.926     0.036     2.497     2.471
    87   1 H        0.926     0.036     2.508     2.477
    88   1 H        0.926     0.037     2.493     2.469
    89   1 H        0.926     0.041     2.431     2.438

molecular dipole:
                 x           y           z       tot (Debye)
 q only:        1.525      -0.072       0.401
   full:        1.854      -0.417       0.603       5.067

 projected vibrational frequencies (cm⁻¹)
eigval :       -0.00    -0.00    -0.00     0.00     0.00     0.00
eigval :        6.00    11.53    15.69    24.68    30.64    32.39
eigval :       35.79    42.29    50.27    53.75    58.18    61.98
eigval :       66.13    76.57    85.34    96.19   109.47   114.65
eigval :      130.84   137.51   150.27   164.38   170.41   179.29
eigval :      190.05   202.71   211.77   218.29   223.34   241.52
eigval :      248.43   255.66   264.69   284.70   286.69   296.46
eigval :      310.62   318.74   334.03   346.11   360.24   366.19
eigval :      368.28   371.48   379.96   380.63   382.30   386.82
eigval :      397.47   407.78   413.49   425.56   434.11   448.04
eigval :      458.33   470.02   480.97   487.26   491.57   513.26
eigval :      522.38   529.79   545.22   551.46   571.43   585.71
eigval :      587.26   588.99   590.79   591.68   602.78   603.41
eigval :      609.20   616.81   621.51   628.60   634.19   647.02
eigval :      662.15   664.28   672.75   673.26   681.57   684.85
eigval :      689.39   707.35   718.67   735.57   752.12   763.98
eigval :      765.13   770.50   775.00   779.34   786.35   807.11
eigval :      819.91   832.04   835.27   843.95   845.69   855.62
eigval :      868.92   875.49   879.11   881.69   885.80   891.08
eigval :      898.67   902.55   903.63   906.39   907.96   909.41
eigval :      913.21   915.22   920.99   922.77   925.06   928.46
eigval :      931.05   932.54   932.90   933.04   934.42   938.59
eigval :      949.33   968.74   971.65   989.40   990.72  1010.51
eigval :     1010.62  1026.25  1042.22  1072.21  1076.18  1077.93
eigval :     1080.01  1080.74  1090.66  1091.31  1104.25  1106.99
eigval :     1111.01  1118.35  1125.56  1133.76  1145.44  1151.56
eigval :     1155.54  1170.18  1177.15  1180.74  1181.15  1181.46
eigval :     1181.84  1186.64  1189.70  1196.60  1200.31  1202.04
eigval :     1207.15  1216.12  1230.11  1236.84  1244.79  1253.81
eigval :     1262.18  1266.02  1270.23  1274.29  1277.00  1279.51
eigval :     1280.73  1297.62  1316.81  1318.41  1323.52  1324.57
eigval :     1328.25  1334.99  1339.77  1355.26  1362.99  1364.38
eigval :     1369.99  1378.23  1399.81  1401.46  1413.73  1417.84
eigval :     1423.08  1427.55  1432.64  1436.80  1439.18  1443.37
eigval :     1458.88  1471.59  1476.02  1478.87  1484.05  1484.97
eigval :     1494.19  1497.11  1499.60  1508.75  1513.23  1525.99
eigval :     1532.78  1553.39  1568.00  1580.03  1582.61  1584.09
eigval :     1585.58  1586.62  1591.77  1593.96  1596.42  1596.91
eigval :     1598.20  1602.92  1608.36  3024.87  3027.71  3030.19
eigval :     3034.38  3045.42  3056.53  3068.93  3070.77  3075.01
eigval :     3075.51  3078.11  3079.29  3079.77  3081.47  3082.97
eigval :     3083.29  3085.34  3086.15  3086.98  3090.00  3090.58
eigval :     3092.82  3094.29  3094.79  3096.22  3099.67  3099.87
eigval :     3102.93  3105.87  3106.92  3108.16  3110.40  3110.44
eigval :     3112.70  3114.41  3118.93

   temp. (K)  partition function   enthalpy   heat capacity  entropy
                                   cal/mol     cal/K/mol   cal/K/mol   J/K/mol
 298.15  VIB  0.492E+20            25098.682    158.871    156.322
         ROT  0.130E+09              888.752      2.981     40.103
         INT  0.638E+28            25987.434    161.852    196.425
         TR   0.172E+29             1481.254      4.968     45.415
         TOT                       27468.6881   166.8203   241.8401  1011.8589

       T/K    H(0)-H(T)+PV         H(T)/Eh          T*S/Eh         G(T)/Eh
   ------------------------------------------------------------------------
    298.15    0.437741E-01    0.739720E+00    0.114906E+00    0.624814E+00
   ------------------------------------------------------------------------

         :::::::::::::::::::::::::::::::::::::::::::::::::::::
         ::                  THERMODYNAMIC                  ::
         :::::::::::::::::::::::::::::::::::::::::::::::::::::
         :: total free energy        -134.423661720153 Eh   ::
         ::.................................................::
         :: total energy             -135.048476102010 Eh   ::
         :: zero point energy           0.695946267093 Eh   ::
         :: G(RRHO) w/o ZPVE           -0.071131885236 Eh   ::
         :: G(RRHO) contrib.            0.624814381857 Eh   ::
         :::::::::::::::::::::::::::::::::::::::::::::::::::::

           -------------------------------------------------
          | TOTAL ENERGY             -135.048476102010 Eh   |
          | TOTAL ENTHALPY           -134.308755694007 Eh   |
          | TOTAL FREE ENERGY        -134.423661720153 Eh   |
          | GRADIENT NORM               0.000043752081 Eh/α |
          | HOMO-LUMO GAP               2.198359021085 eV   |
           -------------------------------------------------

 * finished run on 2025/09/12 at 17:39:42.956
