   * xtb version 6.7.1 (edcfbbe) compiled by 'albert@albert-system' on 2024-07-22

   ID    Z sym.   atoms
    1    6 C      1-9, 11-23, 25-31, 33-46, 48-53
    2    7 N      10, 24, 32, 47
    3    1 H      54-89

          program call               : xtb data2507/gas/12AcCz-PM/12AcCz-PM.xyz --gfn 2 --ohess vtight --parallel 40 --molden --ceasefiles --namespace data2507/gas/12AcCz-PM/12AcCz-PM_gas_S0_preOpt
          :  Hamiltonian                  GFN2-xTB          :
 * total energy  :  -135.0090212 Eh     change       -0.2690058E-08 Eh
 * total energy  :  -135.0273563 Eh     change       -0.1833510E-01 Eh
 * total energy  :  -135.0343940 Eh     change       -0.7037679E-02 Eh
 * total energy  :  -135.0368524 Eh     change       -0.2458428E-02 Eh
 * total energy  :  -135.0381123 Eh     change       -0.1259879E-02 Eh
 * total energy  :  -135.0386451 Eh     change       -0.5328408E-03 Eh
 * total energy  :  -135.0389623 Eh     change       -0.3171246E-03 Eh
 * total energy  :  -135.0391934 Eh     change       -0.2311429E-03 Eh
 * total energy  :  -135.0393639 Eh     change       -0.1704927E-03 Eh
 * total energy  :  -135.0394854 Eh     change       -0.1214720E-03 Eh
 * total energy  :  -135.0402325 Eh     change       -0.6455041E-06 Eh
 * total energy  :  -135.0402331 Eh     change       -0.5491392E-06 Eh
 * total energy  :  -135.0402338 Eh     change       -0.6782106E-06 Eh
 * total energy  :  -135.0402345 Eh     change       -0.7667046E-06 Eh
 * total energy  :  -135.0402354 Eh     change       -0.8431641E-06 Eh
 * total energy  :  -135.0402364 Eh     change       -0.1060297E-05 Eh
 * total energy  :  -135.0402374 Eh     change       -0.1014551E-05 Eh
 * total energy  :  -135.0402380 Eh     change       -0.6077797E-06 Eh
 * total energy  :  -135.0402381 Eh     change       -0.6956185E-08 Eh
   *** GEOMETRY OPTIMIZATION CONVERGED AFTER 68 ITERATIONS ***

 final structure:
================
89
 xtb: 6.7.1 (edcfbbe)
C            6.34174478570480        2.46261945322806       -0.83029841752965
C            5.20215089516914        2.44601854410498        0.20504844122509
C            5.74633937805259        2.78771887192029        1.60511343985712
C            4.17334469226238        3.49721918415105       -0.15365993132154
C            4.57094186153889        4.82626877593565       -0.22403607226608
C            3.66772546844159        5.85568635847603       -0.40122010785104
C            2.31937302472737        5.55515007209277       -0.45274860364877
C            1.90263725107492        4.24143374931218       -0.40760506216229
C            2.81915917687837        3.18805668265918       -0.32171290008071
N            2.39207433624637        1.85915769020377       -0.37896483667293
C            1.01648584065659        1.57353409988367       -0.23367481847483
C            0.08161466808040        2.02474058462371       -1.16616997722777
C           -1.25503101364068        1.72460389397149       -1.01264992589009
C           -1.69613572134838        0.96706623082857        0.07070921210765
C           -3.12221138331303        0.64533480841548        0.18226193497247
C           -3.74993731484226        0.40450053793638        1.40423613265763
C           -5.11502571020279        0.12234069455559        1.37427941983779
C           -5.89857774338711       -0.12765279301591        2.59140154846961
C           -5.31824362663155       -0.65465357299569        3.74244042455400
C           -6.08518367999802       -0.87430961450007        4.87156228948618
C           -7.43611820824236       -0.56878840538676        4.86813689789228
C           -8.02292576830046       -0.05171869706899        3.72433068577884
C           -7.26144194392540        0.16327234123233        2.59229885385028
N           -5.78139780866053        0.09003287251818        0.22278460974630
C           -5.10603667781580        0.33109978726119       -0.89517793251192
C           -5.84775521049693        0.28858848164387       -2.15918275430697
C           -5.18625858557014        0.50076162295364       -3.36702080343450
C           -5.88595944703409        0.46131732445610       -4.55742091191044
C           -7.24905951892363        0.21013107404537       -4.55536858167479
C           -7.91176711950671       -0.00491775871218       -3.35717550274812
C           -7.21717265965107        0.03278392001761       -2.16354198764047
N           -3.80939668597447        0.61018536878145       -0.95675894009850
C           -0.76135668188154        0.51822772518784        0.99976265466453
C            0.57643614947628        0.82083769763138        0.85115598170330
C            3.29583643979116        0.81011535810737       -0.20955249613675
C            4.60429501684947        1.05342793659820        0.21551463041917
C            5.41735766642334       -0.00717737805948        0.61494656065146
C            4.97682515639416       -1.31116691230153        0.64504735101666
C            3.72301404489732       -1.56323581916415        0.11231849002264
C            2.91431212100240       -0.53476903213053       -0.42384406513165
C            1.82618308395621       -1.20912425489495       -1.09281331941763
C            0.83305324983683       -0.82713203538917       -1.99032914057063
C           -0.06541865629537       -1.76704796357251       -2.45157635193052
C            0.01423118457743       -3.09796205064999       -2.05365045646882
C            1.05099303388509       -3.53052740075438       -1.25170643787620
C            1.97426348847961       -2.59068767903997       -0.81751392334119
N            3.12078735484934       -2.78783199485334       -0.08161659374388
C            3.63503928344747       -4.02103214402199        0.34081866664631
C            4.02390301981876       -4.19480012381438        1.66616989175001
C            4.53751450053031       -5.40877600649622        2.08254906324109
C            4.65810374427174       -6.45964127863817        1.18847104965039
C            4.26913373091076       -6.28959129772498       -0.12990360246720
C            3.76484204731752       -5.07567192790458       -0.55817568033440
H            6.84538806477318        3.42511389194833       -0.84274441291831
H            5.94026956579357        2.27024039922458       -1.82344835228115
H            7.07849450288070        1.69614673405342       -0.60542468157283
H            4.94488745169187        2.72261935407835        2.33887920966386
H            6.53713700142041        2.10296481646028        1.89754654585710
H            6.14808292848213        3.79691620301919        1.62822247330283
H            5.61748662196145        5.07069142507442       -0.12345705054870
H            4.00941271941431        6.87752224865494       -0.46281088791960
H            1.58404556396405        6.34239160878989       -0.52803535674511
H            0.84417880722930        4.04116161739949       -0.41791362237938
H            0.41433068110902        2.58247157196648       -2.03015073899078
H           -1.98012870898414        2.06083729352048       -1.73720493349793
H           -3.21253289058361        0.48163392700774        2.33444219885082
H           -4.27043785772689       -0.91677399688731        3.75085819837789
H           -5.62763692798923       -1.28819603565477        5.75848830860653
H           -8.03063990933160       -0.73805965598759        5.75386908744540
H           -9.07727853623970        0.18308088914422        3.71730666706880
H           -7.70324141896171        0.56439658690127        1.69336031886687
H           -4.12452071948245        0.69062978963215       -3.34981990576588
H           -5.36980290283827        0.62575061065618       -5.49231158107358
H           -7.79448878429212        0.18018302699847       -5.48755656439100
H           -8.97386427220086       -0.20318806339034       -3.35703331237595
H           -7.71651929499675       -0.13672453390288       -1.22250519105005
H           -1.07393056187095       -0.08941659788011        1.83569631792916
H            1.29398202900671        0.46780825101614        1.57740784907182
H            6.42126345560427        0.19785774756290        0.95128584228429
H            5.60101481556194       -2.10659717785530        1.01988195961703
H            0.77282103456570        0.18411981571854       -2.35085571019303
H           -0.84485406760020       -1.46342047634178       -3.13400794037499
H           -0.72200334393535       -3.80613001757668       -2.40360026677147
H            1.14671082774694       -4.57004529887613       -0.97597787908227
H            3.91094262648319       -3.37835957714399        2.36392258963777
H            4.83784498185543       -5.53733396494558        3.11203644464545
H            5.05538041623068       -7.40784424643539        1.51784973025697
H            4.36749930911586       -7.10442024420948       -0.83191331262202
H            3.48339826219741       -4.93204252348386       -1.59056513623596

          :  Hamiltonian                  GFN2-xTB          :
         :: gradient norm              0.000058098659 Eh/a0 ::
         :: HOMO-LUMO gap              1.787040921731 eV    ::
         :: SCC energy              -137.529712418472 Eh    ::
         :: -> dispersion             -0.128816910036 Eh    ::
         :: repulsion energy           2.489474362621 Eh    ::

    * Orbital Energies and Occupations

         #    Occupation            Energy/Eh            Energy/eV
      -------------------------------------------------------------
         1        2.0000           -0.6720557             -18.2876
       ...           ...                  ...                  ...
       114        2.0000           -0.4066136             -11.0645
       115        2.0000           -0.4025564             -10.9541
       116        2.0000           -0.4023882             -10.9495
       117        2.0000           -0.4015888             -10.9278
       118        2.0000           -0.3998375             -10.8801
       119        2.0000           -0.3963129             -10.7842
       120        2.0000           -0.3913735             -10.6498
       121        2.0000           -0.3910889             -10.6421
       122        2.0000           -0.3887327             -10.5780
       123        2.0000           -0.3739338             -10.1753
       124        2.0000           -0.3598493              -9.7920
       125        2.0000           -0.3542705              -9.6402
       126        2.0000           -0.3399066              -9.2493 (HOMO)
       127                         -0.2742341              -7.4623 (LUMO)
       128                         -0.2666082              -7.2548
       129                         -0.2439033              -6.6369
       130                         -0.2364626              -6.4345
       131                         -0.2314039              -6.2968
       132                         -0.2313382              -6.2950
       133                         -0.2286395              -6.2216
       134                         -0.2259018              -6.1471
       135                         -0.2188702              -5.9558
       136                         -0.2186742              -5.9504
       137                         -0.2156074              -5.8670
       ...                                ...                  ...
       248                          0.7364110              20.0388
      -------------------------------------------------------------
                  HL-Gap            0.0656725 Eh            1.7870 eV

     #   Z          covCN         q      C6AA      α(0)
     1   6 C        3.761    -0.103    22.518     6.765
     2   6 C        3.911     0.023    20.135     6.378
     3   6 C        3.762    -0.103    22.510     6.763
     4   6 C        2.983    -0.012    28.319     8.729
     5   6 C        2.929    -0.037    28.914     8.818
     6   6 C        2.917    -0.044    29.083     8.843
     7   6 C        2.921    -0.034    28.839     8.807
     8   6 C        2.925    -0.060    29.498     8.907
     9   6 C        2.924     0.058    26.711     8.475
    10   7 N        2.749    -0.064    22.473     7.041
    11   6 C        2.928     0.072    26.387     8.424
    12   6 C        2.920    -0.038    28.942     8.822
    13   6 C        2.925    -0.025    28.638     8.776
    14   6 C        2.981     0.001    27.998     8.680
    15   6 C        2.969     0.110    25.559     8.293
    16   6 C        2.912    -0.066    29.650     8.929
    17   6 C        2.969     0.110    25.574     8.295
    18   6 C        2.980     0.005    27.908     8.666
    19   6 C        2.923    -0.031    28.768     8.796
    20   6 C        2.919    -0.029    28.722     8.788
    21   6 C        2.920    -0.027    28.673     8.781
    22   6 C        2.918    -0.028    28.691     8.784
    23   6 C        2.926    -0.024    28.600     8.770
    24   7 N        1.850    -0.271    27.893     7.827
    25   6 C        2.946     0.181    24.120     8.055
    26   6 C        2.985     0.002    27.978     8.677
    27   6 C        2.924    -0.027    28.668     8.781
    28   6 C        2.918    -0.029    28.718     8.788
    29   6 C        2.920    -0.026    28.663     8.779
    30   6 C        2.918    -0.029    28.718     8.788
    31   6 C        2.924    -0.027    28.667     8.780
    32   7 N        1.851    -0.271    27.876     7.825
    33   6 C        2.922    -0.031    28.762     8.795
    34   6 C        2.922    -0.039    28.974     8.827
    35   6 C        2.922     0.054    26.792     8.488
    36   6 C        2.980    -0.026    28.634     8.778
    37   6 C        2.933    -0.041    29.021     8.835
    38   6 C        2.907    -0.065    29.628     8.925
    39   6 C        3.095     0.044    26.904     8.501
    40   6 C        3.053    -0.042    28.990     8.830
    41   6 C        3.069    -0.017    28.369     8.734
    42   6 C        2.916    -0.040    28.997     8.830
    43   6 C        2.919    -0.042    29.034     8.836
    44   6 C        2.924    -0.035    28.862     8.810
    45   6 C        2.911    -0.053    29.326     8.880
    46   6 C        3.080     0.045    26.906     8.504
    47   7 N        2.801    -0.046    22.118     6.985
    48   6 C        2.913     0.066    26.524     8.445
    49   6 C        2.923    -0.042    29.044     8.838
    50   6 C        2.920    -0.028    28.709     8.787
    51   6 C        2.919    -0.033    28.832     8.805
    52   6 C        2.920    -0.028    28.700     8.785
    53   6 C        2.922    -0.042    29.043     8.838
    54   1 H        0.925     0.039     2.468     2.457
    55   1 H        0.925     0.032     2.556     2.500
    56   1 H        0.925     0.038     2.471     2.458
    57   1 H        0.925     0.030     2.583     2.513
    58   1 H        0.925     0.039     2.466     2.455
    59   1 H        0.925     0.038     2.471     2.458
    60   1 H        0.926     0.030     2.584     2.514
    61   1 H        0.926     0.026     2.645     2.543
    62   1 H        0.926     0.027     2.626     2.534
    63   1 H        0.926     0.033     2.549     2.496
    64   1 H        0.926     0.045     2.379     2.412
    65   1 H        0.926     0.056     2.243     2.342
    66   1 H        0.926     0.032     2.561     2.503
    67   1 H        0.926     0.031     2.567     2.506
    68   1 H        0.926     0.032     2.553     2.499
    69   1 H        0.926     0.033     2.539     2.492
    70   1 H        0.926     0.035     2.520     2.482
    71   1 H        0.926     0.052     2.295     2.369
    72   1 H        0.926     0.054     2.274     2.358
    73   1 H        0.926     0.033     2.541     2.493
    74   1 H        0.926     0.033     2.550     2.497
    75   1 H        0.926     0.033     2.544     2.494
    76   1 H        0.926     0.053     2.278     2.360
    77   1 H        0.926     0.035     2.519     2.482
    78   1 H        0.926     0.036     2.497     2.471
    79   1 H        0.926     0.031     2.569     2.506
    80   1 H        0.926     0.026     2.648     2.545
    81   1 H        0.926     0.032     2.558     2.501
    82   1 H        0.926     0.028     2.614     2.529
    83   1 H        0.926     0.027     2.628     2.535
    84   1 H        0.926     0.026     2.649     2.545
    85   1 H        0.926     0.040     2.450     2.448
    86   1 H        0.926     0.035     2.512     2.478
    87   1 H        0.926     0.034     2.523     2.484
    88   1 H        0.926     0.036     2.506     2.475
    89   1 H        0.926     0.041     2.430     2.438

molecular dipole:
                 x           y           z       tot (Debye)
 q only:        0.278      -0.301       0.366
   full:        0.528      -0.428       0.807       2.682

 projected vibrational frequencies (cm⁻¹)
eigval :       -0.00    -0.00    -0.00    -0.00     0.00     0.00
eigval :        6.28     9.59    10.83    24.19    25.90    32.80
eigval :       33.20    40.02    43.68    53.09    56.97    63.15
eigval :       67.26    84.38    94.73    99.60   106.54   114.94
eigval :      121.68   126.01   136.54   154.03   163.99   186.50
eigval :      190.65   200.86   211.47   213.98   222.13   230.62
eigval :      231.07   243.18   262.47   263.20   275.63   287.64
eigval :      299.96   314.71   337.38   342.34   363.94   366.19
eigval :      367.30   367.76   369.91   378.97   383.15   387.81
eigval :      401.87   412.87   417.52   426.51   437.61   442.85
eigval :      459.92   471.15   479.20   484.67   506.69   519.91
eigval :      524.15   532.82   549.50   556.48   573.39   580.36
eigval :      585.51   587.47   588.65   591.52   603.72   605.70
eigval :      611.95   618.45   618.62   629.38   631.26   650.09
eigval :      661.87   664.61   673.23   674.20   680.76   688.34
eigval :      692.07   702.03   706.96   737.15   753.65   764.63
eigval :      767.07   775.07   775.36   779.21   780.12   818.83
eigval :      820.84   833.74   838.83   845.22   850.19   865.02
eigval :      867.29   875.06   879.14   882.44   883.72   895.47
eigval :      900.27   903.85   904.18   908.74   910.29   912.41
eigval :      914.66   918.48   920.67   921.03   925.27   928.52
eigval :      931.35   932.66   932.85   933.36   934.86   950.68
eigval :      956.35   963.58   971.08   989.32   991.04  1013.09
eigval :     1014.72  1026.72  1043.28  1073.34  1076.11  1079.70
eigval :     1080.02  1083.24  1089.55  1094.73  1104.61  1110.89
eigval :     1116.62  1118.35  1124.91  1133.27  1139.34  1144.35
eigval :     1158.92  1169.85  1171.87  1178.84  1180.98  1181.21
eigval :     1181.71  1187.95  1188.83  1190.29  1196.48  1199.84
eigval :     1204.96  1206.72  1223.32  1239.96  1247.70  1249.42
eigval :     1251.44  1264.76  1270.00  1271.24  1275.89  1279.14
eigval :     1296.37  1302.41  1308.83  1318.22  1322.39  1323.71
eigval :     1328.36  1329.58  1333.62  1351.42  1363.12  1364.23
eigval :     1367.80  1375.24  1397.80  1403.25  1407.71  1414.10
eigval :     1421.65  1429.81  1432.43  1436.67  1437.29  1439.24
eigval :     1468.36  1471.05  1478.54  1480.28  1484.91  1486.18
eigval :     1490.06  1490.29  1491.90  1501.98  1504.42  1517.90
eigval :     1533.25  1561.80  1563.25  1577.07  1581.21  1582.90
eigval :     1583.76  1586.14  1589.77  1592.56  1596.25  1596.49
eigval :     1597.90  1599.06  1605.07  3025.64  3029.26  3038.77
eigval :     3041.88  3048.11  3052.91  3070.87  3072.61  3076.83
eigval :     3077.03  3077.17  3077.75  3078.18  3078.68  3079.82
eigval :     3080.65  3084.25  3084.29  3085.54  3086.94  3090.15
eigval :     3091.43  3091.58  3092.42  3094.35  3095.08  3096.38
eigval :     3099.15  3103.53  3104.25  3105.35  3106.15  3106.64
eigval :     3107.25  3117.09  3142.53

   temp. (K)  partition function   enthalpy   heat capacity  entropy
                                   cal/mol     cal/K/mol   cal/K/mol   J/K/mol
 298.15  VIB  0.154E+21            25226.793    158.738    157.788
         ROT  0.120E+09              888.752      2.981     39.947
         INT  0.184E+29            26115.546    161.719    197.735
         TR   0.172E+29             1481.254      4.968     45.415
         TOT                       27596.7997   166.6870   243.1503  1017.3407

       T/K    H(0)-H(T)+PV         H(T)/Eh          T*S/Eh         G(T)/Eh
   ------------------------------------------------------------------------
    298.15    0.439783E-01    0.739507E+00    0.115529E+00    0.623979E+00
   ------------------------------------------------------------------------

         :::::::::::::::::::::::::::::::::::::::::::::::::::::
         ::                  THERMODYNAMIC                  ::
         :::::::::::::::::::::::::::::::::::::::::::::::::::::
         :: total free energy        -134.416259366130 Eh   ::
         ::.................................................::
         :: total energy             -135.040238055851 Eh   ::
         :: zero point energy           0.695528921529 Eh   ::
         :: G(RRHO) w/o ZPVE           -0.071550231808 Eh   ::
         :: G(RRHO) contrib.            0.623978689721 Eh   ::
         :::::::::::::::::::::::::::::::::::::::::::::::::::::

           -------------------------------------------------
          | TOTAL ENERGY             -135.040238055851 Eh   |
          | TOTAL ENTHALPY           -134.300730834674 Eh   |
          | TOTAL FREE ENERGY        -134.416259366130 Eh   |
          | GRADIENT NORM               0.000058101241 Eh/α |
          | HOMO-LUMO GAP               1.787040703056 eV   |
           -------------------------------------------------

 * finished run on 2025/09/12 at 17:34:37.998
