   * xtb version 6.7.1 (edcfbbe) compiled by 'albert@albert-system' on 2024-07-22

   ID    Z sym.   atoms
    1    6 C      1-9, 11-23, 25-31, 33-46, 48-53
    2    7 N      10, 24, 32, 47
    3    1 H      54-89

          program call               : xtb data2507/gas/12AcCz-PM/12AcCz-PM_gas_S0_finalOpt.xtbopt.xyz --gfn 2 --spinpol --tblite --uhf 2 --ohess vtight --parallel 40 --molden --ceasefiles --namespace data2507/gas/12AcCz-PM/12AcCz-PM_gas_T1_preOpt
 * total energy  :  -134.9649509 Eh     change       -0.3748386E-07 Eh
 * total energy  :  -134.9686915 Eh     change       -0.3740654E-02 Eh
 * total energy  :  -134.9701308 Eh     change       -0.1439248E-02 Eh
 * total energy  :  -134.9702731 Eh     change       -0.1423142E-03 Eh
 * total energy  :  -134.9705049 Eh     change       -0.2318289E-03 Eh
 * total energy  :  -134.9706211 Eh     change       -0.1161879E-03 Eh
 * total energy  :  -134.9707565 Eh     change       -0.1354474E-03 Eh
 * total energy  :  -134.9708314 Eh     change       -0.7485552E-04 Eh
 * total energy  :  -134.9708760 Eh     change       -0.4458254E-04 Eh
 * total energy  :  -134.9709291 Eh     change       -0.5316759E-04 Eh
 * total energy  :  -134.9717273 Eh     change       -0.7114240E-06 Eh
 * total energy  :  -134.9717280 Eh     change       -0.7245995E-06 Eh
 * total energy  :  -134.9717287 Eh     change       -0.6802287E-06 Eh
 * total energy  :  -134.9717295 Eh     change       -0.8157227E-06 Eh
 * total energy  :  -134.9717304 Eh     change       -0.8716850E-06 Eh
 * total energy  :  -134.9717312 Eh     change       -0.8472087E-06 Eh
 * total energy  :  -134.9717312 Eh     change        0.7932783E-09 Eh
 * total energy  :  -134.9717312 Eh     change        0.1641030E-07 Eh
 * total energy  :  -134.9717312 Eh     change       -0.1381844E-07 Eh
   *** GEOMETRY OPTIMIZATION CONVERGED AFTER 124 ITERATIONS ***

 final structure:
================
89
 xtb: 6.7.1 (edcfbbe)
C            4.63988996614390        3.41649488695322        3.14955786942722
C            3.50901321732600        2.84837766814026        2.29207278924246
C            2.31082547631264        2.55750427491685        3.21962571403305
C            3.06867017905056        3.81301634219578        1.20562527068763
C            3.41727789038046        5.15248742005615        1.15222657517885
C            2.97628182538271        5.96220294294416        0.11795827684241
C            2.20358016237896        5.43266943498913       -0.90031158356347
C            1.85095188415939        4.09688255902990       -0.87216616942130
C            2.25176558767990        3.29689034269719        0.19203446091022
N            1.94573704273577        1.92534927611036        0.22796087867875
C            0.65036679867200        1.42799811658437        0.22119209088125
C           -0.45754926386247        2.25319475074136       -0.03109466951362
C           -1.72901875621071        1.74301734779070       -0.03041762640228
C           -1.98846646054370        0.38434957314985        0.24568063615042
C           -3.33774107385294       -0.09427143589111        0.22306211783669
C           -3.73839762296068       -1.37367778368372        0.62419354404209
C           -5.08698973929229       -1.70148435989567        0.57499709056034
C           -5.64223518016787       -2.96912629464754        0.98511509677533
C           -7.02974697900405       -3.16908485296060        0.88658216884764
C           -7.60659541609866       -4.35763540747354        1.27296554076124
C           -6.82290397272612       -5.38923794782995        1.77027713594940
C           -5.45089848509448       -5.20985167134739        1.87246440862481
C           -4.86490698043508       -4.02292648811763        1.48809302649192
N           -5.96722511248058       -0.75898441357307        0.11396229322718
C           -5.56411280348000        0.43424471984584       -0.26733825863485
C           -6.54796612332400        1.39762729655745       -0.76306462021329
C           -7.90407446667531        1.08165466967994       -0.76015321524838
C           -8.83019221839417        1.99117949015686       -1.23299050709804
C           -8.41266540433335        3.22233026492136       -1.71338511274666
C           -7.06403385291098        3.54253925359969       -1.71953736716206
C           -6.13477104738507        2.63636051302273       -1.24705157043347
N           -4.30091843273046        0.77616930505541       -0.21432498326182
C           -0.87636018509840       -0.42040987676992        0.55970575370494
C            0.39764956895788        0.08571114271060        0.55251030899489
C            3.05865320954279        1.13575916184887        0.54890033639914
C            3.90512359926756        1.56736904737135        1.57554695188183
C            5.03472524660348        0.82014047299371        1.89426741128636
C            5.35435338966295       -0.34848686830011        1.22751737146372
C            4.52978799100130       -0.75766953141291        0.19109027719387
C            3.39465927727438       -0.00554814893303       -0.18718518094086
C            2.85741520006664       -0.63903666806300       -1.36048443185795
C            1.79560001300079       -0.35983823552159       -2.21531668526563
C            1.55223000153001       -1.21271758497020       -3.27235276465115
C            2.34113588251753       -2.34064651862945       -3.48652480335938
C            3.41444350696197       -2.62925441707396       -2.66697151073992
C            3.68162553147177       -1.76051904294026       -1.61871405737634
N            4.68124725567593       -1.82292348757989       -0.67031809870648
C            5.70285746002232       -2.78198993021029       -0.61022546407049
C            5.96106418415528       -3.45178059837989        0.58205008498478
C            6.97220145996556       -4.39285528958153        0.63970347790813
C            7.72440896444944       -4.67988880929925       -0.48723073893746
C            7.46615632110286       -4.01631531610140       -1.67522072353921
C            6.46394585189502       -3.06620950796939       -1.74011639665559
H            4.91348605139097        2.70827947798544        3.92753987931205
H            4.31184406833443        4.32685554650643        3.64504722297275
H            5.51663475446231        3.63702579286458        2.54472325511185
H            1.46341320468489        2.15299480566969        2.67324523451804
H            2.60176753023322        1.83620395529125        3.98054278480244
H            1.99326043293141        3.47491161091262        3.71105998929057
H            4.03804020215433        5.58529247287550        1.91978571365967
H            3.25302119954624        7.00555830849773        0.10115408683871
H            1.88657851782443        6.05430211036858       -1.72406207073067
H            1.29056815586420        3.66325533329189       -1.68646181162307
H           -0.31895842960419        3.30883308211593       -0.20219838214173
H           -2.56846102823984        2.39190226316262       -0.22654398218398
H           -3.01218205178138       -2.08428754820376        0.97934178838206
H           -7.63625419661760       -2.36455641645415        0.49904667852236
H           -8.67650503446320       -4.48700277351574        1.18857218566530
H           -7.27466372756577       -6.32158043814838        2.07469191301571
H           -4.83283010735876       -6.00852292481348        2.25842544033271
H           -3.79500465024563       -3.91602250200627        1.58162056135364
H           -8.21382769289463        0.11915899756342       -0.38280647703770
H           -9.88142394556432        1.74238011399652       -1.22871373771511
H           -9.13806872277569        3.93207329307406       -2.08364465791895
H           -6.73948576514986        4.50200916646748       -2.09542725024707
H           -5.08082291349643        2.86905491075801       -1.24828407773613
H           -1.01169449441044       -1.45963538096485        0.81464612278068
H            1.21739628958220       -0.56053500966372        0.82308305978800
H            5.68823471254265        1.14588054023760        2.68619412008824
H            6.23891479437082       -0.90694985919906        1.49100929767322
H            1.16936859964676        0.50344255621677       -2.06023652194513
H            0.72992403976861       -1.00886615000466       -3.94154676493165
H            2.11189159404701       -2.99950040442396       -4.31081541154731
H            4.02131539335176       -3.50654553202897       -2.83261865842185
H            5.35843900015422       -3.23966556199882        1.45263905986258
H            7.16807070613721       -4.91041312171369        1.56705889847607
H            8.51012469787979       -5.41850928775536       -0.43972320233323
H            8.05383586432047       -4.23336918476017       -2.55482534838141
H            6.27419315242122       -2.53033272063158       -2.65808320166342

 projected vibrational frequencies (cm⁻¹)
eigval :       -0.00    -0.00    -0.00    -0.00     0.00     0.00
eigval :        5.92    10.92    12.36    16.16    24.44    31.14
eigval :       34.64    41.48    48.65    56.36    57.97    62.81
eigval :       65.81    77.18    81.35    94.54   109.31   114.20
eigval :      130.27   138.17   152.12   160.06   174.23   179.63
eigval :      191.95   193.58   199.72   211.18   217.96   236.03
eigval :      244.80   253.71   263.68   280.46   284.63   292.44
eigval :      307.11   319.63   332.04   344.06   358.78   366.13
eigval :      367.10   371.23   375.42   380.54   383.35   385.00
eigval :      394.67   398.83   403.36   414.28   418.33   436.29
eigval :      456.55   460.88   466.83   480.50   489.49   509.74
eigval :      520.68   527.19   528.37   538.70   545.56   570.13
eigval :      576.60   578.77   581.99   587.72   588.73   590.21
eigval :      591.17   600.75   610.67   618.57   624.76   630.90
eigval :      643.69   647.60   654.51   663.38   664.71   671.16
eigval :      679.87   687.11   705.20   715.36   743.54   750.06
eigval :      764.39   764.64   769.88   773.37   783.95   790.80
eigval :      806.19   816.31   817.16   829.10   834.15   844.99
eigval :      850.14   867.86   872.37   875.59   880.40   881.62
eigval :      889.36   895.12   895.99   901.65   902.87   904.98
eigval :      907.51   910.74   914.87   916.73   918.39   919.08
eigval :      919.73   922.29   928.01   932.09   933.07   934.46
eigval :      936.45   948.65   969.50   974.76   979.85   990.07
eigval :      997.01  1000.98  1010.32  1041.67  1059.08  1067.53
eigval :     1072.03  1075.14  1077.70  1080.92  1083.43  1091.09
eigval :     1104.63  1111.54  1118.35  1125.13  1132.86  1144.69
eigval :     1150.42  1155.20  1167.26  1176.04  1179.22  1180.49
eigval :     1181.07  1181.30  1185.61  1188.95  1192.52  1198.77
eigval :     1202.57  1206.91  1217.61  1233.61  1243.93  1250.91
eigval :     1262.40  1264.99  1268.66  1270.97  1275.18  1277.50
eigval :     1284.46  1295.08  1298.00  1311.52  1318.18  1323.61
eigval :     1325.10  1327.78  1332.53  1333.46  1354.08  1354.40
eigval :     1361.10  1375.33  1379.24  1391.86  1399.38  1412.83
eigval :     1418.14  1422.79  1428.31  1431.97  1436.68  1436.98
eigval :     1440.31  1445.33  1448.57  1457.41  1469.18  1473.15
eigval :     1480.79  1483.70  1484.78  1493.19  1493.26  1495.95
eigval :     1507.82  1525.24  1549.74  1558.24  1566.54  1572.02
eigval :     1577.45  1581.42  1584.45  1584.87  1586.17  1589.32
eigval :     1594.91  1595.41  1601.61  3026.44  3029.04  3031.39
eigval :     3034.78  3046.63  3055.63  3064.96  3067.13  3073.10
eigval :     3078.64  3079.64  3080.34  3081.72  3082.25  3084.25
eigval :     3087.20  3088.06  3088.98  3089.11  3091.19  3091.86
eigval :     3093.15  3094.33  3094.42  3095.26  3095.79  3097.61
eigval :     3097.92  3099.35  3100.30  3106.99  3108.31  3111.50
eigval :     3113.65  3118.38  3120.01

   temp. (K)  partition function   enthalpy   heat capacity  entropy
                                   cal/mol     cal/K/mol   cal/K/mol   J/K/mol
 298.15  VIB  0.193E+21            25451.583    160.822    158.905
         ROT  0.130E+09              888.752      2.981     40.105
         INT  0.251E+29            26340.335    163.803    199.009
         TR   0.172E+29             1481.254      4.968     45.415
         TOT                       27821.5891   168.7712   244.4242  1022.6708

       T/K    H(0)-H(T)+PV         H(T)/Eh          T*S/Eh         G(T)/Eh
   ------------------------------------------------------------------------
    298.15    0.443365E-01    0.735933E+00    0.116134E+00    0.619799E+00
   ------------------------------------------------------------------------

         :::::::::::::::::::::::::::::::::::::::::::::::::::::
         ::                  THERMODYNAMIC                  ::
         :::::::::::::::::::::::::::::::::::::::::::::::::::::
         :: total free energy        -134.351931785686 Eh   ::
         ::.................................................::
         :: total energy             -134.971731269797 Eh   ::
         :: zero point energy           0.691596780962 Eh   ::
         :: G(RRHO) w/o ZPVE           -0.071797296851 Eh   ::
         :: G(RRHO) contrib.            0.619799484111 Eh   ::
         :::::::::::::::::::::::::::::::::::::::::::::::::::::

           -------------------------------------------------
          | TOTAL ENERGY             -134.971731269797 Eh   |
          | TOTAL ENTHALPY           -134.235797964482 Eh   |
          | TOTAL FREE ENERGY        -134.351931785686 Eh   |
          | GRADIENT NORM               0.000115785522 Eh/α |
           -------------------------------------------------

 * finished run on 2025/09/12 at 17:40:06.913
