   * xtb version 6.7.1 (edcfbbe) compiled by 'albert@albert-system' on 2024-07-22

   ID    Z sym.   atoms
    1    6 C      1-20, 22-44, 46-59
    2    7 N      21, 45
    3    1 H      60-107

          program call               : xtb data2507/gas/SAF-CzB/SAF-CzB_gas_S0_crest.xyz --gfn 2 --ohess vtight --parallel 40 --molden --ceasefiles --namespace data2507/gas/SAF-CzB/SAF-CzB_gas_S0_finalOpt
          :  Hamiltonian                  GFN2-xTB          :
 * total energy  :  -152.4962793 Eh     change       -0.2265637E-08 Eh
 * total energy  :  -152.4962810 Eh     change       -0.1617946E-05 Eh
 * total energy  :  -152.4962828 Eh     change       -0.1846755E-05 Eh
 * total energy  :  -152.4962868 Eh     change       -0.3991226E-05 Eh
 * total energy  :  -152.4962913 Eh     change       -0.4491730E-05 Eh
 * total energy  :  -152.4962950 Eh     change       -0.3694361E-05 Eh
 * total energy  :  -152.4962989 Eh     change       -0.3954853E-05 Eh
 * total energy  :  -152.4963041 Eh     change       -0.5143501E-05 Eh
 * total energy  :  -152.4963095 Eh     change       -0.5414715E-05 Eh
 * total energy  :  -152.4963135 Eh     change       -0.3963055E-05 Eh
 * total energy  :  -152.4963749 Eh     change       -0.1873402E-05 Eh
 * total energy  :  -152.4963767 Eh     change       -0.1753808E-05 Eh
 * total energy  :  -152.4963780 Eh     change       -0.1379193E-05 Eh
 * total energy  :  -152.4963790 Eh     change       -0.9356920E-06 Eh
 * total energy  :  -152.4963797 Eh     change       -0.6986524E-06 Eh
 * total energy  :  -152.4963803 Eh     change       -0.6405104E-06 Eh
 * total energy  :  -152.4963810 Eh     change       -0.7111011E-06 Eh
 * total energy  :  -152.4963819 Eh     change       -0.8634110E-06 Eh
 * total energy  :  -152.4963819 Eh     change       -0.4392433E-08 Eh
   *** GEOMETRY OPTIMIZATION CONVERGED AFTER 44 ITERATIONS ***

 final structure:
================
107
 xtb: 6.7.1 (edcfbbe)
C           -9.85711736757600        2.43234718416129        0.02513291577389
C           -8.68857170505713        3.41892853224490       -0.05056182115885
C           -8.76330809965127        4.33857871769912        1.17663279551594
C           -8.84829799542244        4.24816846545051       -1.33257927303996
C           -7.33558662902466        2.72235406342032       -0.06832799633776
C           -6.17407421028114        3.50404228549686       -0.13222642058825
C           -4.90476605548901        2.96327292006988       -0.13754840954504
C           -4.78410887320276        1.58405856089173       -0.06607961428244
C           -5.93778398156076        0.77267628839310       -0.03417717778653
C           -7.20344161898888        1.34434871152897       -0.03100260513274
C           -5.47859238709421       -0.58874360801456       -0.01961308014038
C           -6.13783760879253       -1.81058403491254        0.02140309561721
C           -5.40674057683522       -2.98646106597404        0.04749642863553
C           -6.06037463251016       -4.36059753886796        0.07514828357716
C           -7.58948151203461       -4.28496306543536        0.05673959127407
C           -5.60962580349095       -5.15582442112917       -1.15855084611389
C           -5.63593897478404       -5.09802578280470        1.35305507148836
C           -4.00775857889437       -2.90390193469366        0.05621914304680
C           -3.32717853704956       -1.70453196270811        0.01651704194735
C           -4.06945164175460       -0.53496134632557       -0.04510070498271
N           -3.65820030873947        0.78403224878322       -0.07418530856413
C           -2.32866622248169        1.21578449927827       -0.09613196999453
C           -1.88913320282036        2.21634378395324        0.76726681531570
C           -0.56428065946317        2.60502599586909        0.76296007013888
C            0.35761087652247        1.99035254798651       -0.08068926682936
C            1.78753020848526        2.31768010109419       -0.02633126101090
C            2.24818451080296        3.63025277898525        0.06399154754565
C            3.60267618307328        3.91605632963412        0.10494538242430
C            4.51170598873740        2.87012988254069        0.07368791769713
C            4.04971809207192        1.54961746840226        0.00638750985333
C            2.70840254991289        1.26883728732138       -0.05442914800347
C            5.20822979106652        0.56652004100017        0.01540836956536
C            6.38941910505982        1.50526298594396        0.04689990279504
C            7.73150225585354        1.19119094147865        0.04703471279795
C            8.65697065625258        2.22550680035219        0.09063361792163
C            8.24159644398938        3.54781571720115        0.13642671572789
C            6.89381472301668        3.87012911136112        0.13834541911379
C            5.96531472960595        2.84314230762594        0.09275694181668
C            5.12951802746924       -0.28836930262253       -1.22703873868611
C            5.68530519036470        0.14525238145393       -2.41854037297542
C            5.48951934440747       -0.55670288341843       -3.59522395796809
C            4.70023702498027       -1.69256381201852       -3.58344065246491
C            4.14596032802134       -2.14556815761982       -2.40216647938871
C            4.37213681340655       -1.46672403585967       -1.20458969225477
N            3.85130020246118       -1.93175571091620       -0.00305218550404
C            2.90618293953899       -2.99261094707484        0.01201769877972
C            3.28711120486145       -4.29992482805927       -0.26910594861035
C            2.34431285255117       -5.31210604292663       -0.25071240718084
C            1.02322646221989       -5.02874316476739        0.05437935841355
C            0.64488716431122       -3.72950295490268        0.34730975162846
C            1.58181167291656       -2.71188153292877        0.32668278005994
C            4.35713960746806       -1.47261231170698        1.20653368427031
C            4.16175438110111       -2.20382181177568        2.37854302999658
C            4.69032110116453       -1.76402414715280        3.57597193231108
C            5.43191918773350       -0.59696583415144        3.62427536906641
C            5.62655878573290        0.13509134896448        2.46588093802357
C            5.09633342034599       -0.28639584358393        1.25829817318140
C           -0.09541520647763        1.00386177823321       -0.95617468031567
C           -1.42179198937665        0.62893182723547       -0.97608446885100
H           -9.80304716420505        1.83104956927573        0.92976366743344
H          -10.79582647480667        2.98274896606877        0.04322834571829
H           -9.87069883851437        1.77479228634747       -0.84101179297942
H           -7.99372340204947        5.10480370222775        1.14612396715895
H           -8.63087360150601        3.75914969571980        2.08811206432537
H           -9.73254864211171        4.83143229035043        1.21829310177300
H           -9.82117883256951        4.73543220868397       -1.34559249802881
H           -8.77185474585449        3.60533100229707       -2.20715147177142
H           -8.08315192116635        5.01577967261120       -1.40723125782211
H           -6.26204302252784        4.57870728697336       -0.18304289149437
H           -4.03669781730384        3.60141818210631       -0.20788525200016
H           -8.06202923243197        0.69436352595200       -0.00227462202626
H           -7.21494644569401       -1.81421554889126        0.03515147105435
H           -7.96568005368903       -3.75763694273093        0.93031612276542
H           -8.00269925406925       -5.29173261272045        0.06887827405252
H           -7.94528529309449       -3.78688866404614       -0.84221554027137
H           -5.89151557053398       -4.62884485070458       -2.06785876616390
H           -6.08209261917851       -6.13603365605231       -1.16682836504173
H           -4.53251664773768       -5.29773215208118       -1.16837321487860
H           -5.93074862385385       -4.52705948854027        2.23113393020804
H           -6.11388870236166       -6.07451435071236        1.39924238281841
H           -4.56003481113866       -5.24472351542034        1.38874767096888
H           -3.42541586810986       -3.81222996210955        0.09724208381203
H           -2.24784316642111       -1.68362610134877        0.04277662231329
H           -2.58515561039444        2.66529345188647        1.45986917833887
H           -0.22873761952721        3.36578234927541        1.45249961613101
H            1.53168467269756        4.43903994058153        0.07628778634914
H            3.94149446578241        4.94024701792768        0.15850370904279
H            2.35938507820661        0.24973525310222       -0.10610077857151
H            8.05500843091431        0.16090942658219        0.01282768470103
H            9.71278978130981        1.99750908947030        0.08940562313264
H            8.97937652539058        4.33635962112843        0.17075280883540
H            6.57483718097741        4.90131409433620        0.17391473743461
H            6.26577399100404        1.05612605963599       -2.42589941424759
H            5.92993320632349       -0.20468386711210       -4.51532693041802
H            4.51218449197207       -2.23453562429399       -4.49850945651544
H            3.52591304881439       -3.02879616280690       -2.41050806783985
H            4.32154150613446       -4.51493969707402       -0.49446156957251
H            2.64345935627404       -6.32636626920580       -0.47009592511995
H            0.29086034508802       -5.82194594835443        0.06867508070912
H           -0.38272642805659       -3.50647530867812        0.59335497144932
H            1.29046401864116       -1.69840907442489        0.56251200170449
H            3.59424936214272       -3.12185014442999        2.34671178896333
H            4.52472643299826       -2.34156023927478        4.47335205814814
H            5.84856687519610       -0.25146023263468        4.55788127265165
H            6.18958415333970        1.05608544304880        2.50107782120308
H            0.59897874912228        0.54339147624580       -1.64426960573476
H           -1.76680660367253       -0.11522817347682       -1.67817526442240

          :  Hamiltonian                  GFN2-xTB          :
         :: gradient norm              0.000058093850 Eh/a0 ::
         :: HOMO-LUMO gap              2.401978096400 eV    ::
         :: SCC energy              -155.316261937348 Eh    ::
         :: -> dispersion             -0.152476702253 Eh    ::
         :: repulsion energy           2.819880035950 Eh    ::

    * Orbital Energies and Occupations

         #    Occupation            Energy/Eh            Energy/eV
      -------------------------------------------------------------
         1        2.0000           -0.6686862             -18.1959
       ...           ...                  ...                  ...
       131        2.0000           -0.4052044             -11.0262
       132        2.0000           -0.4047839             -11.0147
       133        2.0000           -0.4027072             -10.9582
       134        2.0000           -0.4022924             -10.9469
       135        2.0000           -0.4017139             -10.9312
       136        2.0000           -0.3947220             -10.7409
       137        2.0000           -0.3921111             -10.6699
       138        2.0000           -0.3919550             -10.6656
       139        2.0000           -0.3903792             -10.6228
       140        2.0000           -0.3739644             -10.1761
       141        2.0000           -0.3687075             -10.0330
       142        2.0000           -0.3515122              -9.5651
       143        2.0000           -0.3462807              -9.4228 (HOMO)
       144                         -0.2580097              -7.0208 (LUMO)
       145                         -0.2375467              -6.4640
       146                         -0.2369703              -6.4483
       147                         -0.2360903              -6.4243
       148                         -0.2287292              -6.2240
       149                         -0.2271362              -6.1807
       150                         -0.2257811              -6.1438
       151                         -0.2210733              -6.0157
       152                         -0.2196008              -5.9756
       153                         -0.2189928              -5.9591
       154                         -0.2129530              -5.7947
       ...                                ...                  ...
       284                          0.7477478              20.3473
      -------------------------------------------------------------
                  HL-Gap            0.0882711 Eh            2.4020 eV

     #   Z          covCN         q      C6AA      α(0)
     1   6 C        3.761    -0.106    22.581     6.774
     2   6 C        3.903     0.026    20.088     6.371
     3   6 C        3.762    -0.105    22.548     6.769
     4   6 C        3.761    -0.105    22.548     6.769
     5   6 C        2.973    -0.003    28.085     8.693
     6   6 C        2.931    -0.040    28.984     8.829
     7   6 C        2.908    -0.054    29.331     8.880
     8   6 C        3.079     0.043    26.959     8.512
     9   6 C        3.068    -0.021    28.448     8.746
    10   6 C        2.918    -0.044    29.090     8.845
    11   6 C        3.067    -0.020    28.441     8.745
    12   6 C        2.918    -0.044    29.089     8.844
    13   6 C        2.973    -0.003    28.093     8.694
    14   6 C        3.903     0.026    20.086     6.371
    15   6 C        3.761    -0.107    22.582     6.774
    16   6 C        3.762    -0.104    22.542     6.768
    17   6 C        3.761    -0.104    22.540     6.768
    18   6 C        2.931    -0.040    28.988     8.830
    19   6 C        2.909    -0.054    29.332     8.881
    20   6 C        3.081     0.042    26.962     8.513
    21   7 N        2.802    -0.044    22.094     6.981
    22   6 C        2.913     0.062    26.602     8.457
    23   6 C        2.920    -0.045    29.114     8.848
    24   6 C        2.924    -0.034    28.840     8.807
    25   6 C        2.978     0.006    27.878     8.661
    26   6 C        2.980     0.006    27.875     8.660
    27   6 C        2.924    -0.038    28.943     8.823
    28   6 C        2.914    -0.034    28.855     8.808
    29   6 C        3.032    -0.001    28.016     8.682
    30   6 C        3.067     0.003    27.894     8.660
    31   6 C        2.923    -0.040    28.996     8.831
    32   6 C        3.950     0.013    20.293     6.401
    33   6 C        3.054     0.003    27.906     8.663
    34   6 C        2.914    -0.031    28.783     8.797
    35   6 C        2.922    -0.032    28.806     8.802
    36   6 C        2.921    -0.033    28.816     8.803
    37   6 C        2.914    -0.034    28.855     8.808
    38   6 C        3.038     0.002    27.951     8.672
    39   6 C        2.985    -0.008    28.216     8.713
    40   6 C        2.924    -0.036    28.903     8.816
    41   6 C        2.918    -0.043    29.069     8.841
    42   6 C        2.920    -0.033    28.824     8.804
    43   6 C        2.922    -0.059    29.460     8.901
    44   6 C        2.926     0.059    26.667     8.469
    45   7 N        2.753    -0.075    22.700     7.076
    46   6 C        2.925     0.069    26.456     8.435
    47   6 C        2.921    -0.038    28.947     8.823
    48   6 C        2.920    -0.028    28.710     8.787
    49   6 C        2.920    -0.030    28.759     8.794
    50   6 C        2.920    -0.027    28.676     8.782
    51   6 C        2.923    -0.037    28.917     8.818
    52   6 C        2.931     0.060    26.665     8.469
    53   6 C        2.923    -0.057    29.409     8.893
    54   6 C        2.920    -0.033    28.814     8.803
    55   6 C        2.918    -0.043    29.057     8.840
    56   6 C        2.923    -0.036    28.904     8.817
    57   6 C        2.986    -0.007    28.194     8.710
    58   6 C        2.925    -0.034    28.846     8.808
    59   6 C        2.921    -0.045    29.113     8.848
    60   1 H        0.925     0.035     2.514     2.480
    61   1 H        0.925     0.034     2.527     2.486
    62   1 H        0.925     0.035     2.515     2.480
    63   1 H        0.925     0.035     2.513     2.479
    64   1 H        0.925     0.033     2.547     2.496
    65   1 H        0.925     0.035     2.516     2.480
    66   1 H        0.925     0.035     2.515     2.480
    67   1 H        0.925     0.033     2.546     2.495
    68   1 H        0.925     0.035     2.514     2.479
    69   1 H        0.926     0.028     2.618     2.530
    70   1 H        0.926     0.025     2.659     2.550
    71   1 H        0.926     0.036     2.502     2.473
    72   1 H        0.926     0.036     2.499     2.472
    73   1 H        0.925     0.035     2.514     2.479
    74   1 H        0.925     0.034     2.528     2.486
    75   1 H        0.925     0.035     2.512     2.478
    76   1 H        0.925     0.033     2.545     2.495
    77   1 H        0.925     0.035     2.517     2.481
    78   1 H        0.925     0.035     2.522     2.484
    79   1 H        0.925     0.033     2.545     2.495
    80   1 H        0.925     0.035     2.516     2.480
    81   1 H        0.925     0.034     2.525     2.485
    82   1 H        0.926     0.025     2.653     2.547
    83   1 H        0.926     0.023     2.689     2.564
    84   1 H        0.926     0.040     2.453     2.449
    85   1 H        0.926     0.036     2.507     2.476
    86   1 H        0.926     0.031     2.572     2.508
    87   1 H        0.926     0.031     2.566     2.505
    88   1 H        0.926     0.029     2.594     2.519
    89   1 H        0.926     0.028     2.611     2.527
    90   1 H        0.926     0.029     2.595     2.519
    91   1 H        0.926     0.029     2.601     2.522
    92   1 H        0.926     0.030     2.590     2.517
    93   1 H        0.926     0.030     2.588     2.516
    94   1 H        0.926     0.028     2.619     2.531
    95   1 H        0.926     0.028     2.609     2.526
    96   1 H        0.926     0.027     2.625     2.534
    97   1 H        0.926     0.041     2.431     2.438
    98   1 H        0.926     0.037     2.488     2.467
    99   1 H        0.926     0.036     2.498     2.471
   100   1 H        0.926     0.038     2.473     2.459
   101   1 H        0.926     0.038     2.480     2.463
   102   1 H        0.926     0.025     2.655     2.548
   103   1 H        0.926     0.029     2.599     2.521
   104   1 H        0.926     0.028     2.611     2.527
   105   1 H        0.926     0.030     2.582     2.513
   106   1 H        0.926     0.035     2.517     2.481
   107   1 H        0.926     0.039     2.456     2.451

molecular dipole:
                 x           y           z       tot (Debye)
 q only:       -0.242      -0.416       0.029
   full:       -0.153      -0.398       0.029       1.086

 projected vibrational frequencies (cm⁻¹)
eigval :       -0.00    -0.00    -0.00    -0.00     0.00     0.00
eigval :        6.54     9.03    12.08    19.22    24.50    30.97
eigval :       33.54    33.81    39.36    42.86    51.85    57.63
eigval :       59.30    68.33    71.49    77.89    81.70    97.62
eigval :      100.89   113.86   117.93   124.24   141.34   152.00
eigval :      160.89   172.95   175.04   181.17   193.22   203.00
eigval :      204.05   217.12   218.43   223.75   229.28   237.77
eigval :      245.96   251.52   259.10   263.81   274.29   277.92
eigval :      286.17   295.13   317.47   321.89   323.98   337.97
eigval :      350.74   360.18   361.79   370.29   374.84   376.62
eigval :      380.64   384.88   389.61   397.57   401.70   407.67
eigval :      409.46   412.06   423.82   435.78   442.75   443.33
eigval :      452.02   458.69   459.88   466.30   467.90   481.09
eigval :      489.36   500.21   507.47   509.31   513.34   519.79
eigval :      535.38   571.33   578.92   582.15   584.27   588.95
eigval :      591.06   595.17   604.70   612.02   619.56   621.14
eigval :      632.41   635.37   639.75   671.03   672.62   674.60
eigval :      682.37   688.05   691.86   696.44   707.39   712.50
eigval :      721.14   727.30   728.99   739.61   763.15   771.95
eigval :      776.80   777.49   799.42   812.47   821.69   822.96
eigval :      832.04   836.83   866.33   866.80   868.27   872.26
eigval :      873.90   874.21   878.61   880.02   883.43   894.68
eigval :      904.22   905.89   909.45   909.56   910.42   911.33
eigval :      912.47   913.82   915.12   920.81   921.00   922.81
eigval :      925.30   928.17   928.25   929.76   931.48   935.43
eigval :      939.82   945.24   951.91   960.14   960.27   962.68
eigval :      962.85   962.97   963.42   995.85  1008.65  1016.95
eigval :     1031.46  1035.78  1035.85  1035.88  1042.11  1075.87
eigval :     1080.42  1083.90  1090.71  1105.93  1107.49  1116.88
eigval :     1117.47  1123.40  1130.55  1138.00  1141.72  1144.75
eigval :     1151.12  1172.62  1178.24  1179.24  1181.34  1183.86
eigval :     1184.38  1187.13  1190.66  1192.94  1211.32  1215.25
eigval :     1225.63  1228.05  1228.27  1230.55  1231.73  1232.72
eigval :     1238.80  1243.89  1245.68  1260.00  1261.23  1268.36
eigval :     1268.76  1271.36  1276.30  1278.96  1286.26  1298.38
eigval :     1308.38  1310.01  1312.27  1316.47  1318.81  1326.33
eigval :     1328.44  1335.50  1337.06  1348.39  1359.73  1366.24
eigval :     1382.97  1401.60  1404.76  1406.04  1406.08  1406.25
eigval :     1415.23  1421.92  1429.46  1429.56  1431.87  1436.40
eigval :     1440.47  1442.19  1445.13  1453.71  1471.32  1472.78
eigval :     1473.66  1483.61  1486.14  1492.65  1492.66  1492.81
eigval :     1495.46  1495.54  1501.79  1502.27  1503.87  1506.01
eigval :     1506.20  1515.04  1515.25  1520.57  1521.42  1558.18
eigval :     1571.11  1572.78  1577.67  1582.30  1582.41  1584.54
eigval :     1588.98  1592.75  1593.22  1594.71  1602.15  1604.24
eigval :     1605.03  1610.13  1618.26  3020.22  3020.37  3021.55
eigval :     3021.68  3026.56  3026.73  3028.62  3029.14  3030.69
eigval :     3030.89  3035.32  3035.65  3037.59  3037.83  3045.88
eigval :     3046.81  3049.04  3050.35  3072.34  3073.80  3075.08
eigval :     3076.61  3076.95  3077.20  3078.34  3078.43  3078.99
eigval :     3079.01  3081.34  3083.57  3084.00  3084.50  3085.33
eigval :     3086.45  3088.12  3090.51  3091.76  3092.04  3092.12
eigval :     3093.56  3095.17  3095.20  3097.65  3098.96  3100.52
eigval :     3106.33  3114.64  3118.12

   temp. (K)  partition function   enthalpy   heat capacity  entropy
                                   cal/mol     cal/K/mol   cal/K/mol   J/K/mol
 298.15  VIB  0.245E+24            29969.273    188.682    186.185
         ROT  0.162E+09              888.752      2.981     40.552
         INT  0.398E+32            30858.025    191.663    226.737
         TR   0.203E+29             1481.254      4.968     45.747
         TOT                       32339.2794   196.6308   272.4840  1140.0732

       T/K    H(0)-H(T)+PV         H(T)/Eh          T*S/Eh         G(T)/Eh
   ------------------------------------------------------------------------
    298.15    0.515359E-01    0.916615E+00    0.129466E+00    0.787149E+00
   ------------------------------------------------------------------------

         :::::::::::::::::::::::::::::::::::::::::::::::::::::
         ::                  THERMODYNAMIC                  ::
         :::::::::::::::::::::::::::::::::::::::::::::::::::::
         :: total free energy        -151.709232790563 Eh   ::
         ::.................................................::
         :: total energy             -152.496381901398 Eh   ::
         :: zero point energy           0.865079144569 Eh   ::
         :: G(RRHO) w/o ZPVE           -0.077930033734 Eh   ::
         :: G(RRHO) contrib.            0.787149110835 Eh   ::
         :::::::::::::::::::::::::::::::::::::::::::::::::::::

           -------------------------------------------------
          | TOTAL ENERGY             -152.496381901398 Eh   |
          | TOTAL ENTHALPY           -151.579766834734 Eh   |
          | TOTAL FREE ENERGY        -151.709232790563 Eh   |
          | GRADIENT NORM               0.000058093866 Eh/α |
          | HOMO-LUMO GAP               2.401978269937 eV   |
           -------------------------------------------------

 * finished run on 2025/08/26 at 11:28:08.252
