   * xtb version 6.7.1 (edcfbbe) compiled by 'albert@albert-system' on 2024-07-22

   ID    Z sym.   atoms
    1    6 C      1-20, 22-44, 46-59
    2    7 N      21, 45
    3    1 H      60-107

          program call               : xtb data2507/gas/SAF-CzB/SAF-CzB.xyz --gfn 2 --ohess vtight --parallel 40 --molden --ceasefiles --namespace data2507/gas/SAF-CzB/SAF-CzB_gas_S0_preOpt
          :  Hamiltonian                  GFN2-xTB          :
 * total energy  :  -152.4668717 Eh     change       -0.1887685E-08 Eh
 * total energy  :  -152.4863346 Eh     change       -0.1946286E-01 Eh
 * total energy  :  -152.4926028 Eh     change       -0.6268194E-02 Eh
 * total energy  :  -152.4939731 Eh     change       -0.1370383E-02 Eh
 * total energy  :  -152.4946654 Eh     change       -0.6922768E-03 Eh
 * total energy  :  -152.4948707 Eh     change       -0.2052486E-03 Eh
 * total energy  :  -152.4949532 Eh     change       -0.8256820E-04 Eh
 * total energy  :  -152.4950077 Eh     change       -0.5444726E-04 Eh
 * total energy  :  -152.4950650 Eh     change       -0.5729829E-04 Eh
 * total energy  :  -152.4950990 Eh     change       -0.3397815E-04 Eh
 * total energy  :  -152.4954928 Eh     change       -0.1310735E-05 Eh
 * total energy  :  -152.4954937 Eh     change       -0.9802513E-06 Eh
 * total energy  :  -152.4954947 Eh     change       -0.9085387E-06 Eh
 * total energy  :  -152.4954958 Eh     change       -0.1103613E-05 Eh
 * total energy  :  -152.4954973 Eh     change       -0.1500605E-05 Eh
 * total energy  :  -152.4954993 Eh     change       -0.2002807E-05 Eh
 * total energy  :  -152.4955016 Eh     change       -0.2385334E-05 Eh
 * total energy  :  -152.4955041 Eh     change       -0.2452062E-05 Eh
 * total energy  :  -152.4955041 Eh     change       -0.7603830E-08 Eh
   *** GEOMETRY OPTIMIZATION CONVERGED AFTER 94 ITERATIONS ***

 final structure:
================
107
 xtb: 6.7.1 (edcfbbe)
C           -9.66601348394773        2.06011965667386       -0.05583112921489
C           -8.51497569687297        3.06991157360830       -0.06534502342231
C           -8.65385320276972        3.96026025613865        1.17771632032904
C           -8.64281652781621        3.92442674331582       -1.33428374645480
C           -7.14893730415467        2.39929342581772       -0.04663573326776
C           -6.00071463972897        3.20252482902781       -0.05344239426454
C           -4.72186178832259        2.68495709954677       -0.02379224001540
C           -4.57695003372979        1.30697256309942        0.02508741984287
C           -5.71607363804465        0.47567655363787       -0.00023914777120
C           -6.99155820309748        1.02345364457826       -0.03099057900652
C           -5.23287041986707       -0.87745779594100        0.00032043307100
C           -5.86589483805096       -2.10988149207901       -0.00802337202975
C           -5.11552270277648       -3.27787814088144        0.01425148856036
C           -5.83543496419588       -4.61916463753151       -0.01140561586443
C           -6.73971745813520       -4.72612730500989        1.22467362217841
C           -6.68667816078224       -4.70594036722106       -1.28636191139894
C           -4.87570123842046       -5.81212009817049       -0.00234567191840
C           -3.72304085200192       -3.17348924999217        0.07037700903586
C           -3.06524557818854       -1.95692988032369        0.08156443050534
C           -3.82313177703766       -0.79949108218654        0.02379939114143
N           -3.43588887287409        0.52720940886364        0.03981342705570
C           -2.11972259908875        0.99923831056024        0.06388695275254
C           -1.74637973254446        2.00033466918902        0.95769711224861
C           -0.45132797231344        2.47647604326756        0.96596661933540
C            0.51017459590282        1.95105723531755        0.10534955389273
C            1.88946983327411        2.45494295556528        0.11320758632170
C            2.13768563366353        3.82653809947538        0.17000348687216
C            3.42633617351260        4.32909773493167        0.14649738974087
C            4.48704037431432        3.44068291180592        0.07809817451228
C            4.24389150997960        2.06010181141689        0.04187350326120
C            2.96284779708147        1.56321583384019        0.05045018380051
C            5.54560203421848        1.28382757131736       -0.00639291931440
C            6.56034582194875        2.41018190144305       -0.03241729299778
C            7.93267698506858        2.31859003060713       -0.09585595395439
C            8.67588439389539        3.49153706346382       -0.10180869386548
C            8.05086056722665        4.72787612274026       -0.04314638163749
C            6.67011290062150        4.82494828128388        0.02204341144380
C            5.92354031794678        3.65826424772462        0.02694010773575
C            5.62349709782214        0.45193487406074       -1.26269985923211
C            5.49129106624296        1.08631927064513       -2.48849790015878
C            5.53591338920383        0.37595541987437       -3.67373609942070
C            5.70903828868415       -0.99687160952561       -3.63219777226672
C            5.84243445758220       -1.64557028212019       -2.42151280280959
C            5.80925145361523       -0.93246162715197       -1.21999829129302
N            5.94708706509686       -1.59421538574242       -0.01046369081148
C            6.13616887885647       -3.00466101190959       -0.01116184238276
C            7.40237054970465       -3.53582617889367       -0.22093130731430
C            7.58188606601991       -4.90765312110711       -0.21979879665097
C            6.50295958110471       -5.74981586242919       -0.00744995247339
C            5.24070582824613       -5.21997110180179        0.20275309455555
C            5.05370926424203       -3.84914248748799        0.20014757981139
C            5.90895462436630       -0.92250185530409        1.20112196130837
C            6.08015907102617       -1.62102381154991        2.39946023240028
C            6.04119608845266       -0.96418796596621        3.61234332913187
C            5.83390988935245        0.40360929809498        3.65901109496407
C            5.67457591180604        1.10246562951382        2.47696892450622
C            5.71196127224993        0.45992597564606        1.24885576676917
C            0.13267708519725        0.93783037872345       -0.77381229537553
C           -1.16672584841820        0.47520009292091       -0.80653097415490
H           -9.63537804588308        1.44078193389031        0.83766716140435
H          -10.61540057471703        2.59218384830039       -0.06330924783889
H           -9.63289137878382        1.42109012435060       -0.93524396903007
H           -7.89770199055868        4.74018371302934        1.19369049846973
H           -8.54594264589323        3.36287808985062        2.08080165465364
H           -9.63289781208006        4.43499452906594        1.19239061758527
H           -9.62408602497527        4.39313791058557       -1.37382128082335
H           -8.52065180032432        3.30285652207975       -2.21897903495530
H           -7.89092410451774        4.70802750770831       -1.36311783826582
H           -6.10673139038851        4.27629259935031       -0.08667813644481
H           -3.86458308960103        3.34070150870952       -0.05127675538646
H           -7.83784756296706        0.35706286850483       -0.04590450769748
H           -6.94441504758145       -2.14139676737015       -0.02872478095347
H           -7.48886387799674       -3.93943272124864        1.23612747937721
H           -6.14563967059166       -4.64325804812107        2.13253897733615
H           -7.25286264895144       -5.68569253295636        1.23354443099194
H           -6.05432919364610       -4.61199787058890       -2.16689695237739
H           -7.43346678733959       -3.91771295496049       -1.31912285029170
H           -7.20087207984351       -5.66395809118772       -1.33082532840893
H           -4.27237778142080       -5.82367391899065        0.90246088224012
H           -5.44838556789298       -6.73711035964517       -0.03473850569789
H           -4.21961246499317       -5.79331271585748       -0.86960959819039
H           -3.11822203820216       -4.06435539896828        0.11060095648361
H           -1.98803745970145       -1.92119335647136        0.14595178406418
H           -2.47371940455724        2.38905023813525        1.65459441059409
H           -0.17058644877333        3.24569223751937        1.67052000881762
H            1.30055109150902        4.50873521844827        0.20601271038941
H            3.59862003860446        5.39492949973212        0.17648453222945
H            2.78490636733159        0.49763592307987        0.02802422076012
H            8.41992981301848        1.35525261245158       -0.14085835749269
H            9.75365728208452        3.44067378716947       -0.15264442388980
H            8.64943828836961        5.62732719489391       -0.04886621494887
H            6.18769138685674        5.79026156815618        0.06704881295030
H            5.34958332716202        2.15747896409914       -2.50616072993451
H            5.43249463886854        0.88762062852124       -4.61814875076653
H            5.73947058622867       -1.57014408824883       -4.54699689407752
H            5.97143063816868       -2.71720334914704       -2.40182605257469
H            8.23606230301687       -2.86917773336315       -0.38540111201931
H            8.56654101512524       -5.31987996144609       -0.38279775969956
H            6.64614138949908       -6.81996520208852       -0.00548537685296
H            4.39883697619948       -5.87576244334950        0.36789446856854
H            4.07439767237537       -3.42433215958031        0.36449999330022
H            6.24797133018922       -2.68714469654936        2.37562069180652
H            6.17548048206573       -1.52651704927997        4.52453420534661
H            5.80104255960138        0.92175327137204        4.60495309599448
H            5.51915747817228        2.17146993457848        2.50037715459860
H            0.86096873710448        0.53410078446697       -1.46222844979812
H           -1.45711984372311       -0.28152576608421       -1.51984705583707

          :  Hamiltonian                  GFN2-xTB          :
         :: gradient norm              0.000070661445 Eh/a0 ::
         :: HOMO-LUMO gap              2.410057677461 eV    ::
         :: SCC energy              -155.315770710792 Eh    ::
         :: -> dispersion             -0.148855305695 Eh    ::
         :: repulsion energy           2.820266602662 Eh    ::

    * Orbital Energies and Occupations

         #    Occupation            Energy/Eh            Energy/eV
      -------------------------------------------------------------
         1        2.0000           -0.6693560             -18.2141
       ...           ...                  ...                  ...
       131        2.0000           -0.4061714             -11.0525
       132        2.0000           -0.4033709             -10.9763
       133        2.0000           -0.4027627             -10.9597
       134        2.0000           -0.4014893             -10.9251
       135        2.0000           -0.4003585             -10.8943
       136        2.0000           -0.3933859             -10.7046
       137        2.0000           -0.3923494             -10.6764
       138        2.0000           -0.3899374             -10.6107
       139        2.0000           -0.3889205             -10.5831
       140        2.0000           -0.3728625             -10.1461
       141        2.0000           -0.3678322             -10.0092
       142        2.0000           -0.3497041              -9.5159
       143        2.0000           -0.3451760              -9.3927 (HOMO)
       144                         -0.2566080              -6.9827 (LUMO)
       145                         -0.2381598              -6.4807
       146                         -0.2370980              -6.4518
       147                         -0.2354423              -6.4067
       148                         -0.2278925              -6.2013
       149                         -0.2254957              -6.1361
       150                         -0.2240041              -6.0955
       151                         -0.2216011              -6.0301
       152                         -0.2193094              -5.9677
       153                         -0.2182087              -5.9378
       154                         -0.2119219              -5.7667
       ...                                ...                  ...
       284                          0.7518530              20.4590
      -------------------------------------------------------------
                  HL-Gap            0.0885680 Eh            2.4101 eV

     #   Z          covCN         q      C6AA      α(0)
     1   6 C        3.761    -0.106    22.577     6.773
     2   6 C        3.903     0.026    20.087     6.371
     3   6 C        3.762    -0.105    22.547     6.769
     4   6 C        3.761    -0.105    22.548     6.769
     5   6 C        2.973    -0.003    28.090     8.694
     6   6 C        2.931    -0.040    28.985     8.829
     7   6 C        2.909    -0.054    29.333     8.881
     8   6 C        3.079     0.043    26.953     8.511
     9   6 C        3.067    -0.020    28.445     8.745
    10   6 C        2.918    -0.044    29.086     8.844
    11   6 C        3.067    -0.020    28.431     8.743
    12   6 C        2.920    -0.040    28.989     8.829
    13   6 C        2.972    -0.003    28.092     8.694
    14   6 C        3.903     0.026    20.088     6.371
    15   6 C        3.762    -0.105    22.546     6.769
    16   6 C        3.762    -0.105    22.548     6.769
    17   6 C        3.761    -0.106    22.575     6.773
    18   6 C        2.928    -0.044    29.099     8.846
    19   6 C        2.909    -0.054    29.349     8.883
    20   6 C        3.077     0.043    26.959     8.513
    21   7 N        2.801    -0.045    22.104     6.983
    22   6 C        2.912     0.063    26.599     8.457
    23   6 C        2.921    -0.045    29.113     8.848
    24   6 C        2.924    -0.034    28.845     8.808
    25   6 C        2.977     0.006    27.872     8.660
    26   6 C        2.980     0.007    27.849     8.656
    27   6 C        2.926    -0.038    28.942     8.822
    28   6 C        2.913    -0.035    28.872     8.811
    29   6 C        3.035    -0.001    28.008     8.681
    30   6 C        3.057     0.003    27.907     8.663
    31   6 C        2.919    -0.037    28.926     8.820
    32   6 C        3.950     0.012    20.303     6.403
    33   6 C        3.060     0.003    27.900     8.662
    34   6 C        2.914    -0.032    28.794     8.799
    35   6 C        2.923    -0.032    28.792     8.799
    36   6 C        2.921    -0.033    28.812     8.802
    37   6 C        2.914    -0.034    28.858     8.809
    38   6 C        3.035     0.002    27.956     8.673
    39   6 C        2.983    -0.009    28.233     8.716
    40   6 C        2.926    -0.035    28.869     8.811
    41   6 C        2.917    -0.043    29.077     8.842
    42   6 C        2.920    -0.033    28.811     8.802
    43   6 C        2.924    -0.058    29.453     8.900
    44   6 C        2.926     0.059    26.670     8.469
    45   7 N        2.753    -0.072    22.634     7.066
    46   6 C        2.928     0.070    26.436     8.432
    47   6 C        2.922    -0.037    28.919     8.819
    48   6 C        2.920    -0.028    28.690     8.784
    49   6 C        2.920    -0.030    28.753     8.793
    50   6 C        2.920    -0.028    28.690     8.784
    51   6 C        2.922    -0.037    28.918     8.819
    52   6 C        2.926     0.059    26.669     8.469
    53   6 C        2.924    -0.058    29.450     8.899
    54   6 C        2.920    -0.032    28.808     8.802
    55   6 C        2.917    -0.043    29.071     8.842
    56   6 C        2.926    -0.035    28.871     8.812
    57   6 C        2.984    -0.008    28.222     8.714
    58   6 C        2.925    -0.033    28.835     8.806
    59   6 C        2.921    -0.045    29.112     8.848
    60   1 H        0.925     0.035     2.516     2.481
    61   1 H        0.925     0.034     2.529     2.487
    62   1 H        0.925     0.035     2.518     2.481
    63   1 H        0.925     0.035     2.513     2.479
    64   1 H        0.925     0.033     2.547     2.496
    65   1 H        0.925     0.035     2.517     2.481
    66   1 H        0.925     0.035     2.516     2.481
    67   1 H        0.925     0.033     2.546     2.495
    68   1 H        0.925     0.035     2.514     2.479
    69   1 H        0.926     0.028     2.621     2.532
    70   1 H        0.926     0.025     2.659     2.550
    71   1 H        0.926     0.035     2.512     2.478
    72   1 H        0.926     0.029     2.600     2.521
    73   1 H        0.925     0.036     2.505     2.475
    74   1 H        0.925     0.033     2.550     2.497
    75   1 H        0.925     0.035     2.519     2.482
    76   1 H        0.925     0.033     2.551     2.498
    77   1 H        0.925     0.036     2.504     2.474
    78   1 H        0.925     0.035     2.521     2.483
    79   1 H        0.925     0.034     2.525     2.485
    80   1 H        0.925     0.034     2.527     2.486
    81   1 H        0.925     0.034     2.523     2.484
    82   1 H        0.926     0.034     2.533     2.489
    83   1 H        0.926     0.024     2.669     2.555
    84   1 H        0.926     0.040     2.454     2.449
    85   1 H        0.926     0.036     2.508     2.476
    86   1 H        0.926     0.031     2.572     2.508
    87   1 H        0.926     0.031     2.575     2.510
    88   1 H        0.926     0.027     2.635     2.538
    89   1 H        0.926     0.025     2.659     2.550
    90   1 H        0.926     0.029     2.596     2.520
    91   1 H        0.926     0.029     2.598     2.521
    92   1 H        0.926     0.030     2.588     2.516
    93   1 H        0.926     0.028     2.615     2.529
    94   1 H        0.926     0.028     2.622     2.532
    95   1 H        0.926     0.028     2.610     2.526
    96   1 H        0.926     0.025     2.660     2.550
    97   1 H        0.926     0.041     2.437     2.441
    98   1 H        0.926     0.038     2.472     2.459
    99   1 H        0.926     0.037     2.483     2.464
   100   1 H        0.926     0.038     2.470     2.458
   101   1 H        0.926     0.041     2.438     2.442
   102   1 H        0.926     0.025     2.657     2.549
   103   1 H        0.926     0.029     2.607     2.525
   104   1 H        0.926     0.028     2.620     2.531
   105   1 H        0.926     0.028     2.610     2.526
   106   1 H        0.926     0.035     2.511     2.478
   107   1 H        0.926     0.039     2.457     2.451

molecular dipole:
                 x           y           z       tot (Debye)
 q only:        0.255      -0.635       0.010
   full:        0.359      -0.611       0.010       1.802

 projected vibrational frequencies (cm⁻¹)
eigval :       -0.00    -0.00    -0.00    -0.00     0.00     0.00
eigval :        1.08     6.81    10.14    13.78    15.93    25.31
eigval :       31.33    32.23    37.47    45.14    45.61    48.39
eigval :       59.12    68.81    69.38    73.05    76.91    95.63
eigval :       98.05   112.06   120.17   126.20   134.19   146.31
eigval :      159.32   170.42   176.43   181.13   194.37   197.36
eigval :      199.06   217.65   221.19   227.19   235.59   240.63
eigval :      250.35   251.32   253.76   261.54   268.27   275.58
eigval :      282.28   303.96   318.10   318.74   325.51   333.08
eigval :      348.88   357.39   362.33   373.54   378.33   380.66
eigval :      385.29   386.29   388.24   395.87   400.81   404.78
eigval :      412.39   416.18   422.73   427.57   439.26   443.32
eigval :      445.54   460.35   461.64   466.91   467.36   479.90
eigval :      489.54   500.00   504.92   510.06   513.38   519.32
eigval :      533.36   570.56   579.14   581.31   583.23   590.80
eigval :      593.68   597.01   603.60   606.08   616.15   622.71
eigval :      635.94   637.09   639.23   671.15   672.80   675.56
eigval :      681.42   688.03   689.89   694.00   706.00   708.91
eigval :      720.97   729.34   731.04   739.06   764.12   770.95
eigval :      775.91   778.59   799.25   812.47   820.02   823.33
eigval :      833.01   837.68   864.80   865.26   870.12   873.95
eigval :      876.66   877.22   877.89   881.00   885.13   895.72
eigval :      902.19   905.12   906.73   909.38   909.77   910.67
eigval :      911.80   914.32   915.54   919.21   920.44   920.75
eigval :      925.22   927.03   928.60   929.44   930.22   933.53
eigval :      938.08   950.23   952.31   959.98   960.30   962.51
eigval :      962.73   962.85   963.11   997.13  1007.00  1016.42
eigval :     1032.68  1035.76  1035.88  1036.06  1040.23  1075.40
eigval :     1078.50  1080.00  1092.12  1107.36  1109.13  1113.58
eigval :     1117.77  1126.51  1131.00  1137.63  1142.17  1144.85
eigval :     1155.16  1175.43  1177.98  1179.86  1180.72  1183.78
eigval :     1184.83  1185.89  1191.10  1194.52  1207.41  1215.60
eigval :     1226.34  1227.93  1228.31  1229.45  1232.97  1235.40
eigval :     1236.91  1238.50  1249.89  1254.12  1260.43  1268.32
eigval :     1268.69  1272.99  1274.85  1278.69  1286.34  1298.75
eigval :     1307.19  1309.87  1310.90  1315.90  1320.50  1327.21
eigval :     1327.69  1336.23  1344.38  1348.41  1362.50  1364.58
eigval :     1382.08  1401.05  1404.45  1405.86  1405.97  1406.04
eigval :     1415.24  1422.30  1429.31  1429.45  1432.85  1436.10
eigval :     1438.41  1440.40  1443.95  1452.37  1470.87  1472.30
eigval :     1476.23  1484.24  1484.83  1492.54  1492.65  1495.42
eigval :     1495.50  1496.56  1502.03  1502.92  1504.16  1505.93
eigval :     1506.22  1515.22  1515.66  1521.08  1521.15  1558.21
eigval :     1571.78  1574.03  1577.11  1583.47  1584.37  1587.85
eigval :     1590.60  1592.64  1594.83  1595.25  1602.34  1604.47
eigval :     1605.38  1607.64  1619.86  3019.49  3020.07  3021.10
eigval :     3021.42  3026.31  3026.45  3028.20  3028.78  3030.51
eigval :     3030.65  3035.02  3035.20  3037.20  3037.41  3046.84
eigval :     3047.37  3050.38  3051.09  3071.50  3073.88  3075.43
eigval :     3076.31  3077.46  3078.15  3078.74  3079.46  3079.59
eigval :     3079.96  3080.65  3081.03  3081.58  3082.37  3082.89
eigval :     3086.67  3088.02  3088.94  3091.03  3091.77  3092.79
eigval :     3093.17  3093.38  3093.58  3094.66  3098.86  3099.00
eigval :     3099.77  3115.75  3116.88

   temp. (K)  partition function   enthalpy   heat capacity  entropy
                                   cal/mol     cal/K/mol   cal/K/mol   J/K/mol
 298.15  VIB  0.105E+26            30079.603    188.187    189.788
         ROT  0.196E+09              888.752      2.981     40.920
         INT  0.206E+34            30968.356    191.168    230.708
         TR   0.203E+29             1481.254      4.968     45.747
         TOT                       32449.6097   196.1362   276.4545  1156.6855

       T/K    H(0)-H(T)+PV         H(T)/Eh          T*S/Eh         G(T)/Eh
   ------------------------------------------------------------------------
    298.15    0.517117E-01    0.916535E+00    0.131352E+00    0.785183E+00
   ------------------------------------------------------------------------

         :::::::::::::::::::::::::::::::::::::::::::::::::::::
         ::                  THERMODYNAMIC                  ::
         :::::::::::::::::::::::::::::::::::::::::::::::::::::
         :: total free energy        -151.710321394135 Eh   ::
         ::.................................................::
         :: total energy             -152.495504108146 Eh   ::
         :: zero point energy           0.864823410063 Eh   ::
         :: G(RRHO) w/o ZPVE           -0.079640696052 Eh   ::
         :: G(RRHO) contrib.            0.785182714011 Eh   ::
         :::::::::::::::::::::::::::::::::::::::::::::::::::::

           -------------------------------------------------
          | TOTAL ENERGY             -152.495504108146 Eh   |
          | TOTAL ENTHALPY           -151.578968953495 Eh   |
          | TOTAL FREE ENERGY        -151.710321394135 Eh   |
          | GRADIENT NORM               0.000070659416 Eh/α |
          | HOMO-LUMO GAP               2.410057051914 eV   |
           -------------------------------------------------

 * finished run on 2025/08/26 at 11:10:52.507
