   * xtb version 6.7.1 (edcfbbe) compiled by 'albert@albert-system' on 2024-07-22

   ID    Z sym.   atoms
    1    6 C      1-20, 22-44, 46-59
    2    7 N      21, 45
    3    1 H      60-107

          program call               : xtb data2507/gas/SAF-CzB/SAF-CzB_gas_S0_finalOpt.xtbopt.xyz --gfn 2 --spinpol --tblite --uhf 2 --ohess vtight --parallel 40 --molden --ceasefiles --namespace data2507/gas/SAF-CzB/SAF-CzB_gas_T1_preOpt
 * total energy  :  -152.3959695 Eh     change       -0.1197409E-07 Eh
 * total energy  :  -152.4014210 Eh     change       -0.5451455E-02 Eh
 * total energy  :  -152.4043324 Eh     change       -0.2911369E-02 Eh
 * total energy  :  -152.4048390 Eh     change       -0.5066445E-03 Eh
 * total energy  :  -152.4054979 Eh     change       -0.6589326E-03 Eh
 * total energy  :  -152.4057922 Eh     change       -0.2942724E-03 Eh
 * total energy  :  -152.4060113 Eh     change       -0.2190480E-03 Eh
 * total energy  :  -152.4061268 Eh     change       -0.1155308E-03 Eh
 * total energy  :  -152.4062019 Eh     change       -0.7506689E-04 Eh
 * total energy  :  -152.4062711 Eh     change       -0.6924816E-04 Eh
 * total energy  :  -152.4075134 Eh     change       -0.9129502E-06 Eh
 * total energy  :  -152.4075144 Eh     change       -0.1004864E-05 Eh
 * total energy  :  -152.4075154 Eh     change       -0.9619187E-06 Eh
 * total energy  :  -152.4075163 Eh     change       -0.8585637E-06 Eh
 * total energy  :  -152.4075170 Eh     change       -0.7719671E-06 Eh
 * total energy  :  -152.4075178 Eh     change       -0.8170029E-06 Eh
 * total energy  :  -152.4075186 Eh     change       -0.7967684E-06 Eh
 * total energy  :  -152.4075194 Eh     change       -0.7961089E-06 Eh
 * total energy  :  -152.4075195 Eh     change       -0.2236877E-07 Eh
   *** GEOMETRY OPTIMIZATION CONVERGED AFTER 221 ITERATIONS ***

 final structure:
================
107
 xtb: 6.7.1 (edcfbbe)
C           -9.87025551081302        2.40924700429183       -0.59784132106162
C           -8.67860145356476        3.36818418613524       -0.66858163497672
C           -8.83835493710090        4.40800030470591        0.44994502845705
C           -8.70831538219066        4.06596717162054       -2.03580953702742
C           -7.34494283063821        2.65730003253079       -0.49767087010197
C           -6.16510146909662        3.41391959804473       -0.52973545005364
C           -4.91283043215945        2.85879091886236       -0.36304031329349
C           -4.82809921203329        1.49179524696360       -0.14139132093189
C           -5.99914728876072        0.70127367077352       -0.15179911689126
C           -7.24571068635865        1.28521460865405       -0.32229029996322
C           -5.57271075327173       -0.66022247434874        0.02188504512336
C           -6.25943475651364       -1.86318663258742        0.09615425544493
C           -5.56062298210195       -3.04372275897614        0.29897483837205
C           -6.24453158304940       -4.40058686977938        0.36722156097041
C           -7.75953326525332       -4.30696835410490        0.16637371344650
C           -5.67405558487666       -5.30423172671296       -0.73553659835323
C           -5.98412630903897       -5.03061019257725        1.74289736735959
C           -4.16924667257540       -2.97784953250350        0.45794747054814
C           -3.46181419816662       -1.79512831985063        0.38939246673144
C           -4.16525075183050       -0.62588916175719        0.13754173645144
N           -3.72300871869263        0.68029316536035        0.03583659869616
C           -2.39939345557041        1.09195631217710        0.09664592856979
C           -2.02232703009589        2.23357685171460        0.83097086681402
C           -0.71585085370980        2.61808969191119        0.90685150829415
C            0.32754632799795        1.87994419460960        0.27219576246638
C            1.69119412922126        2.22532930464015        0.40002286533989
C            2.12568327741961        3.54226277750718        0.77827650124432
C            3.43838477023388        3.88194862922771        0.87467005913380
C            4.43687502097329        2.90637290618273        0.63912444657793
C            4.01706271302812        1.57722577031327        0.31277833208311
C            2.71600955589625        1.24898244159312        0.16811133633485
C            5.23382201805293        0.66943037599752        0.17555265669665
C            6.36215596657416        1.65744851148049        0.35847066972202
C            7.71142343470518        1.42903553659772        0.29560408857425
C            8.58698799984549        2.49297099880969        0.52176044221195
C            8.09589260079251        3.76526113084150        0.81165559525799
C            6.74296946224513        4.01132435565851        0.88029941932122
C            5.84802626363114        2.95301065987216        0.65040288068550
C            5.19640010212395        0.00762449774241       -1.17712972876659
C            5.69608228986099        0.65900888779152       -2.29223432551186
C            5.53236216149976        0.13195479620195       -3.56119036577125
C            4.82894750348234       -1.04945793086453       -3.72057310574120
C            4.32916938837365       -1.71780525239363       -2.62051991149776
C            4.52795801169443       -1.21519222957269       -1.33348456244466
N            4.06643434031277       -1.89882280792823       -0.21614401604161
C            3.18022980665612       -2.99944347989510       -0.35726692545946
C            3.62250586441342       -4.22062045322762       -0.85318622728844
C            2.73392736967380       -5.27281983007434       -0.98505177785031
C            1.40721988196236       -5.11526468469613       -0.61964243346229
C            0.96924488161725       -3.90348466133058       -0.11238299442090
C            1.85153288714282       -2.84679810491562        0.02175283172081
C            4.52404595485346       -1.57464491026028        1.05375025965843
C            4.37507504385334       -2.47727022312368        2.10810340028614
C            4.85802529132866       -2.17166536618489        3.36473890281501
C            5.50589342561017       -0.96890352375521        3.58889140646225
C            5.65575683847730       -0.06943701000416        2.54781428587117
C            5.17226641449325       -0.35547221968852        1.28191938576418
C           -0.08752490969310        0.74649460882923       -0.49207542871348
C           -1.39467270115263        0.37126222291515       -0.57787105966572
H           -9.90481333042404        1.89855050347570        0.36178556687349
H          -10.79483419216878        2.97159087492747       -0.71230040982124
H           -9.82685424792086        1.67078547640463       -1.39506557296011
H           -8.05312727389150        5.15766394420285        0.41109849604587
H           -8.79773292773091        3.92212815867069        1.42271568391851
H           -9.79680710854312        4.91439287316283        0.35661239293581
H           -9.66553329233347        4.56210063139344       -2.18204013482201
H           -8.57130162819945        3.33748404134786       -2.83233189026117
H           -7.92300207093685        4.81198620266663       -2.11855971744650
H           -6.22410527438100        4.47847564533442       -0.69654205234265
H           -4.02968442457462        3.47590855966269       -0.42205662254302
H           -8.11714822309711        0.65201495399192       -0.31878136112251
H           -7.33198555028043       -1.85208691958148       -0.00255553233901
H           -8.22147368469428       -3.70496347811732        0.94542412902857
H           -8.19328917075383       -5.30394975125513        0.21212149138033
H           -7.99971557619779       -3.88089025523397       -0.80503210700133
H           -5.83850472409976       -4.85379445798095       -1.71230432961299
H           -6.16502788137236       -6.27497445845093       -0.71585995901998
H           -4.60654173827174       -5.46092357031674       -0.60869578785807
H           -6.36378629943142       -4.38289513579129        2.53039645118924
H           -6.48642207924153       -5.99306361927480        1.81491654117249
H           -4.92294021235515       -5.18783177976370        1.91421913019025
H           -3.61617999850093       -3.88496552270037        0.64854316016117
H           -2.39394123101805       -1.78582590298021        0.54517349417028
H           -2.77865033785851        2.77409705147645        1.38091692197717
H           -0.45915249747889        3.46729857794993        1.52029306293198
H            1.37588772239379        4.30171068572693        0.94021668164887
H            3.72876833430560        4.89147939590535        1.12747369197689
H            2.43631260926326        0.23619614058607       -0.07191600148052
H            8.09456888166093        0.44261082326727        0.07497059123647
H            9.65281817774067        2.32831558087408        0.47428177715199
H            8.79537529221274        4.57111323817206        0.98444825621097
H            6.36873493561932        4.99920539694724        1.10370179263655
H            6.20712177469546        1.60126791621240       -2.16037572120622
H            5.92980286445319        0.65190226475490       -4.41920278318163
H            4.66562200817256       -1.45705810821741       -4.70722442440386
H            3.77465435421615       -2.63273700999905       -2.76178754560475
H            4.66118950292416       -4.33950104811143       -1.12502148041468
H            3.08029792396255       -6.22028908629752       -1.37044363056667
H            0.71703547727294       -5.93869015216216       -0.72562095375857
H           -0.06311679644280       -3.77868352364047        0.17868393513551
H            1.51634239646906       -1.90310558266661        0.42691188756403
H            3.88305255449579       -3.42304694879946        1.93675527871760
H            4.73127389944059       -2.88037770752742        4.16959182929340
H            5.88617461234892       -0.72793887965994        4.56968599492786
H            6.14754559908170        0.87628421430487        2.72014384228342
H            0.64385231754109        0.20775654210441       -1.07448368506382
H           -1.68073242175341       -0.45727591023934       -1.20952855338121

 projected vibrational frequencies (cm⁻¹)
eigval :       -0.00    -0.00    -0.00    -0.00     0.00     0.00
eigval :        5.85     7.85    11.79    19.12    24.40    30.59
eigval :       33.05    36.58    40.84    46.57    52.38    58.37
eigval :       59.04    68.70    71.81    77.72    82.96    97.40
eigval :      106.58   114.27   120.40   122.00   133.00   154.67
eigval :      161.31   170.34   174.98   181.30   189.30   201.07
eigval :      202.74   217.58   218.18   223.37   226.75   229.32
eigval :      244.35   253.32   257.87   260.36   271.93   274.33
eigval :      287.07   294.61   299.82   317.72   322.14   336.10
eigval :      338.53   349.17   358.96   370.08   371.94   373.55
eigval :      377.04   379.52   387.73   389.20   399.74   400.51
eigval :      406.91   408.90   420.04   426.42   440.39   442.13
eigval :      442.95   448.90   454.61   460.10   465.25   466.34
eigval :      489.43   490.75   495.23   501.01   508.83   517.72
eigval :      525.16   544.74   570.38   571.71   584.18   588.12
eigval :      589.80   595.22   597.55   599.28   603.58   612.01
eigval :      627.23   629.85   639.69   650.83   661.79   669.58
eigval :      672.29   677.62   687.29   688.52   701.54   705.47
eigval :      710.82   718.35   719.79   728.57   749.02   763.38
eigval :      767.23   775.30   783.16   783.48   797.57   814.76
eigval :      822.33   824.23   830.00   832.69   844.92   866.41
eigval :      866.97   869.57   870.88   872.92   880.55   891.06
eigval :      893.88   896.37   897.15   902.94   903.87   905.68
eigval :      907.32   909.16   910.26   911.23   913.70   917.43
eigval :      920.37   920.78   921.92   925.20   927.05   931.60
eigval :      935.38   938.52   942.05   960.17   960.28   962.79
eigval :      963.02   963.16   963.23   972.83   992.75   995.26
eigval :     1017.17  1030.50  1035.23  1035.27  1035.66  1040.79
eigval :     1061.26  1078.45  1080.39  1103.93  1105.45  1109.71
eigval :     1116.73  1123.32  1125.40  1129.51  1130.75  1140.08
eigval :     1142.59  1158.22  1169.71  1171.25  1180.67  1182.19
eigval :     1183.17  1183.85  1186.56  1193.08  1204.70  1220.49
eigval :     1224.79  1227.04  1227.14  1227.19  1230.66  1231.50
eigval :     1234.13  1241.29  1243.62  1254.46  1257.97  1259.39
eigval :     1264.83  1269.53  1275.18  1278.67  1284.29  1295.36
eigval :     1298.72  1307.71  1309.72  1316.14  1324.36  1328.27
eigval :     1329.34  1333.05  1336.42  1343.68  1348.56  1352.03
eigval :     1361.95  1378.24  1397.85  1400.99  1402.34  1404.67
eigval :     1405.70  1405.79  1411.35  1419.80  1428.55  1428.67
eigval :     1430.91  1437.56  1438.48  1438.91  1456.94  1460.45
eigval :     1466.98  1467.59  1469.19  1476.25  1482.73  1484.29
eigval :     1491.79  1491.95  1494.44  1494.58  1500.83  1500.92
eigval :     1505.08  1505.25  1506.19  1511.37  1514.76  1514.98
eigval :     1519.77  1520.61  1561.13  1563.95  1566.08  1569.76
eigval :     1576.34  1581.56  1582.12  1583.05  1585.12  1591.89
eigval :     1597.45  1599.13  1615.47  3021.84  3021.99  3023.44
eigval :     3023.53  3027.06  3027.16  3030.10  3030.39  3031.07
eigval :     3031.23  3035.60  3035.90  3038.22  3038.51  3047.12
eigval :     3047.79  3050.38  3051.21  3067.72  3069.93  3070.84
eigval :     3075.15  3078.75  3079.17  3079.49  3079.86  3080.54
eigval :     3083.16  3084.17  3085.56  3086.31  3086.90  3087.63
eigval :     3088.77  3091.55  3091.71  3092.25  3092.56  3094.76
eigval :     3095.82  3098.27  3098.66  3099.39  3100.44  3101.41
eigval :     3108.93  3115.70  3119.39

   temp. (K)  partition function   enthalpy   heat capacity  entropy
                                   cal/mol     cal/K/mol   cal/K/mol   J/K/mol
 298.15  VIB  0.366E+24            30262.009    190.838    188.058
         ROT  0.167E+09              888.752      2.981     40.611
         INT  0.613E+32            31150.761    193.819    228.669
         TR   0.203E+29             1481.254      4.968     45.747
         TOT                       32632.0150   198.7874   274.4152  1148.1532

       T/K    H(0)-H(T)+PV         H(T)/Eh          T*S/Eh         G(T)/Eh
   ------------------------------------------------------------------------
    298.15    0.520024E-01    0.913028E+00    0.130384E+00    0.782645E+00
   ------------------------------------------------------------------------

         :::::::::::::::::::::::::::::::::::::::::::::::::::::
         ::                  THERMODYNAMIC                  ::
         :::::::::::::::::::::::::::::::::::::::::::::::::::::
         :: total free energy        -151.624874752222 Eh   ::
         ::.................................................::
         :: total energy             -152.407519463508 Eh   ::
         :: zero point energy           0.861025803091 Eh   ::
         :: G(RRHO) w/o ZPVE           -0.078381091804 Eh   ::
         :: G(RRHO) contrib.            0.782644711287 Eh   ::
         :::::::::::::::::::::::::::::::::::::::::::::::::::::

           -------------------------------------------------
          | TOTAL ENERGY             -152.407519463508 Eh   |
          | TOTAL ENTHALPY           -151.494491234417 Eh   |
          | TOTAL FREE ENERGY        -151.624874752222 Eh   |
          | GRADIENT NORM               0.000092572155 Eh/α |
           -------------------------------------------------

 * finished run on 2025/08/26 at 11:28:53.087
