   * xtb version 6.7.1 (edcfbbe) compiled by 'albert@albert-system' on 2024-07-22

   ID    Z sym.   atoms
    1    6 C      1-20, 22-44, 46-59
    2    7 N      21, 45
    3    1 H      60-107

          program call               : xtb data2507/gas/SAF-CzB/SAF-CzB_gas_T1_crest.xyz --gfn 2 --spinpol --tblite --uhf 2 --ohess vtight --parallel 40 --molden --ceasefiles --namespace data2507/gas/SAF-CzB/SAF-CzB_gas_T1_finalOpt
 * total energy  :  -152.4076840 Eh     change       -0.4029636E-07 Eh
 * total energy  :  -152.4077008 Eh     change       -0.1681537E-04 Eh
 * total energy  :  -152.4077062 Eh     change       -0.5437942E-05 Eh
 * total energy  :  -152.4077072 Eh     change       -0.1000724E-05 Eh
 * total energy  :  -152.4077084 Eh     change       -0.1213844E-05 Eh
 * total energy  :  -152.4077097 Eh     change       -0.1322631E-05 Eh
 * total energy  :  -152.4077109 Eh     change       -0.1156317E-05 Eh
 * total energy  :  -152.4077120 Eh     change       -0.1109867E-05 Eh
 * total energy  :  -152.4077128 Eh     change       -0.8101648E-06 Eh
 * total energy  :  -152.4077136 Eh     change       -0.8132494E-06 Eh
 * total energy  :  -152.4077146 Eh     change       -0.3802229E-06 Eh
 * total energy  :  -152.4077149 Eh     change       -0.2778087E-06 Eh
 * total energy  :  -152.4077151 Eh     change       -0.2432312E-06 Eh
 * total energy  :  -152.4077153 Eh     change       -0.1845771E-06 Eh
 * total energy  :  -152.4077155 Eh     change       -0.2173370E-06 Eh
 * total energy  :  -152.4077157 Eh     change       -0.2258161E-06 Eh
 * total energy  :  -152.4077159 Eh     change       -0.1492591E-06 Eh
 * total energy  :  -152.4077160 Eh     change       -0.1289392E-06 Eh
 * total energy  :  -152.4077161 Eh     change       -0.9250866E-07 Eh
   *** GEOMETRY OPTIMIZATION CONVERGED AFTER 20 ITERATIONS ***

 final structure:
================
107
 xtb: 6.7.1 (edcfbbe)
C           -9.84618966120785        2.53574149256041       -0.64591581622305
C           -8.62859584926555        3.45986306927105       -0.73586852102682
C           -8.78958935790344        4.56263742331711        0.32029694672392
C           -8.60562780428435        4.08261663597216       -2.13911166130873
C           -7.31833367269131        2.72641156507775       -0.49359160847680
C           -6.11882795598424        3.45086016577759       -0.53753706878864
C           -4.88480512925330        2.87268725296025       -0.32087092586101
C           -4.84066061375543        1.51563238520513       -0.03610455631585
C           -6.03202032388125        0.75641122666666       -0.02292165952766
C           -7.25939450294720        1.36329959076743       -0.24466892825425
C           -5.64369007546381       -0.60528713871766        0.22493996295194
C           -6.36278600087189       -1.78337837829679        0.36303686841445
C           -5.69674451499488       -2.96857392558303        0.63721685587807
C           -6.41910244815471       -4.29824345352450        0.79180963709835
C           -7.93002428809128       -4.17610104425696        0.57589193356876
C           -5.87040572190234       -5.29189285051676       -0.24229090913799
C           -6.18225210585100       -4.83857589592638        2.20935267239672
C           -4.30389625205462       -2.93262513844103        0.79284838429931
C           -3.56416844613965       -1.77531581024564        0.66053877874777
C           -4.23652549767126       -0.60251979973858        0.34848439332282
N           -3.75951764998064        0.68485766955457        0.18925684283004
C           -2.42629633995738        1.06736829633937        0.24183199287524
C           -2.02569218749845        2.21540993812343        0.95246812880489
C           -0.71210994623182        2.57552612041757        1.01884878319075
C            0.31671067833494        1.81470728600334        0.38419593483743
C            1.68414784726552        2.15182733467074        0.48485261913579
C            2.13018042865840        3.45673115289674        0.89470386881923
C            3.44412171615120        3.79437171813245        0.97445556164380
C            4.43743665979417        2.83192925435960        0.67443792529607
C            4.01046438586785        1.51910647383830        0.29643315091129
C            2.70632176310450        1.18913640660439        0.18581291193046
C            5.22508980668809        0.62950601071092        0.05705670536980
C            6.35691805936621        1.60370506286041        0.28870010888861
C            7.70475501263399        1.37899782290483        0.19108994765311
C            8.58462572542219        2.42819758006111        0.46382741848626
C            8.09927188297751        3.68226191241740        0.83169719808126
C            6.74767154810020        3.92423635961000        0.93492708979620
C            5.84865265125530        2.88018463012415        0.66111369601484
C            5.15608556329858        0.09850131114689       -1.35190920769374
C            5.59924353683308        0.87084890908843       -2.41265711522193
C            5.40830234951584        0.46527040072341       -3.72164286392241
C            4.73465089011078       -0.71712926033382       -3.97476756574933
C            4.29156858265806       -1.50470475915346       -2.93087278358548
C            4.51811178855721       -1.12338771833937       -1.60707577084568
N            4.11247440767638       -1.92675964763265       -0.54963130904796
C            3.27503121776894       -3.05023630542556       -0.77998986242345
C            3.76331801659095       -4.19535717848896       -1.39888218700243
C            2.92235489461765       -5.27207986696347       -1.61651391783897
C            1.59795687801485       -5.21472977289447       -1.21493603438693
C            1.11455328397113       -4.07953554516572       -0.58619772824549
C            1.94918086603925       -2.99873257662198       -0.36626733259334
C            4.58573170773168       -1.70487635238659        0.73639337464536
C            4.48361378144622       -2.70348740800320        1.70674556379837
C            4.97928768982774       -2.49771128167240        2.97855506744885
C            5.59330794776727       -1.29978765200666        3.30217560914063
C            5.69799204467667       -0.30627332510627        2.34463276341190
C            5.20207130877166       -0.49215870554307        1.06479138568036
C           -0.12457218003755        0.67323906744271       -0.35475006032504
C           -1.43743892754676        0.31366298184509       -0.41898717462938
H           -9.91909198333690        2.07943130331738        0.33863396419808
H          -10.75254533850982        3.11344459767908       -0.81610761007841
H           -9.80116556758208        1.75384693055672       -1.40050546683187
H           -7.98463696059937        5.28976843085690        0.26190901336260
H           -8.78605675159248        4.12973751275536        1.31857447586866
H           -9.73202871356266        5.08635651220535        0.17429385842703
H           -9.54553749714673        4.59355623990501       -2.33737183834469
H           -8.46764499887061        3.30855608064250       -2.89126306823342
H           -7.79917837835938        4.80327100984054       -2.24111442015609
H           -6.14698002366348        4.50733705706833       -0.75583324218727
H           -3.98390627795512        3.46266013108384       -0.39011008067061
H           -8.14762327864214        0.75419531396235       -0.22463527156193
H           -7.43439899259318       -1.74917278615604        0.25948875554806
H           -8.37831977536151       -3.51130746309438        1.31058707167689
H           -8.39182345862471       -5.15541606246396        0.68497266609774
H           -8.15391452717362       -3.80876679287313       -0.42302027809517
H           -6.01344949410736       -4.90362160055206       -1.24866935141062
H           -6.39268054479844       -6.24294714311648       -0.16159587579546
H           -4.80957302482457       -5.47399713344390       -0.09522579223153
H           -6.55089704953184       -4.12955231735713        2.94777156349615
H           -6.70794896831913       -5.78171500419971        2.34334042667613
H           -5.12606968566487       -5.00817793326188        2.39893653355485
H           -3.77573134988239       -3.84243138981573        1.03425182175492
H           -2.49601524626871       -1.78628953616435        0.81480935291220
H           -2.77119588221484        2.78136521226165        1.49186718247899
H           -0.44103724256586        3.42957878345942        1.61873673570164
H            1.38716034414133        4.21082510277119        1.10389446898097
H            3.73910789804819        4.79354980732707        1.26094910408540
H            2.42703171360875        0.18443170529752       -0.08687249668333
H            8.08322222975922        0.40676372211437       -0.09173792586398
H            9.64945117561400        2.26640405412346        0.39074294289636
H            8.80202766881319        4.47717700407162        1.03849726179611
H            6.37798350666213        4.89805482669791        1.21932450657951
H            6.08796779457992        1.81121441483859       -2.20476988705123
H            5.76172466487965        1.07879858960049       -4.53598006259712
H            4.55032110351701       -1.03204244940636       -4.99119328594187
H            3.75965134546826       -2.41900297861918       -3.14452725366076
H            4.80001636495386       -4.23604376977514       -1.69965905326927
H            3.30409719020309       -6.16026014486425       -2.09773953935005
H            0.94471541872778       -6.05668112104804       -1.38803190276411
H            0.08380264193969       -4.03331403702215       -0.26769687718955
H            1.57995179670970       -2.11482656968705        0.13311094996408
H            4.01818537423567       -3.64544710349051        1.45776298606483
H            4.88897877388857       -3.28047338632601        3.71698526769271
H            5.98290548889324       -1.13650281698482        4.29522862829893
H            6.16448832630725        0.63523251349614        2.59371490615451
H            0.59089060160118        0.11011551606613       -0.93325040814028
H           -1.74107908667205       -0.52785220893852       -1.02508120572028

 projected vibrational frequencies (cm⁻¹)
eigval :       -0.00    -0.00     0.00     0.00     0.00     0.00
eigval :        5.04     7.38    10.51    18.75    24.10    30.46
eigval :       32.93    36.17    40.24    45.84    52.20    57.22
eigval :       57.70    68.41    71.19    77.57    82.72    96.89
eigval :      104.05   113.29   119.75   121.10   131.00   154.52
eigval :      160.58   168.90   174.59   180.38   188.38   200.76
eigval :      202.22   217.43   218.18   223.09   226.55   229.33
eigval :      244.43   253.81   257.95   260.25   270.12   273.22
eigval :      287.16   294.43   299.07   317.74   322.08   335.60
eigval :      338.42   349.53   358.85   370.00   371.89   373.63
eigval :      376.88   380.10   386.55   388.00   399.72   400.02
eigval :      406.35   408.60   419.84   426.54   439.43   441.65
eigval :      442.96   449.09   453.02   459.90   464.15   466.13
eigval :      488.24   491.88   495.46   500.62   508.45   517.60
eigval :      525.24   544.17   569.97   571.55   583.88   588.20
eigval :      590.01   595.11   597.49   599.27   603.95   611.70
eigval :      626.94   630.19   639.77   650.82   661.52   669.56
eigval :      672.25   677.37   686.83   688.64   702.20   705.67
eigval :      710.70   717.98   720.28   728.88   748.92   763.18
eigval :      767.02   774.97   781.35   783.18   794.66   812.67
eigval :      820.15   823.04   826.81   831.53   844.79   865.89
eigval :      866.69   869.27   870.53   872.84   880.04   890.95
eigval :      892.66   896.28   896.80   902.66   903.49   905.39
eigval :      907.25   909.26   910.07   910.90   913.42   917.17
eigval :      920.16   920.27   920.90   924.33   925.45   931.23
eigval :      934.76   937.51   942.54   959.97   960.05   962.57
eigval :      962.80   962.87   962.97   972.36   992.95   995.37
eigval :     1015.73  1030.23  1034.90  1034.99  1035.41  1040.66
eigval :     1061.76  1078.64  1080.17  1104.05  1105.78  1109.98
eigval :     1115.87  1123.70  1125.90  1129.20  1130.95  1139.25
eigval :     1141.91  1158.65  1169.98  1170.52  1180.01  1181.68
eigval :     1182.68  1183.59  1185.71  1193.54  1204.73  1220.05
eigval :     1225.30  1226.93  1227.02  1228.06  1230.67  1231.23
eigval :     1234.05  1240.78  1243.98  1254.17  1258.27  1259.27
eigval :     1265.17  1268.88  1274.58  1278.38  1284.08  1295.81
eigval :     1299.10  1308.21  1310.03  1316.23  1325.21  1328.20
eigval :     1329.43  1333.57  1336.89  1344.57  1348.48  1351.45
eigval :     1361.91  1379.39  1398.25  1402.01  1402.38  1404.08
eigval :     1405.05  1405.15  1411.34  1420.42  1427.51  1427.67
eigval :     1430.82  1437.48  1438.10  1438.92  1457.31  1461.29
eigval :     1467.70  1467.78  1469.23  1476.71  1482.55  1484.14
eigval :     1491.03  1491.17  1493.64  1493.82  1500.03  1500.14
eigval :     1504.25  1504.41  1507.35  1513.28  1513.93  1514.15
eigval :     1518.94  1519.78  1561.68  1564.58  1566.23  1571.04
eigval :     1576.47  1581.78  1582.35  1583.32  1585.59  1592.09
eigval :     1598.11  1598.81  1615.75  3021.52  3021.68  3023.05
eigval :     3023.20  3026.75  3026.81  3029.73  3030.05  3030.53
eigval :     3030.62  3035.26  3035.53  3037.49  3037.78  3046.43
eigval :     3047.19  3049.92  3050.75  3067.52  3069.76  3070.72
eigval :     3073.59  3078.15  3078.61  3079.05  3079.35  3080.42
eigval :     3083.15  3083.94  3085.54  3085.80  3086.13  3087.52
eigval :     3090.53  3091.43  3091.74  3092.20  3093.26  3094.64
eigval :     3095.66  3097.46  3098.73  3099.23  3100.40  3103.84
eigval :     3107.40  3115.45  3119.07

   temp. (K)  partition function   enthalpy   heat capacity  entropy
                                   cal/mol     cal/K/mol   cal/K/mol   J/K/mol
 298.15  VIB  0.624E+24            30301.920    190.822    188.708
         ROT  0.171E+09              888.752      2.981     40.649
         INT  0.106E+33            31190.672    193.803    229.357
         TR   0.203E+29             1481.254      4.968     45.747
         TOT                       32671.9261   198.7710   275.1036  1151.0333

       T/K    H(0)-H(T)+PV         H(T)/Eh          T*S/Eh         G(T)/Eh
   ------------------------------------------------------------------------
    298.15    0.520660E-01    0.912907E+00    0.130711E+00    0.782196E+00
   ------------------------------------------------------------------------

         :::::::::::::::::::::::::::::::::::::::::::::::::::::
         ::                  THERMODYNAMIC                  ::
         :::::::::::::::::::::::::::::::::::::::::::::::::::::
         :: total free energy        -151.625519709708 Eh   ::
         ::.................................................::
         :: total energy             -152.407716138010 Eh   ::
         :: zero point energy           0.860840982675 Eh   ::
         :: G(RRHO) w/o ZPVE           -0.078644554374 Eh   ::
         :: G(RRHO) contrib.            0.782196428301 Eh   ::
         :::::::::::::::::::::::::::::::::::::::::::::::::::::

           -------------------------------------------------
          | TOTAL ENERGY             -152.407716138010 Eh   |
          | TOTAL ENTHALPY           -151.494809126880 Eh   |
          | TOTAL FREE ENERGY        -151.625519709708 Eh   |
          | GRADIENT NORM               0.000083418972 Eh/α |
           -------------------------------------------------

 * finished run on 2025/08/26 at 11:48:30.766
