   * xtb version 6.7.1 (edcfbbe) compiled by 'albert@albert-system' on 2024-07-22

   ID    Z sym.   atoms
    1    6 C      1-4, 6-35, 37-68
    2    7 N      5, 36
    3    1 H      69-112

          program call               : xtb data2507/gas/p-TPA-AP-TPA/p-TPA-AP-TPA.xyz --gfn 2 --ohess vtight --parallel 40 --molden --ceasefiles --namespace data2507/gas/p-TPA-AP-TPA/p-TPA-AP-TPA_gas_S0_preOpt
          :  Hamiltonian                  GFN2-xTB          :
 * total energy  :  -169.6277311 Eh     change       -0.1093781E-08 Eh
 * total energy  :  -169.6513730 Eh     change       -0.2364191E-01 Eh
 * total energy  :  -169.6604286 Eh     change       -0.9055575E-02 Eh
 * total energy  :  -169.6628540 Eh     change       -0.2425370E-02 Eh
 * total energy  :  -169.6642346 Eh     change       -0.1380656E-02 Eh
 * total energy  :  -169.6650242 Eh     change       -0.7895950E-03 Eh
 * total energy  :  -169.6655887 Eh     change       -0.5644219E-03 Eh
 * total energy  :  -169.6659819 Eh     change       -0.3932308E-03 Eh
 * total energy  :  -169.6662248 Eh     change       -0.2429533E-03 Eh
 * total energy  :  -169.6663912 Eh     change       -0.1663441E-03 Eh
 * total energy  :  -169.6677052 Eh     change       -0.1334045E-05 Eh
 * total energy  :  -169.6677063 Eh     change       -0.1126069E-05 Eh
 * total energy  :  -169.6677074 Eh     change       -0.1108541E-05 Eh
 * total energy  :  -169.6677085 Eh     change       -0.1080961E-05 Eh
 * total energy  :  -169.6677094 Eh     change       -0.8834209E-06 Eh
 * total energy  :  -169.6677100 Eh     change       -0.6418347E-06 Eh
 * total energy  :  -169.6677105 Eh     change       -0.5093768E-06 Eh
 * total energy  :  -169.6677110 Eh     change       -0.4423983E-06 Eh
 * total energy  :  -169.6677110 Eh     change       -0.1007419E-07 Eh
   *** GEOMETRY OPTIMIZATION CONVERGED AFTER 68 ITERATIONS ***

 final structure:
================
112
 xtb: 6.7.1 (edcfbbe)
C          -12.72700960959288        3.02749144946135        1.08214943145594
C          -11.46197687032699        2.94016216730776        1.63976878406514
C          -10.65360648056700        1.85217621435812        1.37464759385079
C          -11.10008959343812        0.83256612614943        0.53404990866567
N          -10.28197128742299       -0.26853321578135        0.25776364208251
C          -10.84304474052655       -1.54368891008784        0.12745443029922
C          -10.34516222483338       -2.44303566005901       -0.81532605657054
C          -10.89960680191031       -3.70209109698109       -0.93725117414808
C          -11.96051946455094       -4.08317923146801       -0.13221604841705
C          -12.46169230136293       -3.19243768424723        0.80290845996588
C          -11.90839231819384       -1.93425032998350        0.93855424415170
C           -8.90274354269459       -0.09301335922517        0.10720507296084
C           -8.00897892329559       -1.05645188668270        0.57534323233064
C           -6.64943074786948       -0.88307510644585        0.41803582711146
C           -6.14056237497522        0.25892827392503       -0.19470137161921
C           -4.68489367929903        0.44632437774098       -0.35570541203697
C           -3.96442020166459       -0.38757736953733       -1.22389987741715
C           -4.59842361204335       -1.40511442274244       -1.98431036280892
C           -3.88818913822024       -2.20455903434107       -2.82587816217366
C           -2.49732979193530       -2.02986657841886       -2.97011914132473
C           -1.85365425281663       -1.05322836142781       -2.27544751197186
C           -2.55614408280845       -0.20190921156713       -1.38256187830690
C           -1.90312189020055        0.81645791874369       -0.67492382154475
C           -0.45160020759682        1.03183771801657       -0.86559924780396
C           -0.02286605528381        2.07934706012768       -1.67281604212141
C            1.32014036963221        2.30429372394966       -1.89608768747990
C            2.28679094195388        1.48666623197812       -1.30863193104883
C            3.67963666805455        1.67179731809140       -1.53899320254185
C            4.60326776030836        0.87816773688335       -0.94922051194665
C            4.22375168139629       -0.17422875150758       -0.06378732955306
C            5.16601007809598       -1.00347306692782        0.57162298722974
C            6.61296383746732       -0.76987781497432        0.45652502135625
C            7.46512956208282       -1.80091910402900        0.06687416301052
C            8.82628100907738       -1.60124493043665       -0.02665952824485
C            9.38166732553553       -0.36121158298778        0.29039377525441
N           10.76123414072800       -0.15466846884070        0.20214012072861
C           11.25676186237098        1.07965442891367       -0.23295044427985
C           10.60306251260527        1.78880268508007       -1.24056135795605
C           11.09334459292129        3.00866436912173       -1.66375790391621
C           12.24268306316185        3.53746906241728       -1.09959750149134
C           12.89826886552856        2.83530111602728       -0.10149697000533
C           12.41117916171486        1.61863431399126        0.33454086112741
C           11.64660084495833       -1.18081008053228        0.55080759889433
C           12.82888616866476       -1.36866532983950       -0.16484544521110
C           13.70138168542347       -2.38029562142910        0.18590523129566
C           13.40917997192272       -3.22407283942683        1.24500902168274
C           12.23432289422519       -3.04434844092811        1.95659761528892
C           11.35942499024097       -2.03033239522383        1.61912280720927
C            8.53447221758591        0.66853940323093        0.70163648874060
C            7.17275277468820        0.46610509656509        0.77682840353200
C            4.72488512691699       -2.07198492684477        1.34810077414832
C            3.38226092513218       -2.31187936145875        1.54615572425843
C            2.41852999543964       -1.48556944800703        0.96583156639210
C            1.02440915769869       -1.68756544780898        1.17550377776340
C            0.10181055177026       -0.88334661617540        0.59977492264207
C            0.49169464961221        0.19339206559659       -0.25021195200479
C            1.87305380246496        0.42279547039650       -0.47013391667791
C            2.84063244892536       -0.41201882048244        0.14363661859335
C           -2.62130929762161        1.64866018136825        0.19336626256492
C           -1.97969999455104        2.67088953901920        0.94091080686142
C           -2.68049664162062        3.46321027135188        1.79639601608642
C           -4.06612218576542        3.27142346233192        1.96760899075181
C           -4.71672112635681        2.29740606266650        1.27496736605201
C           -4.02847332336887        1.45966804257156        0.35839654890312
C           -7.03496036183090        1.22229744499918       -0.65378066793132
C           -8.39626461799134        1.04898388721948       -0.51380109615540
C          -12.37314438929739        0.92746277728676       -0.02775688776330
C          -13.17738824127879        2.01529243670197        0.25049995834416
H          -13.35714226162995        3.87786082044092        1.29411222166708
H          -11.10431262805371        3.72166843428607        2.29411211761610
H           -9.67181566893229        1.78152631690409        1.81970203037901
H           -9.52534544291747       -2.14472978531641       -1.45242145600682
H          -10.50570838254005       -4.38769444005539       -1.67321117526781
H          -12.39358183757443       -5.06676540781527       -0.23290832493766
H          -13.28522708651036       -3.48246156081093        1.43886882508308
H          -12.29480055787213       -1.24538823725859        1.67551741370565
H           -8.38946451814137       -1.94033045337707        1.06610486966336
H           -5.96640787390834       -1.63301770952381        0.79042166088173
H           -5.66647103034335       -1.53097026568472       -1.88691164505771
H           -4.38627243639293       -2.97506535810236       -3.39623984166560
H           -1.94985975976101       -2.67207731666199       -3.64436402255395
H           -0.79016082784813       -0.90817187319363       -2.39559391370224
H           -0.76275901138577        2.71735794161382       -2.13552385728333
H            1.63379690730907        3.11823144772188       -2.53410505770406
H            3.98304338239097        2.46358094953700       -2.20966042300797
H            5.65324996508257        1.02149755238093       -1.15626434862593
H            7.04766191321029       -2.76292620053599       -0.19329893413442
H            9.47138595041861       -2.40478455548920       -0.35079043277683
H            9.71284673386987        1.37351566321359       -1.69003827315650
H           10.57863344451849        3.54614796338307       -2.44670988589675
H           12.62475648681400        4.48951263966507       -1.43538729382697
H           13.79211990290403        3.24219011278164        0.34818254479029
H           12.91876476812213        1.07790743744825        1.11997724002578
H           13.05450439694647       -0.71831279389012       -0.99737653170034
H           14.61250298571309       -2.51604830939401       -0.37817586376608
H           14.09198077466492       -4.01566534483528        1.51388035927945
H           12.00075794824699       -3.69365776522608        2.78766814990151
H           10.44913435552128       -1.88557341415202        2.18249078460892
H            8.95515278912125        1.62718029122561        0.96820398440976
H            6.53227930996547        1.26631889124309        1.11883297350103
H            5.45953989084694       -2.70631489938128        1.82394318363912
H            3.06467916138561       -3.13905340466585        2.16499647524981
H            0.72024560753582       -2.50492363843867        1.81421640406432
H           -0.95277587070299       -1.04275992552040        0.77121471125993
H           -0.91449626095110        2.80366030098229        0.82048282184533
H           -2.17975424486427        4.23778730631036        2.35866404559312
H           -4.60504530931378        3.90014697187231        2.66140308284143
H           -5.77529240790747        2.14130583566276        1.42046740917658
H           -6.65414036324676        2.10780926472638       -1.14204896401470
H           -9.07927032605639        1.79732208283163       -0.88838168758563
H          -12.72310109125048        0.14472153321981       -0.68487265767902
H          -14.16028874167977        2.07710097516578       -0.19318133200608

          :  Hamiltonian                  GFN2-xTB          :
         :: gradient norm              0.000062561072 Eh/a0 ::
         :: HOMO-LUMO gap              1.856752692764 eV    ::
         :: SCC energy              -172.955542526053 Eh    ::
         :: -> dispersion             -0.166304540863 Eh    ::
         :: repulsion energy           3.287831551009 Eh    ::

    * Orbital Energies and Occupations

         #    Occupation            Energy/Eh            Energy/eV
      -------------------------------------------------------------
         1        2.0000           -0.6640854             -18.0707
       ...           ...                  ...                  ...
       147        2.0000           -0.4038232             -10.9886
       148        2.0000           -0.4034675             -10.9789
       149        2.0000           -0.4032088             -10.9719
       150        2.0000           -0.4019428             -10.9374
       151        2.0000           -0.3999867             -10.8842
       152        2.0000           -0.3981442             -10.8341
       153        2.0000           -0.3962294             -10.7820
       154        2.0000           -0.3953498             -10.7580
       155        2.0000           -0.3880216             -10.5586
       156        2.0000           -0.3618722              -9.8470
       157        2.0000           -0.3564533              -9.6996
       158        2.0000           -0.3471893              -9.4475
       159        2.0000           -0.3462563              -9.4221 (HOMO)
       160                         -0.2780220              -7.5654 (LUMO)
       161                         -0.2730909              -7.4312
       162                         -0.2405056              -6.5445
       163                         -0.2297748              -6.2525
       164                         -0.2297347              -6.2514
       165                         -0.2294200              -6.2428
       166                         -0.2293988              -6.2423
       167                         -0.2281219              -6.2075
       168                         -0.2266855              -6.1684
       169                         -0.2264517              -6.1621
       170                         -0.2211597              -6.0181
       ...                                ...                  ...
       316                          0.7339522              19.9719
      -------------------------------------------------------------
                  HL-Gap            0.0682344 Eh            1.8568 eV

     #   Z          covCN         q      C6AA      α(0)
     1   6 C        2.919    -0.039    28.959     8.825
     2   6 C        2.920    -0.029    28.733     8.790
     3   6 C        2.922    -0.047    29.179     8.858
     4   6 C        2.924     0.065    26.538     8.448
     5   7 N        2.752    -0.076    22.723     7.080
     6   6 C        2.924     0.065    26.538     8.448
     7   6 C        2.922    -0.048    29.181     8.859
     8   6 C        2.920    -0.029    28.733     8.790
     9   6 C        2.919    -0.039    28.960     8.825
    10   6 C        2.920    -0.029    28.731     8.790
    11   6 C        2.922    -0.048    29.185     8.859
    12   6 C        2.924     0.063    26.589     8.456
    13   6 C        2.921    -0.049    29.217     8.864
    14   6 C        2.923    -0.033    28.814     8.803
    15   6 C        2.976     0.007    27.861     8.658
    16   6 C        2.977    -0.006    28.171     8.706
    17   6 C        2.983     0.005    27.896     8.664
    18   6 C        2.917    -0.035    28.865     8.810
    19   6 C        2.915    -0.030    28.759     8.794
    20   6 C        2.914    -0.030    28.754     8.793
    21   6 C        2.918    -0.033    28.827     8.804
    22   6 C        2.984     0.006    27.869     8.660
    23   6 C        2.978    -0.004    28.122     8.699
    24   6 C        2.977     0.007    27.850     8.657
    25   6 C        2.919    -0.034    28.846     8.807
    26   6 C        2.918    -0.039    28.966     8.826
    27   6 C        2.982     0.008    27.823     8.652
    28   6 C        2.913    -0.038    28.936     8.821
    29   6 C        2.913    -0.036    28.905     8.816
    30   6 C        2.982     0.006    27.878     8.661
    31   6 C        2.976     0.003    27.964     8.674
    32   6 C        2.977     0.004    27.934     8.670
    33   6 C        2.924    -0.034    28.851     8.809
    34   6 C        2.920    -0.049    29.209     8.863
    35   6 C        2.924     0.063    26.583     8.455
    36   7 N        2.752    -0.076    22.708     7.077
    37   6 C        2.924     0.065    26.539     8.448
    38   6 C        2.922    -0.047    29.178     8.858
    39   6 C        2.920    -0.029    28.732     8.790
    40   6 C        2.919    -0.038    28.957     8.824
    41   6 C        2.920    -0.029    28.730     8.790
    42   6 C        2.922    -0.048    29.182     8.859
    43   6 C        2.924     0.065    26.539     8.448
    44   6 C        2.922    -0.048    29.182     8.859
    45   6 C        2.920    -0.029    28.731     8.790
    46   6 C        2.919    -0.038    28.957     8.824
    47   6 C        2.920    -0.029    28.732     8.790
    48   6 C        2.922    -0.048    29.181     8.859
    49   6 C        2.921    -0.049    29.220     8.864
    50   6 C        2.923    -0.033    28.821     8.804
    51   6 C        2.921    -0.036    28.894     8.815
    52   6 C        2.918    -0.038    28.947     8.823
    53   6 C        2.983     0.009    27.808     8.650
    54   6 C        2.914    -0.036    28.905     8.816
    55   6 C        2.913    -0.034    28.846     8.807
    56   6 C        2.984     0.007    27.862     8.659
    57   6 C        2.996     0.002    27.973     8.676
    58   6 C        2.995     0.002    27.962     8.674
    59   6 C        2.984     0.006    27.880     8.661
    60   6 C        2.918    -0.034    28.839     8.806
    61   6 C        2.914    -0.030    28.756     8.793
    62   6 C        2.915    -0.030    28.759     8.794
    63   6 C        2.917    -0.035    28.862     8.810
    64   6 C        2.984     0.005    27.892     8.663
    65   6 C        2.924    -0.033    28.813     8.803
    66   6 C        2.921    -0.049    29.216     8.864
    67   6 C        2.922    -0.048    29.185     8.859
    68   6 C        2.920    -0.029    28.731     8.790
    69   1 H        0.926     0.030     2.590     2.517
    70   1 H        0.926     0.031     2.571     2.508
    71   1 H        0.926     0.030     2.580     2.512
    72   1 H        0.926     0.030     2.580     2.512
    73   1 H        0.926     0.031     2.572     2.508
    74   1 H        0.926     0.030     2.590     2.517
    75   1 H        0.926     0.031     2.572     2.508
    76   1 H        0.926     0.031     2.568     2.506
    77   1 H        0.926     0.032     2.559     2.501
    78   1 H        0.926     0.032     2.558     2.501
    79   1 H        0.926     0.031     2.579     2.511
    80   1 H        0.926     0.027     2.623     2.533
    81   1 H        0.926     0.028     2.620     2.531
    82   1 H        0.926     0.030     2.589     2.516
    83   1 H        0.926     0.028     2.613     2.528
    84   1 H        0.926     0.030     2.588     2.516
    85   1 H        0.926     0.028     2.609     2.526
    86   1 H        0.926     0.032     2.551     2.498
    87   1 H        0.926     0.033     2.551     2.498
    88   1 H        0.926     0.032     2.560     2.502
    89   1 H        0.926     0.031     2.575     2.509
    90   1 H        0.926     0.031     2.569     2.507
    91   1 H        0.926     0.030     2.587     2.515
    92   1 H        0.926     0.031     2.569     2.507
    93   1 H        0.926     0.031     2.567     2.505
    94   1 H        0.926     0.031     2.566     2.505
    95   1 H        0.926     0.031     2.570     2.507
    96   1 H        0.926     0.030     2.588     2.516
    97   1 H        0.926     0.031     2.570     2.507
    98   1 H        0.926     0.031     2.568     2.506
    99   1 H        0.926     0.032     2.562     2.503
   100   1 H        0.926     0.034     2.531     2.488
   101   1 H        0.926     0.029     2.596     2.519
   102   1 H        0.926     0.030     2.589     2.516
   103   1 H        0.926     0.029     2.602     2.522
   104   1 H        0.926     0.030     2.591     2.517
   105   1 H        0.926     0.030     2.584     2.514
   106   1 H        0.926     0.028     2.619     2.531
   107   1 H        0.926     0.027     2.623     2.533
   108   1 H        0.926     0.030     2.581     2.512
   109   1 H        0.926     0.032     2.556     2.500
   110   1 H        0.926     0.032     2.559     2.501
   111   1 H        0.926     0.031     2.568     2.506
   112   1 H        0.926     0.031     2.572     2.508

molecular dipole:
                 x           y           z       tot (Debye)
 q only:        0.080      -0.016       0.023
   full:        0.080      -0.023       0.027       0.222

 projected vibrational frequencies (cm⁻¹)
eigval :       -0.00    -0.00     0.00     0.00     0.00     0.00
eigval :        5.22     6.33     7.12    13.31    15.49    16.52
eigval :       19.80    32.95    34.18    43.51    44.39    49.24
eigval :       49.84    57.15    61.33    65.66    69.82    72.80
eigval :       75.97    78.72    88.36    97.96   107.12   110.92
eigval :      115.27   119.60   148.55   159.93   164.69   180.96
eigval :      184.12   187.17   198.53   204.89   212.34   226.97
eigval :      232.96   234.22   237.58   241.37   273.38   288.99
eigval :      307.13   312.53   318.61   320.29   337.50   349.93
eigval :      354.23   364.04   377.18   378.00   378.20   378.72
eigval :      381.19   387.08   388.11   388.96   392.27   400.01
eigval :      404.45   410.95   413.71   417.27   422.42   446.37
eigval :      458.28   458.82   470.09   477.00   482.88   485.38
eigval :      489.09   491.30   497.83   499.94   509.03   516.55
eigval :      526.14   550.96   565.95   575.67   580.87   583.85
eigval :      584.86   585.98   587.86   589.20   593.95   596.96
eigval :      603.07   607.67   611.55   626.80   643.37   648.20
eigval :      652.40   653.22   655.72   659.77   659.95   665.76
eigval :      670.12   679.61   686.83   689.44   692.36   693.55
eigval :      700.93   722.03   736.48   740.48   744.37   756.70
eigval :      756.88   758.25   760.72   761.24   774.16   775.32
eigval :      801.18   806.24   815.26   816.14   825.79   843.46
eigval :      846.03   852.02   871.88   873.31   873.88   874.40
eigval :      874.46   875.37   876.76   877.76   890.58   891.38
eigval :      891.66   892.62   897.60   897.81   910.14   910.24
eigval :      913.45   913.62   915.36   915.65   917.39   918.57
eigval :      920.09   922.48   924.79   926.49   927.35   927.43
eigval :      927.91   928.30   928.55   928.64   929.04   929.72
eigval :      929.80   931.47   932.61   939.67   942.96   963.03
eigval :      986.91   988.73   997.02  1005.04  1005.08  1021.38
eigval :     1027.71  1078.93  1081.01  1082.41  1083.24  1083.34
eigval :     1084.26  1084.31  1111.33  1121.92  1121.95  1124.21
eigval :     1124.28  1135.33  1139.15  1139.57  1144.29  1156.64
eigval :     1166.64  1180.75  1180.79  1180.79  1180.88  1181.24
eigval :     1183.12  1185.70  1187.28  1187.63  1194.12  1195.71
eigval :     1195.80  1195.83  1198.23  1207.83  1208.61  1216.83
eigval :     1223.13  1228.02  1228.70  1239.75  1255.62  1262.18
eigval :     1264.43  1270.46  1270.95  1278.64  1278.69  1280.58
eigval :     1282.02  1289.43  1306.61  1310.78  1312.12  1314.76
eigval :     1319.57  1321.36  1321.54  1323.97  1325.23  1327.35
eigval :     1327.63  1333.28  1333.93  1350.47  1361.32  1377.18
eigval :     1382.72  1385.08  1386.32  1405.93  1407.98  1411.69
eigval :     1417.53  1422.78  1429.66  1436.45  1436.56  1443.17
eigval :     1443.68  1446.73  1452.23  1472.33  1472.60  1477.01
eigval :     1477.12  1477.28  1483.24  1496.34  1500.12  1506.00
eigval :     1526.76  1528.82  1532.68  1542.75  1554.93  1555.87
eigval :     1562.98  1565.38  1577.24  1577.26  1581.25  1581.27
eigval :     1593.90  1595.27  1595.45  1595.69  1600.72  1601.94
eigval :     1604.75  1607.56  1608.91  1623.07  3066.92  3067.02
eigval :     3069.90  3070.28  3072.50  3072.84  3075.17  3075.18
eigval :     3075.44  3075.57  3075.65  3075.78  3076.41  3076.49
eigval :     3076.79  3076.87  3077.46  3077.62  3078.98  3079.70
eigval :     3080.70  3081.55  3085.51  3085.63  3086.22  3086.34
eigval :     3086.53  3087.82  3087.96  3088.60  3089.00  3089.25
eigval :     3089.26  3089.31  3089.81  3089.84  3090.18  3090.97
eigval :     3093.22  3094.34  3097.05  3097.11  3097.61  3097.69

   temp. (K)  partition function   enthalpy   heat capacity  entropy
                                   cal/mol     cal/K/mol   cal/K/mol   J/K/mol
 298.15  VIB  0.443E+27            31897.447    201.146    201.782
         ROT  0.320E+09              888.752      2.981     41.896
         INT  0.141E+36            32786.199    204.127    243.678
         TR   0.246E+29             1481.254      4.968     46.129
         TOT                       34267.4532   209.0948   289.8062  1212.5492

       T/K    H(0)-H(T)+PV         H(T)/Eh          T*S/Eh         G(T)/Eh
   ------------------------------------------------------------------------
    298.15    0.546087E-01    0.924310E+00    0.137696E+00    0.786614E+00
   ------------------------------------------------------------------------

         :::::::::::::::::::::::::::::::::::::::::::::::::::::
         ::                  THERMODYNAMIC                  ::
         :::::::::::::::::::::::::::::::::::::::::::::::::::::
         :: total free energy        -168.881097418432 Eh   ::
         ::.................................................::
         :: total energy             -169.667710975039 Eh   ::
         :: zero point energy           0.869701178924 Eh   ::
         :: G(RRHO) w/o ZPVE           -0.083087622317 Eh   ::
         :: G(RRHO) contrib.            0.786613556607 Eh   ::
         :::::::::::::::::::::::::::::::::::::::::::::::::::::

           -------------------------------------------------
          | TOTAL ENERGY             -169.667710975039 Eh   |
          | TOTAL ENTHALPY           -168.743401133467 Eh   |
          | TOTAL FREE ENERGY        -168.881097418432 Eh   |
          | GRADIENT NORM               0.000062561271 Eh/α |
          | HOMO-LUMO GAP               1.856751982920 eV   |
           -------------------------------------------------

 * finished run on 2025/09/03 at 20:23:14.059
