   * xtb version 6.7.1 (edcfbbe) compiled by 'albert@albert-system' on 2024-07-22

   ID    Z sym.   atoms
    1    6 C      1-4, 6-35, 37-68
    2    7 N      5, 36
    3    1 H      69-112

          program call               : xtb data2507/gas/p-TPA-AP-TPA/p-TPA-AP-TPA_gas_T1_crest.xyz --gfn 2 --spinpol --tblite --uhf 2 --ohess vtight --parallel 40 --molden --ceasefiles --namespace data2507/gas/p-TPA-AP-TPA/p-TPA-AP-TPA_gas_T1_finalOpt
 * total energy  :  -169.6071241 Eh     change       -0.2774394E-07 Eh
 * total energy  :  -169.6072023 Eh     change       -0.7825801E-04 Eh
 * total energy  :  -169.6072864 Eh     change       -0.8404964E-04 Eh
 * total energy  :  -169.6072980 Eh     change       -0.1164929E-04 Eh
 * total energy  :  -169.6073126 Eh     change       -0.1456398E-04 Eh
 * total energy  :  -169.6073167 Eh     change       -0.4105842E-05 Eh
 * total energy  :  -169.6073221 Eh     change       -0.5390001E-05 Eh
 * total energy  :  -169.6073256 Eh     change       -0.3476241E-05 Eh
 * total energy  :  -169.6073285 Eh     change       -0.2907166E-05 Eh
 * total energy  :  -169.6073323 Eh     change       -0.3837710E-05 Eh
 * total energy  :  -169.6073847 Eh     change       -0.4828327E-06 Eh
 * total energy  :  -169.6073855 Eh     change       -0.8130586E-06 Eh
 * total energy  :  -169.6073865 Eh     change       -0.9344547E-06 Eh
 * total energy  :  -169.6073875 Eh     change       -0.9823543E-06 Eh
 * total energy  :  -169.6073885 Eh     change       -0.1001503E-05 Eh
 * total energy  :  -169.6073893 Eh     change       -0.8158717E-06 Eh
 * total energy  :  -169.6073900 Eh     change       -0.7565034E-06 Eh
 * total energy  :  -169.6073907 Eh     change       -0.7043402E-06 Eh
 * total energy  :  -169.6073908 Eh     change       -0.6987898E-07 Eh
   *** GEOMETRY OPTIMIZATION CONVERGED AFTER 68 ITERATIONS ***

 final structure:
================
112
 xtb: 6.7.1 (edcfbbe)
C          -11.85796587882598        3.79435523767328       -2.18069624884106
C          -10.62926538732728        3.90385988827208       -1.55009935750533
C          -10.10755112087864        2.83771239791496       -0.84412132457456
C          -10.81070355316506        1.63540679155300       -0.76604309098670
N          -10.28362484966411        0.55067849610275       -0.05624992959058
C          -11.13438675486961       -0.28308288408392        0.67808695215517
C          -10.90243355809780       -1.65752943661423        0.73369732111582
C          -11.74354366199345       -2.47577581031436        1.46191341285719
C          -12.82928507389281       -1.94308473382563        2.13773215992037
C          -13.06629168393745       -0.57916509720360        2.08256458932262
C          -12.22672598814218        0.24875864192338        1.36346305063632
C           -8.91161498249351        0.29778348973084       -0.08534375534524
C           -8.25282776287823       -0.19486314410600        1.04410016024127
C           -6.90139307794217       -0.45281475091603        1.00875379812411
C           -6.14539843928207       -0.21060764863298       -0.14404589884972
C           -4.71145517003875       -0.47477797277116       -0.17426959059057
C           -4.21999916884883       -1.76894936962521        0.16817944448384
C           -5.08446080205083       -2.83228582864323        0.46368114203460
C           -4.60303740222256       -4.06210170868885        0.88247472639447
C           -3.24122860670797       -4.25397872044233        1.03059538790896
C           -2.36078672616892       -3.23923590189881        0.68699342506180
C           -2.81580381817066       -2.01230075523921        0.18991079659859
C           -1.90412946344632       -0.99217733602575       -0.23123943772882
C           -0.48957035966497       -1.28476875917373       -0.30885620402620
C           -0.06575879318442       -2.39045790798083       -1.06566896723509
C            1.26151072785613       -2.65237989678483       -1.27760724304702
C            2.25994067846959       -1.84075335682541       -0.70877688352734
C            3.63609557329691       -2.09065858782074       -0.90706484558290
C            4.58883439114931       -1.29353376635342       -0.34941274510276
C            4.23871026007551       -0.18334428397176        0.46284793044650
C            5.20678839770344        0.65923169125479        1.05410970537151
C            6.63405480690424        0.54374538683813        0.73934796715487
C            7.58449466223150        0.50252151717762        1.75949279254196
C            8.93045141801246        0.41531729560390        1.47608550138584
C            9.37403687073612        0.38833084433820        0.15314723725178
N           10.73797306419630        0.30341009477536       -0.13991613421131
C           11.17100784833171       -0.44572256472359       -1.23933655565749
C           10.53165620600397       -1.63831425450823       -1.57830318675902
C           10.95956449732194       -2.37238297648676       -2.66705704422801
C           12.03195504853701       -1.93825893269770       -3.42903459827702
C           12.67312929374505       -0.75669979062515       -3.09436923348283
C           12.24756237912695       -0.01104333762515       -2.01250256063125
C           11.66903833522503        0.96870509150756        0.66511637470155
C           12.90656268561220        0.38845061906795        0.94348565817021
C           13.82325403772589        1.05135783907107        1.73579441310907
C           13.52204674874792        2.29400433855969        2.26901370564681
C           12.29283098969316        2.87297436556686        1.99889222760501
C           11.37243185714107        2.22191169222974        1.20114529521054
C            8.42962449294885        0.45261053221651       -0.87267909364932
C            7.08464554311627        0.52353556390427       -0.58161750825713
C            4.79870657585668        1.64939000874445        1.94684216703213
C            3.46895360751508        1.86095905704925        2.22896425893562
C            2.47623423724757        1.08336976420965        1.61664920907327
C            1.09782312033910        1.28006881078207        1.87794572503658
C            0.14735484998336        0.52941191673713        1.25960194526854
C            0.49604878572766       -0.48280901121812        0.33073618514911
C            1.87032373944586       -0.75505356035746        0.11450045484195
C            2.86336658589500        0.04993745089892        0.72859571966362
C           -2.40860485478526        0.28584721607334       -0.63986138031230
C           -1.57252178821870        1.26549910532708       -1.18755806522032
C           -2.05001120173916        2.52141566561778       -1.52466529441164
C           -3.38225044424277        2.83065209466369       -1.31288968215907
C           -4.24714663907556        1.85866813445960       -0.83927355447577
C           -3.80472748195448        0.55849943398953       -0.55579105206169
C           -6.81274787715651        0.29203217794817       -1.26704805932911
C           -8.16774664730140        0.53163681590471       -1.24481527649521
C          -12.04602620336956        1.52938984468165       -1.40519322028147
C          -12.56259251988383        2.60407139506919       -2.10209341167481
H          -12.26364050980368        4.63068518810506       -2.72924968432080
H          -10.07591404601784        4.82999400210511       -1.60087617701314
H           -9.15522581510657        2.92923926798822       -0.34267947273371
H          -10.06392807077074       -2.07650816792650        0.19693073185638
H          -11.55469724998047       -3.53868762277450        1.49440915971698
H          -13.48627618431168       -2.58628483970973        2.70305454806543
H          -13.90728390891769       -0.15462218153438        2.61076118499457
H          -12.40724117415469        1.31327433153480        1.33046015009926
H           -8.81218241118621       -0.36079493032552        1.95336280442461
H           -6.40311701779950       -0.80782030848186        1.89908591198744
H           -6.14945810277867       -2.69262328531392        0.35795455918233
H           -5.29522079994201       -4.86013650489940        1.10760202967729
H           -2.85795555026275       -5.19323762971514        1.40087135117885
H           -1.30064417506419       -3.40016067552573        0.81003891993422
H           -0.81661220882402       -3.00008796775019       -1.54852197392196
H            1.55770633671991       -3.47912430224486       -1.90765526364777
H            3.92168890533544       -2.94127445139335       -1.51028737501728
H            5.63408226609597       -1.51890161872521       -0.49857530955521
H            7.25631500128477        0.50591315709924        2.78879111760099
H            9.65140455332197        0.36013787790403        2.27873680557943
H            9.70261449420855       -1.98504478676363       -0.97887185540893
H           10.45706260727167       -3.29530888043827       -2.91688927946381
H           12.36559212763951       -2.51641953836239       -4.27726743716719
H           13.50662383204744       -0.40740058447882       -3.68596102394977
H           12.74259257047820        0.91537903617703       -1.76029544784751
H           13.13985347229557       -0.58503959520856        0.53749900923332
H           14.77696934769297        0.58967218778594        1.94549744877360
H           14.23998151622012        2.80741036480575        2.89036304001544
H           12.05144376460422        3.84414924007239        2.40544262273216
H           10.41897027200307        2.68030416623382        0.98281716164309
H            8.76247125323395        0.45557384350752       -1.90047630217731
H            6.36875130023001        0.60085596360355       -1.38702877953250
H            5.55002376658751        2.28061558050332        2.40053207651779
H            3.17531272389336        2.64110511685834        2.91661425719878
H            0.81384003130084        2.04446805153057        2.58737669652286
H           -0.89760183484163        0.69243219350947        1.47806715806570
H           -0.52860102738253        1.04265466147438       -1.34540827930266
H           -1.37548535668824        3.25787409845925       -1.93527739147346
H           -3.75457104001129        3.82143341650535       -1.52809591346284
H           -5.28506428841810        2.10925882141933       -0.68160121881165
H           -6.25818068534770        0.45180638842339       -2.18021001462659
H           -8.66850458323573        0.89153116955068       -2.13186844960409
H          -12.59205635094732        0.59871910348078       -1.35457471360608
H          -13.51884327692203        2.50812945874999       -2.59491562197129

 projected vibrational frequencies (cm⁻¹)
eigval :       -0.00    -0.00    -0.00     0.00     0.00     0.00
eigval :        5.22     6.43     9.33    14.79    16.28    18.49
eigval :       27.99    31.59    37.04    41.18    48.08    50.98
eigval :       52.90    60.14    60.95    68.69    72.75    74.29
eigval :       75.42    81.33    92.67   104.31   109.82   115.10
eigval :      119.86   146.42   151.11   164.76   170.25   181.84
eigval :      182.78   192.12   194.21   208.77   225.87   230.27
eigval :      233.75   234.92   240.17   253.17   275.65   292.16
eigval :      306.23   307.81   318.01   319.64   339.01   346.80
eigval :      351.48   360.94   371.43   375.80   377.99   378.21
eigval :      381.16   383.64   386.60   389.58   390.93   397.14
eigval :      400.63   408.58   409.47   415.58   421.32   433.28
eigval :      449.65   465.56   469.96   471.46   482.68   485.11
eigval :      488.47   491.32   495.23   502.29   509.38   518.39
eigval :      525.66   548.81   563.15   571.28   575.83   578.58
eigval :      583.55   585.73   587.14   588.61   592.72   594.97
eigval :      600.67   603.66   609.96   619.94   634.60   640.28
eigval :      643.45   649.89   655.94   659.72   659.85   665.32
eigval :      669.98   676.83   679.08   685.78   688.65   692.60
eigval :      698.33   719.27   723.02   735.56   742.63   753.39
eigval :      754.27   756.82   756.96   760.59   761.01   765.02
eigval :      799.96   804.56   809.63   818.72   821.28   839.00
eigval :      841.79   843.53   854.02   857.51   872.47   872.98
eigval :      873.97   874.16   875.89   876.13   890.17   891.93
eigval :      892.78   892.96   895.02   896.09   897.30   898.34
eigval :      908.28   908.76   909.21   910.06   910.86   912.36
eigval :      914.74   918.87   923.34   926.79   927.40   928.02
eigval :      928.41   928.55   928.88   929.30   929.73   929.73
eigval :      929.89   936.92   939.06   941.63   947.10   962.27
eigval :      986.29   988.08   998.34  1004.76  1004.94  1020.58
eigval :     1024.41  1080.45  1082.81  1083.22  1083.90  1084.20
eigval :     1103.03  1107.12  1118.51  1121.84  1122.07  1123.10
eigval :     1124.09  1124.34  1130.46  1141.42  1141.50  1143.88
eigval :     1151.30  1170.46  1180.50  1180.63  1180.65  1180.77
eigval :     1182.72  1184.09  1185.49  1186.59  1187.96  1191.14
eigval :     1194.81  1195.37  1195.88  1198.53  1201.70  1210.07
eigval :     1216.83  1219.09  1224.66  1237.01  1239.34  1256.34
eigval :     1266.62  1269.81  1270.66  1277.82  1278.41  1280.86
eigval :     1281.52  1293.18  1296.72  1306.97  1309.23  1310.92
eigval :     1314.52  1318.57  1320.26  1320.53  1322.62  1324.44
eigval :     1325.01  1327.18  1327.47  1330.35  1334.19  1344.37
eigval :     1348.31  1369.39  1378.84  1388.35  1389.56  1397.99
eigval :     1407.64  1412.27  1414.76  1416.73  1419.61  1435.76
eigval :     1436.14  1442.63  1443.29  1451.62  1456.90  1464.50
eigval :     1469.40  1471.46  1473.29  1475.59  1476.12  1483.63
eigval :     1491.37  1501.55  1513.88  1524.80  1525.74  1533.21
eigval :     1535.22  1540.68  1550.91  1551.59  1568.50  1575.48
eigval :     1576.43  1577.85  1578.80  1580.58  1580.74  1592.36
eigval :     1592.80  1593.95  1597.32  1599.85  3065.08  3066.58
eigval :     3068.68  3070.38  3073.96  3074.69  3075.83  3076.21
eigval :     3076.37  3076.41  3077.22  3077.40  3077.43  3077.44
eigval :     3078.06  3078.30  3078.46  3078.98  3079.81  3080.14
eigval :     3083.06  3084.37  3086.19  3086.96  3087.10  3087.88
eigval :     3088.01  3088.52  3088.89  3089.12  3089.53  3089.64
eigval :     3090.28  3090.44  3090.96  3091.17  3093.58  3094.55
eigval :     3096.41  3097.56  3097.94  3098.66  3099.03  3099.96

   temp. (K)  partition function   enthalpy   heat capacity  entropy
                                   cal/mol     cal/K/mol   cal/K/mol   J/K/mol
 298.15  VIB  0.977E+26            31858.158    202.344    200.169
         ROT  0.323E+09              888.752      2.981     41.915
         INT  0.315E+35            32746.911    205.324    242.084
         TR   0.246E+29             1481.254      4.968     46.129
         TOT                       34228.1646   210.2926   288.2129  1205.8827

       T/K    H(0)-H(T)+PV         H(T)/Eh          T*S/Eh         G(T)/Eh
   ------------------------------------------------------------------------
    298.15    0.545461E-01    0.921631E+00    0.136939E+00    0.784692E+00
   ------------------------------------------------------------------------

         :::::::::::::::::::::::::::::::::::::::::::::::::::::
         ::                  THERMODYNAMIC                  ::
         :::::::::::::::::::::::::::::::::::::::::::::::::::::
         :: total free energy        -168.822699204435 Eh   ::
         ::.................................................::
         :: total energy             -169.607390803639 Eh   ::
         :: zero point energy           0.867084784355 Eh   ::
         :: G(RRHO) w/o ZPVE           -0.082393185151 Eh   ::
         :: G(RRHO) contrib.            0.784691599203 Eh   ::
         :::::::::::::::::::::::::::::::::::::::::::::::::::::

           -------------------------------------------------
          | TOTAL ENERGY             -169.607390803639 Eh   |
          | TOTAL ENTHALPY           -168.685759967058 Eh   |
          | TOTAL FREE ENERGY        -168.822699204435 Eh   |
          | GRADIENT NORM               0.000043093764 Eh/α |
           -------------------------------------------------

 * finished run on 2025/09/03 at 20:55:07.707
