   * xtb version 6.7.1 (edcfbbe) compiled by 'albert@albert-system' on 2024-07-22

   ID    Z sym.   atoms
    1    6 C      1-4, 6-35, 37-68
    2    7 N      5, 36
    3    1 H      69-112

          program call               : xtb data2507/gas/p-TPA-AP-TPA/p-TPA-AP-TPA_gas_S0_finalOpt.xtbopt.xyz --gfn 2 --spinpol --tblite --uhf 2 --ohess vtight --parallel 40 --molden --ceasefiles --namespace data2507/gas/p-TPA-AP-TPA/p-TPA-AP-TPA_gas_T1_preOpt
 * total energy  :  -169.5971233 Eh     change       -0.1768458E-07 Eh
 * total energy  :  -169.6022581 Eh     change       -0.5134830E-02 Eh
 * total energy  :  -169.6039753 Eh     change       -0.1717208E-02 Eh
 * total energy  :  -169.6041296 Eh     change       -0.1543161E-03 Eh
 * total energy  :  -169.6043504 Eh     change       -0.2207389E-03 Eh
 * total energy  :  -169.6044370 Eh     change       -0.8666601E-04 Eh
 * total energy  :  -169.6045848 Eh     change       -0.1477087E-03 Eh
 * total energy  :  -169.6046955 Eh     change       -0.1107045E-03 Eh
 * total energy  :  -169.6047825 Eh     change       -0.8705499E-04 Eh
 * total energy  :  -169.6048587 Eh     change       -0.7617983E-04 Eh
 * total energy  :  -169.6073480 Eh     change       -0.9366162E-06 Eh
 * total energy  :  -169.6073489 Eh     change       -0.9251893E-06 Eh
 * total energy  :  -169.6073502 Eh     change       -0.1293560E-05 Eh
 * total energy  :  -169.6073523 Eh     change       -0.2107507E-05 Eh
 * total energy  :  -169.6073540 Eh     change       -0.1750710E-05 Eh
 * total energy  :  -169.6073555 Eh     change       -0.1460970E-05 Eh
 * total energy  :  -169.6073567 Eh     change       -0.1189401E-05 Eh
 * total energy  :  -169.6073577 Eh     change       -0.9947244E-06 Eh
 * total energy  :  -169.6073578 Eh     change       -0.9580145E-07 Eh
   *** GEOMETRY OPTIMIZATION CONVERGED AFTER 122 ITERATIONS ***

 final structure:
================
112
 xtb: 6.7.1 (edcfbbe)
C          -12.06437223432613        2.58433870611408        3.17710597985007
C          -10.80827384144124        2.05706856239166        3.42917868577067
C          -10.22056016445206        1.18857249228312        2.53046553832759
C          -10.88475762070573        0.83944340448644        1.35455650996003
N          -10.29361917667810       -0.03820563415044        0.43879523401978
C          -11.08440839234223       -0.97230613737661       -0.24037715643971
C          -10.82127519298755       -1.28514454645670       -1.57409448666067
C          -11.60049485567671       -2.21244972209490       -2.23758197686029
C          -12.65503740257754       -2.83515820689059       -1.58984523155700
C          -12.92412482636347       -2.52371608709334       -0.26695319586980
C          -12.14615656401914       -1.60335915564004        0.40775454580048
C           -8.91917510013187        0.01345561997211        0.20530353995848
C           -8.19652748717440       -1.15401351734708       -0.05477683601636
C           -6.84401231623091       -1.09892730830640       -0.30162223869503
C           -6.14924968119574        0.11596054123281       -0.27545004588335
C           -4.71401415176781        0.16205991415860       -0.53090391744563
C           -4.19302104448693       -0.39409347657880       -1.73666512287049
C           -5.03349802370655       -0.90401067335803       -2.73571324046408
C           -4.52294819836655       -1.52279299206447       -3.86579250058699
C           -3.15511499622989       -1.65968066965848       -4.01634501584789
C           -2.29912339837431       -1.11238713254483       -3.07212580458110
C           -2.78533294005584       -0.41742757333207       -1.95860490484523
C           -1.90198498849153        0.20399612869947       -1.01929660528459
C           -0.48194032755464        0.25023776199372       -1.29635770235688
C           -0.04511598346199        0.80445252136488       -2.51110817971784
C            1.28549956252518        0.96911414860214       -2.79096146423260
C            2.27363680532397        0.54694735668846       -1.88362873622396
C            3.65316347125321        0.68963787203568       -2.15438231674566
C            4.59676502073831        0.26857650781504       -1.26820184298916
C            4.23388185040871       -0.33659150616590       -0.03620383141901
C            5.19257657495414       -0.78879483361534        0.89758775135256
C            6.62744390170836       -0.53961586379360        0.72397366674047
C            7.54413425989104       -1.58364531981382        0.84708790830481
C            8.89715037967130       -1.36446585809060        0.70352771618483
C            9.38246002321460       -0.08021261995038        0.45298398947305
N           10.75398639984367        0.14745881587533        0.30956829425969
C           11.21358687545181        1.09236394620736       -0.61411043807615
C           10.56725358642847        1.25670497435970       -1.83934898251162
C           11.02149085135873        2.19455300953556       -2.74568973324588
C           12.12754021194999        2.97567771599591       -2.45315028754174
C           12.77620112797048        2.81314633037768       -1.23989176513288
C           12.32459382553667        1.88405402131166       -0.32316161110263
C           11.66690897439731       -0.57385141627764        1.08702002006715
C           12.88245593281972       -0.99231532009774        0.54584096406797
C           13.78006514353990       -1.70288150733631        1.31850911284671
C           13.48106652459978       -2.01462348267127        2.63479398803611
C           12.27384196327271       -1.60401533932260        3.17625079676342
C           11.37299640129612       -0.88604215824653        2.41440902097761
C            8.47220365222619        0.97321880556918        0.35284113211592
C            7.11929812057828        0.74345738419059        0.48051277161400
C            4.77087155014504       -1.48307081298612        2.03056373108327
C            3.43680049151449       -1.70103825278392        2.28637735108743
C            2.45421414001474       -1.22601366267542        1.40713312398814
C            1.07229818265044       -1.43589281994666        1.63919534711182
C            0.13140704233786       -0.95938087863353        0.78140809474919
C            0.49310938199755       -0.23143851437647       -0.38017126307122
C            1.87090130264523       -0.07075741646238       -0.67338182671614
C            2.85458098279290       -0.54010218684404        0.23422407796073
C           -2.43788990593253        0.82929979468763        0.15368193439942
C           -1.62972319011318        1.56803110686153        1.02509544588488
C           -2.13578826759695        2.12145233521383        2.19027251816062
C           -3.46849904843071        1.94045032597806        2.51542214359902
C           -4.30668168741672        1.27200753758777        1.63851118034879
C           -3.83595673925322        0.76039207211529        0.42099102841834
C           -6.87898590360717        1.27799882996431       -0.00069711709912
C           -8.23638145571586        1.23241064547059        0.22353542537487
C          -12.14792587330398        1.37553459677447        1.10394594493189
C          -12.73000375764360        2.23747019808508        2.01257871296860
H          -12.52153691581089        3.26050174925492        3.88331728971141
H          -10.28501511096967        2.31700779006734        4.33754133865031
H           -9.24666651512589        0.76843875217789        2.73482215100881
H          -10.00707272809851       -0.79173966404511       -2.08437025965078
H          -11.38766383453808       -2.44429634928622       -3.27075531320470
H          -13.26304925925552       -3.55780917610717       -2.11237751712440
H          -13.74122395803158       -3.00794660016460        0.24720272628615
H          -12.35083397423256       -1.36997440886176        1.44241625535821
H           -8.70753472726396       -2.10581967407133       -0.04978221082201
H           -6.29646147753706       -2.01330050022413       -0.47801305427239
H           -6.10301841742508       -0.80882605586055       -2.62593812986607
H           -5.19720089553039       -1.91021867653985       -4.61540759043081
H           -2.74781376592452       -2.18054722238530       -4.87017365992998
H           -1.23385993114077       -1.23019031207583       -3.19931945174029
H           -0.78880407001973        1.17068672432685       -3.20496628527712
H            1.59166730530969        1.44548379251070       -3.71158252556138
H            3.94805903002574        1.13514521912204       -3.09436360274370
H            5.64437102185042        0.36695322954228       -1.50977113756368
H            7.18302006439090       -2.58617327492310        1.02518454954437
H            9.59099055658381       -2.18918342580644        0.77732366420901
H            9.71183446062235        0.64064999486643       -2.07508612249756
H           10.51288329602479        2.30983341606262       -3.69160551193999
H           12.48149251740162        3.70540286043072       -3.16540220831359
H           13.63635922598410        3.42117859820746       -1.00087019272449
H           12.82593899814200        1.76701208438366        0.62651171889718
H           13.11352041367123       -0.75978832260268       -0.48346920251057
H           14.71662995714897       -2.02336385240402        0.88625466150879
H           14.18368420588599       -2.57333805996876        3.23418784129195
H           12.03462452619005       -1.83723952785567        4.20343899381267
H           10.43683707134720       -0.55780323517526        2.84189996052648
H            8.83764200066297        1.97544092741400        0.18206974439370
H            6.43051807567765        1.57405815437045        0.42661745424304
H            5.51550903046238       -1.83067211125238        2.73303088504912
H            3.13250860706761       -2.23340937832278        3.17614456334494
H            0.77839887759658       -1.99267907016238        2.51775751866130
H           -0.91587075073302       -1.13980911675717        0.97306563732867
H           -0.58530540823931        1.70452178642565        0.79029978253639
H           -1.48258522320256        2.67701735425433        2.84650540082252
H           -3.86256340775551        2.32862520031290        3.44313735361719
H           -5.34510399508469        1.13897600718356        1.90097766296401
H           -6.37242449794328        2.23207551866708       -0.01123300052807
H           -8.78625635621000        2.14506355198860        0.40210168408124
H          -12.66406796748914        1.11427389387644        0.19167853534600
H          -13.70728872612602        2.64797136557129        1.80546840266360

 projected vibrational frequencies (cm⁻¹)
eigval :       -0.00    -0.00    -0.00     0.00     0.00     0.00
eigval :        4.39     5.88     9.04    14.65    16.11    18.59
eigval :       27.89    31.25    36.79    41.21    48.15    50.92
eigval :       52.68    60.15    60.79    68.36    72.35    74.00
eigval :       75.12    81.05    92.21   104.48   110.11   115.80
eigval :      119.83   145.37   150.59   163.73   169.77   181.54
eigval :      182.69   191.56   194.25   208.54   225.26   230.12
eigval :      233.81   234.75   240.08   252.30   275.91   291.95
eigval :      306.29   307.08   318.17   319.56   338.77   346.44
eigval :      351.09   361.22   371.25   375.56   377.94   378.16
eigval :      381.08   383.48   386.91   389.38   390.89   397.00
eigval :      400.39   407.43   409.13   415.67   420.97   432.62
eigval :      449.41   466.09   469.80   471.23   482.64   485.50
eigval :      488.37   491.41   495.20   502.20   509.29   517.88
eigval :      525.78   549.01   563.13   571.08   575.78   578.59
eigval :      583.50   585.72   587.11   588.54   592.69   594.95
eigval :      600.64   603.45   610.01   620.06   634.63   640.57
eigval :      643.60   649.97   656.11   659.79   659.93   665.32
eigval :      670.05   676.64   679.01   685.67   688.73   692.69
eigval :      698.31   719.27   723.08   735.83   742.90   752.85
eigval :      754.51   756.70   756.86   760.52   760.93   764.46
eigval :      800.02   804.40   809.92   818.48   821.28   839.01
eigval :      841.87   843.81   853.51   856.69   871.81   872.83
eigval :      873.84   874.05   875.63   876.38   890.13   891.85
eigval :      892.77   892.93   894.76   895.89   897.16   897.83
eigval :      907.96   908.69   909.01   910.16   910.92   912.38
eigval :      914.91   919.02   923.36   926.30   927.27   927.71
eigval :      928.43   928.48   928.83   929.20   929.36   929.48
eigval :      929.81   936.76   938.72   941.62   947.05   962.17
eigval :      986.32   988.17   998.45  1004.91  1005.06  1020.64
eigval :     1024.42  1080.54  1083.24  1083.74  1084.05  1084.52
eigval :     1103.20  1107.24  1118.48  1121.86  1122.04  1122.88
eigval :     1124.08  1124.33  1132.14  1141.59  1141.64  1146.47
eigval :     1151.67  1171.29  1180.17  1180.21  1180.28  1180.51
eigval :     1182.78  1183.77  1185.12  1186.50  1188.12  1191.00
eigval :     1194.41  1195.07  1195.70  1198.26  1201.53  1210.06
eigval :     1216.56  1218.76  1224.50  1236.96  1239.50  1256.18
eigval :     1266.55  1269.80  1270.57  1277.52  1278.19  1280.74
eigval :     1281.34  1292.12  1296.31  1307.13  1309.10  1310.78
eigval :     1314.42  1318.04  1320.00  1320.30  1322.29  1324.38
eigval :     1325.00  1327.12  1327.41  1330.45  1333.97  1345.36
eigval :     1348.21  1369.55  1378.76  1387.94  1389.31  1397.75
eigval :     1407.68  1411.96  1414.75  1416.73  1419.67  1435.61
eigval :     1435.81  1442.41  1442.81  1452.35  1457.66  1464.34
eigval :     1469.09  1470.83  1472.85  1474.92  1476.40  1483.76
eigval :     1491.77  1502.30  1512.72  1525.54  1525.97  1533.27
eigval :     1536.15  1539.98  1551.15  1552.02  1569.28  1575.38
eigval :     1576.36  1578.84  1579.06  1580.53  1580.73  1592.05
eigval :     1593.03  1593.94  1597.34  1599.86  3064.94  3066.61
eigval :     3068.55  3070.38  3073.94  3074.51  3075.84  3076.16
eigval :     3076.32  3076.46  3077.24  3077.32  3077.37  3077.46
eigval :     3078.05  3078.28  3078.49  3078.98  3079.52  3080.48
eigval :     3083.07  3084.21  3086.11  3086.91  3087.08  3087.93
eigval :     3088.02  3088.53  3089.04  3089.50  3089.61  3089.96
eigval :     3090.32  3090.41  3091.12  3091.44  3093.60  3094.57
eigval :     3096.76  3097.49  3097.97  3098.66  3098.87  3099.59

   temp. (K)  partition function   enthalpy   heat capacity  entropy
                                   cal/mol     cal/K/mol   cal/K/mol   J/K/mol
 298.15  VIB  0.141E+27            31873.283    202.339    200.584
         ROT  0.322E+09              888.752      2.981     41.911
         INT  0.454E+35            32762.035    205.320    242.495
         TR   0.246E+29             1481.254      4.968     46.129
         TOT                       34243.2889   210.2885   288.6235  1207.6007

       T/K    H(0)-H(T)+PV         H(T)/Eh          T*S/Eh         G(T)/Eh
   ------------------------------------------------------------------------
    298.15    0.545702E-01    0.921611E+00    0.137134E+00    0.784476E+00
   ------------------------------------------------------------------------

         :::::::::::::::::::::::::::::::::::::::::::::::::::::
         ::                  THERMODYNAMIC                  ::
         :::::::::::::::::::::::::::::::::::::::::::::::::::::
         :: total free energy        -168.822881536155 Eh   ::
         ::.................................................::
         :: total energy             -169.607357790664 Eh   ::
         :: zero point energy           0.867040432418 Eh   ::
         :: G(RRHO) w/o ZPVE           -0.082564177910 Eh   ::
         :: G(RRHO) contrib.            0.784476254509 Eh   ::
         :::::::::::::::::::::::::::::::::::::::::::::::::::::

           -------------------------------------------------
          | TOTAL ENERGY             -169.607357790664 Eh   |
          | TOTAL ENTHALPY           -168.685747203878 Eh   |
          | TOTAL FREE ENERGY        -168.822881536155 Eh   |
          | GRADIENT NORM               0.000073631597 Eh/α |
           -------------------------------------------------

 * finished run on 2025/09/03 at 20:38:31.386
