   * xtb version 6.7.1 (edcfbbe) compiled by 'albert@albert-system' on 2024-07-22

   ID    Z sym.   atoms
    1    6 C      1-4, 6-35, 37-68
    2    7 N      5, 36
    3    1 H      69-112

          program call               : xtb data2507/gas/p-TPA-AP-TPA/p-TPA-AP-TPA_gas_S0_crest.xyz --gfn 2 --ohess vtight --parallel 40 --molden --ceasefiles --namespace data2507/gas/p-TPA-AP-TPA/p-TPA-AP-TPA_gas_S0_finalOpt
          :  Hamiltonian                  GFN2-xTB          :
 * total energy  :  -169.6677126 Eh     change       -0.3439879E-09 Eh
 * total energy  :  -169.6677135 Eh     change       -0.9463990E-06 Eh
 * total energy  :  -169.6677146 Eh     change       -0.1089422E-05 Eh
 * total energy  :  -169.6677169 Eh     change       -0.2251405E-05 Eh
 * total energy  :  -169.6677175 Eh     change       -0.5819479E-06 Eh
 * total energy  :  -169.6677183 Eh     change       -0.8088052E-06 Eh
 * total energy  :  -169.6677195 Eh     change       -0.1189196E-05 Eh
 * total energy  :  -169.6677204 Eh     change       -0.9909724E-06 Eh
 * total energy  :  -169.6677214 Eh     change       -0.9314190E-06 Eh
 * total energy  :  -169.6677228 Eh     change       -0.1469173E-05 Eh
 * total energy  :  -169.6677541 Eh     change       -0.3850750E-06 Eh
 * total energy  :  -169.6677544 Eh     change       -0.3192965E-06 Eh
 * total energy  :  -169.6677547 Eh     change       -0.2596166E-06 Eh
 * total energy  :  -169.6677549 Eh     change       -0.2687993E-06 Eh
 * total energy  :  -169.6677552 Eh     change       -0.2805598E-06 Eh
 * total energy  :  -169.6677555 Eh     change       -0.2906322E-06 Eh
 * total energy  :  -169.6677558 Eh     change       -0.2889649E-06 Eh
 * total energy  :  -169.6677561 Eh     change       -0.2901700E-06 Eh
 * total energy  :  -169.6677561 Eh     change       -0.5533281E-08 Eh
   *** GEOMETRY OPTIMIZATION CONVERGED AFTER 44 ITERATIONS ***

 final structure:
================
112
 xtb: 6.7.1 (edcfbbe)
C          -12.38526888139119        3.14711348097751        1.95051355406939
C          -11.10199020471948        2.86725600226198        2.39067776806904
C          -10.40853896545326        1.78555394169451        1.88425590271790
C          -10.99100425626634        0.96741368820179        0.91629463453541
N          -10.28974507542022       -0.12639982802044        0.39675075780411
C          -10.96533448111863       -1.31346129610391        0.09375153380769
C          -10.60025460036072       -2.07102064148965       -1.01909429885097
C          -11.26720895749454       -3.24444727217851       -1.31184526179198
C          -12.31052543389522       -3.67796619713588       -0.51034131157224
C          -12.67996578386043       -2.92735004344186        0.59380443278231
C          -12.01344122654304       -1.75709452463193        0.90003056320924
C           -8.91122525718260       -0.03156168813202        0.18092551478956
C           -8.07786595306817       -1.12483758849196        0.41828648239496
C           -6.71920079677621       -1.02784049762279        0.19947372272923
C           -6.15020898328466        0.16210350543669       -0.24653437869690
C           -4.69494492874046        0.26856026351159       -0.47058911580708
C           -4.09036463409721       -0.46231922974672       -1.50403235515233
C           -4.84149623847140       -1.29613927877235       -2.37363197111223
C           -4.23846577595585       -2.01116903204499       -3.36202725612256
C           -2.84288532142622       -1.93850066061362       -3.54498279334216
C           -2.08902135384722       -1.13235421406155       -2.74973538710351
C           -2.68102520625290       -0.35723165161332       -1.71816267596861
C           -1.91472738607753        0.49355990657159       -0.91173312183047
C           -0.46441094557995        0.63994804325024       -1.16782561652942
C           -0.04081953181843        1.44853147394265       -2.21618187897269
C            1.30159896630794        1.62709547687679       -2.48145149070811
C            2.27205038508036        1.00038136539447       -1.69821920318376
C            3.66521626731993        1.14998305272056       -1.95148940873222
C            4.59208014972921        0.54596671720971       -1.17248865134185
C            4.21566198817348       -0.26484606491383       -0.06050565775779
C            5.16104088383736       -0.89265842135218        0.77101095130132
C            6.60482948365849       -0.65789044664297        0.62343619021147
C            7.48718007611934       -1.72989727871033        0.50872119919559
C            8.84505058209442       -1.52312734650011        0.38621896532061
C            9.36642881816214       -0.22901109900469        0.39725604689944
N           10.74190347062171       -0.01299479114965        0.27524514198724
C           11.21494804649089        1.09159745056620       -0.44223209452976
C           10.55996695528113        1.51845397342635       -1.59733937036972
C           11.02842155313956        2.61151655578974       -2.29969572497752
C           12.15730506357064        3.29036957895109       -1.87114164775118
C           12.81423737268895        2.86798154485462       -0.72700068065040
C           12.34851568306158        1.78141236085769       -0.01277007635429
C           11.64667247922037       -0.90110078454949        0.86784098961653
C           12.84287465041405       -1.22405509208157        0.22742990742353
C           13.73539375396055       -2.09658547101971        0.81876689825114
C           13.44978644650442       -2.66709153326560        2.04840051274665
C           12.26101022212772       -2.35330808257888        2.68660141219654
C           11.36583979377935       -1.47522689897615        2.10754666975869
C            8.48870632869012        0.84706187145292        0.53539419645476
C            7.13078882961550        0.63317676781140        0.64027672285034
C            4.72516885226307       -1.75065918763298        1.77750153608884
C            3.38366327893075       -1.96620040485020        2.00877154494888
C            2.41576222038270       -1.32574977576134        1.23327178220487
C            1.02178871029516       -1.50725374813521        1.46228952075836
C            0.09562360654410       -0.88056921082354        0.70136563308516
C            0.48206408999486       -0.01790445220432       -0.36640660991756
C            1.86264880039975        0.16916575668057       -0.62698939929553
C            2.83355426138708       -0.47377276238507        0.18145281421651
C           -2.51778460716168        1.22764927631302        0.11819422606952
C           -1.76458850681360        2.10040452012379        0.94665010516526
C           -2.35320141914921        2.79040060036651        1.96060770794524
C           -3.73196720001300        2.64341823690548        2.21238537081951
C           -4.49096533032310        1.82679657237446        1.43204253788071
C           -3.92269441541250        1.10470484986996        0.34982744571500
C           -6.98410781534747        1.25334641333504       -0.47650664851821
C           -8.34532398458631        1.15952517193786       -0.27447916830324
C          -12.28158396917976        1.25638603077363        0.47344242160846
C          -12.97017424715558        2.33534377860341        0.99241329053323
H          -12.92547498747318        3.99139137844894        2.35111970553440
H          -10.63964808993523        3.49120834317574        3.14151632994692
H           -9.41211211015191        1.56334665457922        2.23743448207317
H           -9.79451254960018       -1.72970384517156       -1.65254835878277
H          -10.97553703803317       -3.82007588668477       -2.17811500113916
H          -12.83179201711390       -4.59372575093805       -0.74438366644910
H          -13.48865286269411       -3.26009919311666        1.22789673155259
H          -12.29712446348950       -1.17921058974910        1.76751143479580
H           -8.50421859451468       -2.04935336364384        0.77935155334691
H           -6.08238734338903       -1.87887837269141        0.39395510360175
H           -5.91144749797661       -1.35071643078640       -2.23831198970342
H           -4.82490008082622       -2.64108099476927       -4.01501388586310
H           -2.38000808258785       -2.52400945868515       -4.32585607914903
H           -1.01979512050732       -1.06899382100827       -2.89004523120027
H           -0.78378824653747        1.94355168284171       -2.82570821995295
H            1.61189164040967        2.25907990441495       -3.30135122745046
H            3.96638269575740        1.75749669951048       -2.79350586244613
H            5.64285964585899        0.65588711908987       -1.39537290908598
H            7.09654952446585       -2.73702749988770        0.48593913222323
H            9.51381606515177       -2.36422241882002        0.27578378584489
H            9.68604012451385        0.98403502031943       -1.94028458937893
H           10.51277304234866        2.92993968798081       -3.19386540535333
H           12.52251969262614        4.14201595708211       -2.42471041658030
H           13.69226617305276        3.39416586938071       -0.38212712771396
H           12.85702256196316        1.46032544785299        0.88459590501848
H           13.06368764790597       -0.78821966254963       -0.73603172038185
H           14.65729179273644       -2.33938527506656        0.31091396970840
H           14.14849660355184       -3.35092435995999        2.50590244047614
H           12.03227363110063       -2.78884538468716        3.64827633892326
H           10.44452341237930       -1.22380389781227        2.61245602893858
H            8.88249055935798        1.85255975061241        0.56562718326186
H            6.46618463971719        1.47545028238245        0.76831861345108
H            5.46223597858247       -2.23404816568971        2.40326473751114
H            3.06994921986307       -2.62701064829238        2.80436048347099
H            0.72067852536251       -2.16381530388771        2.26652851929252
H           -0.95919845210260       -1.02537887972058        0.88441569822237
H           -0.70633934764345        2.20400314959962        0.75690522218530
H           -1.76823200471739        3.45020506843840        2.58450077321332
H           -4.18025240806533        3.18507853023577        3.03258567239174
H           -5.54600358189958        1.71108323716562        1.63107618272878
H           -6.55715901871348        2.17895986260911       -0.83499567365706
H           -8.98249967566243        2.00940958054794       -0.47078903578840
H          -12.73634261517318        0.63114010125548       -0.28101975721556
H          -13.96828797077082        2.54891577712855        0.63897951934745

          :  Hamiltonian                  GFN2-xTB          :
         :: gradient norm              0.000047580135 Eh/a0 ::
         :: HOMO-LUMO gap              1.871249267808 eV    ::
         :: SCC energy              -172.955702845489 Eh    ::
         :: -> dispersion             -0.166302575973 Eh    ::
         :: repulsion energy           3.287946763294 Eh    ::

    * Orbital Energies and Occupations

         #    Occupation            Energy/Eh            Energy/eV
      -------------------------------------------------------------
         1        2.0000           -0.6641096             -18.0713
       ...           ...                  ...                  ...
       147        2.0000           -0.4038464             -10.9892
       148        2.0000           -0.4035617             -10.9815
       149        2.0000           -0.4032909             -10.9741
       150        2.0000           -0.4016615             -10.9298
       151        2.0000           -0.3997784             -10.8785
       152        2.0000           -0.3982284             -10.8363
       153        2.0000           -0.3962638             -10.7829
       154        2.0000           -0.3953261             -10.7574
       155        2.0000           -0.3879882             -10.5577
       156        2.0000           -0.3616738              -9.8416
       157        2.0000           -0.3565080              -9.7011
       158        2.0000           -0.3469684              -9.4415
       159        2.0000           -0.3465549              -9.4302 (HOMO)
       160                         -0.2777877              -7.5590 (LUMO)
       161                         -0.2733177              -7.4374
       162                         -0.2405252              -6.5450
       163                         -0.2297786              -6.2526
       164                         -0.2297737              -6.2525
       165                         -0.2294298              -6.2431
       166                         -0.2293639              -6.2413
       167                         -0.2281207              -6.2075
       168                         -0.2267053              -6.1690
       169                         -0.2264153              -6.1611
       170                         -0.2211580              -6.0180
       ...                                ...                  ...
       316                          0.7338997              19.9704
      -------------------------------------------------------------
                  HL-Gap            0.0687671 Eh            1.8712 eV

     #   Z          covCN         q      C6AA      α(0)
     1   6 C        2.919    -0.039    28.959     8.825
     2   6 C        2.919    -0.029    28.732     8.790
     3   6 C        2.922    -0.047    29.179     8.858
     4   6 C        2.924     0.065    26.538     8.448
     5   7 N        2.752    -0.076    22.722     7.080
     6   6 C        2.924     0.065    26.539     8.448
     7   6 C        2.922    -0.048    29.182     8.859
     8   6 C        2.920    -0.029    28.733     8.790
     9   6 C        2.919    -0.039    28.961     8.825
    10   6 C        2.920    -0.029    28.731     8.790
    11   6 C        2.922    -0.048    29.187     8.860
    12   6 C        2.924     0.063    26.588     8.456
    13   6 C        2.921    -0.049    29.216     8.864
    14   6 C        2.923    -0.033    28.814     8.803
    15   6 C        2.976     0.007    27.861     8.658
    16   6 C        2.976    -0.006    28.174     8.707
    17   6 C        2.983     0.005    27.893     8.663
    18   6 C        2.917    -0.035    28.863     8.810
    19   6 C        2.915    -0.030    28.760     8.794
    20   6 C        2.914    -0.030    28.756     8.793
    21   6 C        2.918    -0.034    28.836     8.806
    22   6 C        2.985     0.006    27.880     8.661
    23   6 C        2.979    -0.004    28.123     8.699
    24   6 C        2.978     0.007    27.849     8.656
    25   6 C        2.919    -0.034    28.845     8.807
    26   6 C        2.918    -0.039    28.965     8.825
    27   6 C        2.982     0.008    27.823     8.652
    28   6 C        2.913    -0.038    28.936     8.821
    29   6 C        2.913    -0.036    28.903     8.816
    30   6 C        2.982     0.006    27.878     8.661
    31   6 C        2.976     0.003    27.964     8.674
    32   6 C        2.977     0.004    27.935     8.670
    33   6 C        2.924    -0.034    28.851     8.809
    34   6 C        2.920    -0.049    29.210     8.863
    35   6 C        2.924     0.063    26.583     8.455
    36   7 N        2.752    -0.076    22.706     7.077
    37   6 C        2.924     0.065    26.539     8.448
    38   6 C        2.922    -0.047    29.178     8.858
    39   6 C        2.920    -0.029    28.732     8.790
    40   6 C        2.919    -0.038    28.956     8.824
    41   6 C        2.920    -0.029    28.730     8.790
    42   6 C        2.922    -0.048    29.182     8.859
    43   6 C        2.924     0.065    26.540     8.448
    44   6 C        2.922    -0.048    29.182     8.859
    45   6 C        2.920    -0.029    28.731     8.790
    46   6 C        2.919    -0.038    28.956     8.824
    47   6 C        2.920    -0.029    28.732     8.790
    48   6 C        2.922    -0.048    29.181     8.859
    49   6 C        2.921    -0.049    29.220     8.864
    50   6 C        2.923    -0.033    28.820     8.804
    51   6 C        2.921    -0.036    28.894     8.815
    52   6 C        2.918    -0.038    28.946     8.823
    53   6 C        2.983     0.009    27.807     8.650
    54   6 C        2.914    -0.036    28.904     8.816
    55   6 C        2.913    -0.034    28.845     8.807
    56   6 C        2.985     0.007    27.861     8.658
    57   6 C        2.996     0.002    27.973     8.676
    58   6 C        2.995     0.002    27.962     8.674
    59   6 C        2.985     0.006    27.870     8.660
    60   6 C        2.918    -0.033    28.826     8.804
    61   6 C        2.914    -0.030    28.754     8.793
    62   6 C        2.915    -0.030    28.759     8.794
    63   6 C        2.917    -0.035    28.863     8.810
    64   6 C        2.984     0.005    27.897     8.664
    65   6 C        2.924    -0.033    28.812     8.802
    66   6 C        2.921    -0.049    29.214     8.864
    67   6 C        2.922    -0.048    29.184     8.859
    68   6 C        2.920    -0.029    28.731     8.790
    69   1 H        0.926     0.030     2.590     2.517
    70   1 H        0.926     0.031     2.571     2.508
    71   1 H        0.926     0.030     2.580     2.512
    72   1 H        0.926     0.030     2.580     2.512
    73   1 H        0.926     0.031     2.572     2.508
    74   1 H        0.926     0.030     2.591     2.517
    75   1 H        0.926     0.031     2.572     2.508
    76   1 H        0.926     0.031     2.568     2.506
    77   1 H        0.926     0.032     2.558     2.501
    78   1 H        0.926     0.032     2.556     2.500
    79   1 H        0.926     0.030     2.579     2.512
    80   1 H        0.926     0.027     2.623     2.533
    81   1 H        0.926     0.028     2.619     2.531
    82   1 H        0.926     0.030     2.587     2.515
    83   1 H        0.926     0.028     2.614     2.528
    84   1 H        0.926     0.030     2.588     2.516
    85   1 H        0.926     0.028     2.608     2.526
    86   1 H        0.926     0.032     2.552     2.498
    87   1 H        0.926     0.033     2.551     2.498
    88   1 H        0.926     0.032     2.560     2.502
    89   1 H        0.926     0.031     2.574     2.509
    90   1 H        0.926     0.031     2.569     2.507
    91   1 H        0.926     0.030     2.587     2.515
    92   1 H        0.926     0.031     2.569     2.507
    93   1 H        0.926     0.031     2.566     2.505
    94   1 H        0.926     0.031     2.566     2.505
    95   1 H        0.926     0.031     2.569     2.507
    96   1 H        0.926     0.030     2.588     2.516
    97   1 H        0.926     0.031     2.570     2.507
    98   1 H        0.926     0.031     2.567     2.505
    99   1 H        0.926     0.032     2.562     2.503
   100   1 H        0.926     0.034     2.532     2.488
   101   1 H        0.926     0.029     2.595     2.519
   102   1 H        0.926     0.030     2.589     2.516
   103   1 H        0.926     0.029     2.601     2.522
   104   1 H        0.926     0.030     2.592     2.518
   105   1 H        0.926     0.030     2.591     2.517
   106   1 H        0.926     0.028     2.620     2.531
   107   1 H        0.926     0.027     2.623     2.533
   108   1 H        0.926     0.030     2.581     2.512
   109   1 H        0.926     0.032     2.555     2.500
   110   1 H        0.926     0.032     2.559     2.501
   111   1 H        0.926     0.031     2.567     2.505
   112   1 H        0.926     0.031     2.571     2.508

molecular dipole:
                 x           y           z       tot (Debye)
 q only:        0.088      -0.001       0.032
   full:        0.088      -0.003       0.041       0.246

 projected vibrational frequencies (cm⁻¹)
eigval :       -0.00    -0.00    -0.00    -0.00     0.00     0.00
eigval :        4.46     6.38     6.81    13.39    14.76    16.40
eigval :       19.28    32.39    34.32    42.49    44.65    49.41
eigval :       50.64    57.39    60.56    65.33    69.90    72.83
eigval :       76.20    78.54    88.40    97.80   106.94   112.25
eigval :      115.51   119.59   149.23   160.53   163.92   181.25
eigval :      184.01   185.56   196.34   206.01   212.97   226.95
eigval :      232.91   234.42   237.18   241.29   274.36   289.77
eigval :      307.49   309.92   318.37   320.06   339.24   348.85
eigval :      354.25   363.17   377.70   378.05   378.20   379.28
eigval :      381.51   387.10   388.62   389.87   392.16   397.79
eigval :      405.26   411.70   413.38   417.10   423.08   446.16
eigval :      458.00   458.83   470.48   476.82   483.99   485.15
eigval :      487.88   491.16   497.55   498.53   510.23   515.92
eigval :      527.43   550.65   565.95   575.65   581.13   583.44
eigval :      584.96   586.06   587.86   589.36   593.89   596.67
eigval :      603.14   607.62   611.71   627.26   644.56   646.78
eigval :      652.28   653.29   655.68   659.72   659.97   665.75
eigval :      670.11   679.92   686.60   689.87   692.62   692.92
eigval :      700.93   722.06   736.45   740.41   744.29   756.67
eigval :      756.89   758.17   760.68   761.25   774.17   775.33
eigval :      801.10   806.30   815.32   816.22   825.74   843.87
eigval :      845.68   852.01   871.95   873.16   873.85   874.32
eigval :      874.51   875.35   876.83   877.78   890.60   891.32
eigval :      891.73   892.68   897.59   897.73   910.12   910.25
eigval :      913.35   913.49   915.44   915.60   917.37   918.49
eigval :      920.26   922.53   924.74   926.49   927.32   927.48
eigval :      927.89   928.28   928.58   928.60   929.07   929.76
eigval :      929.83   931.64   932.80   939.55   943.04   963.07
eigval :      986.93   988.74   996.98  1005.05  1005.06  1021.40
eigval :     1027.77  1078.85  1080.66  1082.16  1083.25  1083.36
eigval :     1084.28  1084.33  1111.28  1121.94  1121.96  1124.23
eigval :     1124.30  1135.32  1139.10  1139.56  1144.27  1156.53
eigval :     1166.46  1180.66  1180.78  1180.78  1180.88  1181.13
eigval :     1182.96  1185.51  1187.31  1187.51  1194.09  1195.71
eigval :     1195.81  1195.87  1198.11  1207.88  1208.56  1216.84
eigval :     1223.19  1227.90  1228.38  1239.60  1255.47  1262.42
eigval :     1264.33  1270.47  1270.94  1278.63  1278.70  1280.57
eigval :     1282.04  1289.47  1306.56  1310.81  1312.08  1314.84
eigval :     1319.56  1321.15  1321.81  1324.01  1325.25  1327.36
eigval :     1327.68  1333.34  1333.98  1350.37  1361.34  1377.16
eigval :     1382.73  1385.17  1386.40  1406.08  1408.06  1411.69
eigval :     1417.61  1422.85  1429.65  1436.53  1436.53  1443.31
eigval :     1443.63  1446.95  1452.22  1472.30  1472.55  1477.01
eigval :     1477.15  1477.32  1483.26  1496.30  1500.46  1506.07
eigval :     1526.63  1529.44  1532.59  1542.91  1554.90  1555.83
eigval :     1562.99  1565.45  1577.24  1577.24  1581.24  1581.27
eigval :     1593.90  1595.27  1595.47  1595.59  1600.72  1601.93
eigval :     1604.76  1607.52  1608.82  1623.01  3066.90  3067.05
eigval :     3069.84  3070.36  3072.47  3072.72  3075.19  3075.19
eigval :     3075.48  3075.56  3075.66  3075.78  3076.42  3076.50
eigval :     3076.78  3076.87  3077.47  3077.62  3078.73  3079.41
eigval :     3080.67  3081.63  3085.56  3085.64  3085.80  3086.29
eigval :     3086.42  3087.83  3087.99  3088.27  3088.99  3089.12
eigval :     3089.30  3089.36  3089.41  3089.78  3090.09  3090.85
eigval :     3093.08  3094.16  3097.10  3097.10  3097.68  3097.70

   temp. (K)  partition function   enthalpy   heat capacity  entropy
                                   cal/mol     cal/K/mol   cal/K/mol   J/K/mol
 298.15  VIB  0.585E+27            31901.836    201.132    202.042
         ROT  0.320E+09              888.752      2.981     41.899
         INT  0.187E+36            32790.589    204.113    243.941
         TR   0.246E+29             1481.254      4.968     46.129
         TOT                       34271.8425   209.0815   290.0695  1213.6506

       T/K    H(0)-H(T)+PV         H(T)/Eh          T*S/Eh         G(T)/Eh
   ------------------------------------------------------------------------
    298.15    0.546157E-01    0.924304E+00    0.137821E+00    0.786482E+00
   ------------------------------------------------------------------------

         :::::::::::::::::::::::::::::::::::::::::::::::::::::
         ::                  THERMODYNAMIC                  ::
         :::::::::::::::::::::::::::::::::::::::::::::::::::::
         :: total free energy        -168.881273835802 Eh   ::
         ::.................................................::
         :: total energy             -169.667756082193 Eh   ::
         :: zero point energy           0.869687946871 Eh   ::
         :: G(RRHO) w/o ZPVE           -0.083205700480 Eh   ::
         :: G(RRHO) contrib.            0.786482246392 Eh   ::
         :::::::::::::::::::::::::::::::::::::::::::::::::::::

           -------------------------------------------------
          | TOTAL ENERGY             -169.667756082193 Eh   |
          | TOTAL ENTHALPY           -168.743452477914 Eh   |
          | TOTAL FREE ENERGY        -168.881273835802 Eh   |
          | GRADIENT NORM               0.000047579840 Eh/α |
          | HOMO-LUMO GAP               1.871248535134 eV   |
           -------------------------------------------------

 * finished run on 2025/09/03 at 20:37:57.086
