   * xtb version 6.7.1 (edcfbbe) compiled by 'albert@albert-system' on 2024-07-22

   ID    Z sym.   atoms
    1    7 N      1, 21, 28, 36, 56, 73
    2    6 C      2-20, 22-27, 29-35, 37-55, 57-72, 74-76
    3    1 H      77-120

          program call               : xtb data2507/gas/TNPZ/TNPZ_gas_S0_crest.xyz --gfn 2 --ohess vtight --parallel 40 --molden --ceasefiles --namespace data2507/gas/TNPZ/TNPZ_gas_S0_finalOpt
          :  Hamiltonian                  GFN2-xTB          :
 * total energy  :  -189.8500914 Eh     change       -0.5533366E-08 Eh
 * total energy  :  -189.8500931 Eh     change       -0.1693891E-05 Eh
 * total energy  :  -189.8500947 Eh     change       -0.1649591E-05 Eh
 * total energy  :  -189.8500974 Eh     change       -0.2663137E-05 Eh
 * total energy  :  -189.8500997 Eh     change       -0.2365972E-05 Eh
 * total energy  :  -189.8501022 Eh     change       -0.2454455E-05 Eh
 * total energy  :  -189.8501052 Eh     change       -0.3032141E-05 Eh
 * total energy  :  -189.8501096 Eh     change       -0.4341046E-05 Eh
 * total energy  :  -189.8501139 Eh     change       -0.4328440E-05 Eh
 * total energy  :  -189.8501182 Eh     change       -0.4272429E-05 Eh
 * total energy  :  -189.8501874 Eh     change       -0.5718852E-06 Eh
 * total energy  :  -189.8501880 Eh     change       -0.6428465E-06 Eh
 * total energy  :  -189.8501884 Eh     change       -0.4157629E-06 Eh
 * total energy  :  -189.8501887 Eh     change       -0.3214208E-06 Eh
 * total energy  :  -189.8501891 Eh     change       -0.4161031E-06 Eh
 * total energy  :  -189.8501897 Eh     change       -0.5406785E-06 Eh
 * total energy  :  -189.8501902 Eh     change       -0.5344960E-06 Eh
 * total energy  :  -189.8501906 Eh     change       -0.4086998E-06 Eh
 * total energy  :  -189.8501906 Eh     change       -0.5854901E-08 Eh
   *** GEOMETRY OPTIMIZATION CONVERGED AFTER 68 ITERATIONS ***

 final structure:
================
120
 xtb: 6.7.1 (edcfbbe)
N           12.83483268742619       -6.49573433687998        0.04647797161310
C           11.85907177705779       -5.89362522501424        0.03755410994759
C           10.65650013486353       -5.15187100403586        0.02585354230864
C           10.52375407062509       -4.02226358074398        0.83459284929878
C            9.34824256786035       -3.30154750717116        0.81708655347766
C            8.28317357663123       -3.68955819483737        0.00338747209216
C            7.03061036211905       -2.92229416638562       -0.00818693444673
C            5.79632854511314       -3.58066064211529       -0.03032723501156
C            4.63265598144392       -2.85310405921490       -0.03291579999347
C            4.65825928549345       -1.45537965974115       -0.02199314974291
C            5.88952617687716       -0.77074896973847       -0.00694034359900
C            7.05792812817653       -1.53632371882765        0.00328705400098
C            5.90813579856960        0.68643447546570       -0.00206617532559
C            7.09587332568830        1.42173843792200       -0.00814807546103
C            7.10420821433745        2.80793313431497        0.00432770535530
C            8.37604048454676        3.54292521945346       -0.00460018160919
C            8.54670128897603        4.67203223101911        0.79725824070226
C            9.73693673602562        5.36819085788473        0.79369445189706
C           10.78513867184062        4.94564448960762       -0.02527430819543
C           12.00543446707260        5.65790078301098       -0.03689446517844
N           12.99533969793199        6.23642037624368       -0.04651918127396
C           10.62511064259672        3.81930036247275       -0.83363362302500
C            9.43197964077110        3.12811552607333       -0.81698641126603
C            5.88719353950760        3.49774839457616        0.02381348445365
C            4.70517576590013        2.80031362492727        0.02165861818792
C            4.69481769245129        1.40244862301669        0.00904524526101
C            3.43044574432235        0.70254314508222        0.00317465974245
N            2.31072330799900        1.40315938318218        0.01898310458973
C            1.15160811097628        0.73246539167457        0.00368350526609
C           -0.06927633302561        1.43561894390337        0.00572266822271
C           -1.26355291330505        0.76416715676744       -0.02327866835037
C           -2.54077913774705        1.48958797146036       -0.08125424470888
C           -3.49769290725179        1.14580238327244       -1.03607721773797
C           -4.73539138719516        1.74558666786565       -1.03966365637582
C           -5.05991800193658        2.70631922601993       -0.07996327393309
N           -6.35534253229578        3.22590116390350       -0.03610937283552
C           -7.42769828382563        2.34988619040775       -0.25801419838537
C           -7.38265474647271        1.05146135764554        0.24974407297331
C           -8.42730473096786        0.17814255477474        0.02226113370727
C           -9.52981485222828        0.58130654987072       -0.71288641327070
C           -9.58224548767023        1.87176730718992       -1.21370533252885
C           -8.54184055197200        2.75379877474060       -0.99107890430608
C           -6.57996947389332        4.57224223506509        0.25889877898788
C           -7.70756931353176        4.96371550901163        0.98067339050486
C           -7.92441574439576        6.29839376962967        1.26195180737605
C           -7.02253492060447        7.26152619352347        0.84011381838593
C           -5.89864849540958        6.87748444902267        0.12715482332300
C           -5.67706994049692        5.54655861928343       -0.16744958901186
C           -4.08305610971188        3.10222795615595        0.83312018357292
C           -2.83965286279406        2.50313025193358        0.82477672701215
C           -1.28030825024344       -0.66514806459816       -0.02242969962841
C           -2.57505434492567       -1.36762963623327        0.03125824122408
C           -2.94183376664478       -2.26870732605514       -0.96367764021106
C           -4.19293305647065       -2.85033145023856       -0.95917071923081
C           -5.09893399856029       -2.56694609750678        0.06191955237471
N           -6.38317920869459       -3.12651496830715        0.03677740835503
C           -7.09534491010008       -3.11222946403717       -1.16884153812401
C           -7.92069835320452       -4.17745420567598       -1.52568185039656
C           -8.62974143967970       -4.13895710896850       -2.71073121229739
C           -8.52277527971121       -3.04847310091985       -3.55836344833283
C           -7.69436003154495       -1.99317898913482       -3.21326106878495
C           -6.98449560066841       -2.01989005116506       -2.02932399660113
C           -6.94745004076003       -3.63942332388105        1.20601854760056
C           -8.32382219587081       -3.57991604504156        1.42834607708928
C           -8.86541129145894       -4.09150155387218        2.59134827089090
C           -8.05144298879345       -4.66372193584814        3.55478895419896
C           -6.68413657165157       -4.72416727516384        3.34115661272363
C           -6.13348146543044       -4.22217419491148        2.17866398286889
C           -4.71226378758042       -1.71005326993826        1.09179481383767
C           -3.47132119579551       -1.11091158800343        1.06663092766041
C           -0.10521913633092       -1.36718452112393       -0.04497201267351
C            1.13400769008289       -0.69529960478488       -0.03462761977247
N            2.27508010551380       -1.39515005892651       -0.04372526950080
C            3.41247008382498       -0.72327889865818       -0.02231332327096
C            8.42620415901395       -4.82261604113561       -0.79830894207049
C            9.59871045814272       -5.54820910128169       -0.79390577558064
H           11.34329491759017       -3.72262821406436        1.47126582888469
H            9.24200545958792       -2.43931231346444        1.45890494083787
H            5.76417108190440       -4.65989134523241       -0.01908739033701
H            3.66893112599208       -3.33738075610442       -0.04046976783670
H            8.02163356505412       -1.05221908260629       -0.00120002010375
H            8.04675186460837        0.91293300253243       -0.00126499487730
H            7.74290653319652        4.99191620580073        1.44357190182478
H            9.86721763920675        6.23827194424737        1.42032280168605
H           11.43748414419341        3.49912662709871       -1.46949426551749
H            9.30491360058112        2.26858274765733       -1.45864181238562
H            5.88280171030498        4.57746140015852        0.01398917258466
H            3.75422150965126        3.30923725757721        0.02651875179172
H           -0.03728324070161        2.51462963520232        0.00049836917437
H           -3.26089604570887        0.40937232888245       -1.78897054533851
H           -5.47229904977193        1.46860673815160       -1.77931412137733
H           -6.52274366023096        0.73473761153639        0.82217050295878
H           -8.38232065848227       -0.81953350947415        0.43101957927873
H          -10.34223018836939       -0.10583577259652       -0.89403638039364
H          -10.43743725572245        2.19370696719946       -1.78959291098039
H           -8.58138020222381        3.75791760553406       -1.38757818473649
H           -8.40694358151627        4.21453791094320        1.32175811801860
H           -8.80094327108845        6.58745601147040        1.82305463236997
H           -7.19429700864708        8.30308253168005        1.06498812139908
H           -5.19231098042461        7.62151685055608       -0.21084898803485
H           -4.80637781319129        5.25163422046104       -0.73479111782888
H           -4.31571648858686        3.86134003796839        1.56542331801052
H           -2.10297842336976        2.79047479998931        1.56105649861134
H           -2.24814032825397       -2.48959917582895       -1.76223967393548
H           -4.48359799677446       -3.52487289190554       -1.75129962686028
H           -7.99918241456401       -5.03251633706228       -0.87018387996746
H           -9.26561649396254       -4.97052348280427       -2.97699055905040
H           -9.08025613965665       -3.02230761664185       -4.48228046748788
H           -7.60805599216948       -1.13674807098575       -3.86565518048315
H           -6.34746358100712       -1.19177851255631       -1.75524146921787
H           -8.96784108518505       -3.13262786476891        0.68513829701119
H           -9.93259355961768       -4.03534117036630        2.74866319885992
H           -8.47893364315442       -5.06035447647984        4.46293739646936
H           -6.04023361745257       -5.17454068101958        4.08229695181547
H           -5.06791117309055       -4.28253141824357        2.01211086355669
H           -5.40031407109271       -1.50579592821752        1.89930081716882
H           -3.19022384354866       -0.42902666079107        1.85589305862810
H           -0.10207901893241       -2.44679234304429       -0.04400353261650
H            7.61516113014243       -5.12226662306587       -1.44526843843903
H            9.70775943641165       -6.42118668840613       -1.42055609300749

          :  Hamiltonian                  GFN2-xTB          :
         :: gradient norm              0.000070320868 Eh/a0 ::
         :: HOMO-LUMO gap              1.262006405500 eV    ::
         :: SCC energy              -193.508939097153 Eh    ::
         :: -> dispersion             -0.180954185445 Eh    ::
         :: repulsion energy           3.658748459671 Eh    ::

    * Orbital Energies and Occupations

         #    Occupation            Energy/Eh            Energy/eV
      -------------------------------------------------------------
         1        2.0000           -0.6776283             -18.4392
       ...           ...                  ...                  ...
       165        2.0000           -0.4106020             -11.1730
       166        2.0000           -0.4102402             -11.1632
       167        2.0000           -0.4091398             -11.1333
       168        2.0000           -0.4082773             -11.1098
       169        2.0000           -0.4074603             -11.0876
       170        2.0000           -0.4069981             -11.0750
       171        2.0000           -0.4050154             -11.0210
       172        2.0000           -0.4034458             -10.9783
       173        2.0000           -0.3930518             -10.6955
       174        2.0000           -0.3911155             -10.6428
       175        2.0000           -0.3545505              -9.6478
       176        2.0000           -0.3530060              -9.6058
       177        2.0000           -0.3528138              -9.6006 (HOMO)
       178                         -0.3064359              -8.3385 (LUMO)
       179                         -0.2890055              -7.8642
       180                         -0.2785462              -7.5796
       181                         -0.2641165              -7.1870
       182                         -0.2628028              -7.1512
       183                         -0.2473066              -6.7296
       184                         -0.2472764              -6.7287
       185                         -0.2451490              -6.6708
       186                         -0.2407088              -6.5500
       187                         -0.2346466              -6.3851
       188                         -0.2337307              -6.3601
       ...                                ...                  ...
       348                          1.1699358              31.8356
      -------------------------------------------------------------
                  HL-Gap            0.0463779 Eh            1.2620 eV

     #   Z          covCN         q      C6AA      α(0)
     1   7 N        0.911    -0.233    26.109     7.390
     2   6 C        1.912     0.111    28.350     8.599
     3   6 C        2.974     0.018    27.598     8.617
     4   6 C        2.924    -0.020    28.514     8.757
     5   6 C        2.923    -0.031    28.768     8.796
     6   6 C        2.977     0.018    27.596     8.617
     7   6 C        2.976     0.010    27.784     8.646
     8   6 C        2.921    -0.033    28.818     8.803
     9   6 C        2.922    -0.027    28.686     8.783
    10   6 C        2.989    -0.001    28.039     8.686
    11   6 C        2.975     0.006    27.881     8.661
    12   6 C        2.928    -0.039    28.961     8.826
    13   6 C        2.975     0.006    27.880     8.661
    14   6 C        2.928    -0.039    28.962     8.826
    15   6 C        2.976     0.010    27.784     8.646
    16   6 C        2.977     0.018    27.596     8.617
    17   6 C        2.924    -0.030    28.756     8.794
    18   6 C        2.924    -0.020    28.509     8.756
    19   6 C        2.974     0.018    27.598     8.617
    20   6 C        1.912     0.111    28.350     8.599
    21   7 N        0.911    -0.233    26.109     7.390
    22   6 C        2.924    -0.020    28.514     8.757
    23   6 C        2.923    -0.031    28.768     8.796
    24   6 C        2.921    -0.033    28.819     8.803
    25   6 C        2.922    -0.027    28.686     8.783
    26   6 C        2.989    -0.001    28.039     8.686
    27   6 C        2.962     0.082    26.180     8.393
    28   7 N        1.849    -0.242    27.172     7.726
    29   6 C        2.966     0.080    26.203     8.396
    30   6 C        2.921    -0.048    29.204     8.862
    31   6 C        2.977     0.011    27.764     8.643
    32   6 C        2.978     0.004    27.938     8.670
    33   6 C        2.924    -0.031    28.772     8.796
    34   6 C        2.922    -0.047    29.173     8.857
    35   6 C        2.928     0.066    26.531     8.447
    36   7 N        2.753    -0.075    22.688     7.074
    37   6 C        2.927     0.065    26.552     8.450
    38   6 C        2.923    -0.046    29.145     8.853
    39   6 C        2.920    -0.028    28.689     8.783
    40   6 C        2.919    -0.037    28.909     8.817
    41   6 C        2.920    -0.029    28.720     8.788
    42   6 C        2.922    -0.047    29.159     8.855
    43   6 C        2.921     0.065    26.551     8.450
    44   6 C        2.922    -0.049    29.208     8.863
    45   6 C        2.920    -0.029    28.725     8.789
    46   6 C        2.919    -0.039    28.964     8.825
    47   6 C        2.920    -0.029    28.728     8.789
    48   6 C        2.923    -0.049    29.214     8.864
    49   6 C        2.920    -0.048    29.192     8.860
    50   6 C        2.923    -0.033    28.827     8.805
    51   6 C        2.977     0.011    27.765     8.643
    52   6 C        2.978     0.006    27.873     8.660
    53   6 C        2.923    -0.033    28.816     8.803
    54   6 C        2.921    -0.046    29.143     8.853
    55   6 C        2.928     0.066    26.525     8.446
    56   7 N        2.752    -0.076    22.723     7.080
    57   6 C        2.925     0.065    26.536     8.448
    58   6 C        2.922    -0.047    29.178     8.858
    59   6 C        2.920    -0.029    28.733     8.790
    60   6 C        2.919    -0.038    28.939     8.822
    61   6 C        2.920    -0.028    28.706     8.786
    62   6 C        2.923    -0.046    29.143     8.853
    63   6 C        2.921     0.065    26.549     8.450
    64   6 C        2.922    -0.050    29.232     8.866
    65   6 C        2.920    -0.029    28.734     8.790
    66   6 C        2.919    -0.039    28.978     8.828
    67   6 C        2.920    -0.029    28.724     8.789
    68   6 C        2.923    -0.050    29.234     8.867
    69   6 C        2.920    -0.045    29.123     8.850
    70   6 C        2.924    -0.031    28.765     8.795
    71   6 C        2.921    -0.048    29.189     8.860
    72   6 C        2.966     0.081    26.200     8.396
    73   7 N        1.849    -0.242    27.165     7.725
    74   6 C        2.963     0.081    26.185     8.393
    75   6 C        2.924    -0.030    28.756     8.794
    76   6 C        2.924    -0.020    28.509     8.756
    77   1 H        0.926     0.043     2.414     2.430
    78   1 H        0.926     0.040     2.454     2.450
    79   1 H        0.926     0.038     2.472     2.459
    80   1 H        0.926     0.062     2.171     2.304
    81   1 H        0.926     0.037     2.492     2.469
    82   1 H        0.926     0.037     2.492     2.469
    83   1 H        0.926     0.042     2.424     2.435
    84   1 H        0.926     0.043     2.408     2.427
    85   1 H        0.926     0.043     2.414     2.430
    86   1 H        0.926     0.040     2.454     2.450
    87   1 H        0.926     0.038     2.472     2.459
    88   1 H        0.926     0.062     2.171     2.304
    89   1 H        0.926     0.052     2.299     2.371
    90   1 H        0.926     0.032     2.555     2.499
    91   1 H        0.926     0.032     2.562     2.503
    92   1 H        0.926     0.029     2.598     2.521
    93   1 H        0.926     0.033     2.545     2.495
    94   1 H        0.926     0.030     2.588     2.516
    95   1 H        0.926     0.033     2.546     2.495
    96   1 H        0.926     0.033     2.539     2.492
    97   1 H        0.926     0.031     2.570     2.507
    98   1 H        0.926     0.032     2.564     2.504
    99   1 H        0.926     0.030     2.581     2.512
   100   1 H        0.926     0.032     2.564     2.504
   101   1 H        0.926     0.031     2.576     2.510
   102   1 H        0.926     0.036     2.503     2.474
   103   1 H        0.926     0.036     2.507     2.476
   104   1 H        0.926     0.035     2.518     2.482
   105   1 H        0.926     0.036     2.508     2.476
   106   1 H        0.926     0.034     2.537     2.491
   107   1 H        0.926     0.032     2.552     2.498
   108   1 H        0.926     0.031     2.573     2.508
   109   1 H        0.926     0.030     2.584     2.514
   110   1 H        0.926     0.029     2.605     2.524
   111   1 H        0.926     0.030     2.587     2.515
   112   1 H        0.926     0.031     2.573     2.508
   113   1 H        0.926     0.030     2.590     2.517
   114   1 H        0.926     0.031     2.574     2.509
   115   1 H        0.926     0.029     2.596     2.520
   116   1 H        0.926     0.034     2.525     2.485
   117   1 H        0.926     0.032     2.561     2.502
   118   1 H        0.926     0.051     2.306     2.375
   119   1 H        0.926     0.042     2.424     2.435
   120   1 H        0.926     0.043     2.408     2.427

molecular dipole:
                 x           y           z       tot (Debye)
 q only:       -3.051       0.051      -0.060
   full:       -3.791       0.060      -0.058       9.639

 projected vibrational frequencies (cm⁻¹)
eigval :       -0.00    -0.00     0.00     0.00     0.00     0.00
eigval :        4.92     8.51     9.31    12.78    16.19    20.82
eigval :       22.25    24.60    25.20    32.38    37.34    38.81
eigval :       46.57    47.54    49.82    52.02    56.06    59.79
eigval :       61.47    68.87    69.59    76.41    80.32    83.48
eigval :       91.08    97.18   102.94   107.26   108.52   115.29
eigval :      118.54   122.84   131.86   144.97   149.83   167.01
eigval :      175.07   188.46   193.03   203.32   211.50   216.28
eigval :      219.09   231.48   234.77   236.53   247.44   253.98
eigval :      282.88   296.44   304.33   305.04   311.82   323.34
eigval :      330.79   335.42   345.88   351.47   360.87   363.32
eigval :      366.21   366.69   378.07   378.71   379.67   382.33
eigval :      386.12   388.56   390.32   392.12   401.30   405.95
eigval :      413.46   420.92   438.88   439.49   443.62   451.94
eigval :      470.17   473.32   477.47   480.03   485.66   490.74
eigval :      492.23   507.58   512.91   531.51   533.91   534.41
eigval :      540.17   542.96   547.73   549.26   572.15   580.58
eigval :      581.88   584.48   585.06   589.40   592.21   594.46
eigval :      595.47   604.19   606.02   610.47   615.72   617.29
eigval :      624.53   626.38   634.65   647.77   658.69   658.94
eigval :      659.82   662.49   673.93   675.03   678.25   686.01
eigval :      693.60   694.51   703.72   709.47   715.70   716.72
eigval :      736.19   746.08   749.90   756.28   756.57   762.00
eigval :      762.34   769.51   770.43   809.78   811.83   814.76
eigval :      817.65   819.00   840.22   840.55   847.63   854.56
eigval :      863.05   867.73   869.72   871.89   872.10   873.71
eigval :      874.14   876.34   876.96   878.86   879.39   888.99
eigval :      890.85   891.19   892.40   894.46   901.79   910.27
eigval :      910.89   917.24   917.77   917.82   918.45   918.57
eigval :      925.63   925.74   926.20   927.21   927.31   927.95
eigval :      928.32   928.57   929.07   929.82   929.88   930.12
eigval :      930.26   933.28   947.81   959.77   983.11   989.96
eigval :     1001.32  1004.78  1005.51  1010.46  1012.69  1031.52
eigval :     1043.12  1063.16  1072.42  1081.87  1083.21  1083.89
eigval :     1084.41  1085.28  1098.40  1122.38  1122.69  1124.68
eigval :     1126.07  1135.88  1136.30  1137.06  1140.51  1155.08
eigval :     1155.32  1180.54  1180.80  1180.83  1181.30  1185.28
eigval :     1187.36  1188.51  1188.78  1193.86  1195.21  1195.33
eigval :     1196.09  1197.81  1210.49  1213.39  1214.80  1229.32
eigval :     1230.58  1234.06  1238.40  1252.17  1265.16  1266.14
eigval :     1266.97  1268.67  1271.95  1274.81  1277.00  1278.11
eigval :     1279.43  1280.32  1283.41  1283.92  1307.28  1309.83
eigval :     1312.82  1313.68  1314.12  1316.18  1320.88  1321.84
eigval :     1323.11  1324.90  1326.98  1327.65  1327.91  1328.44
eigval :     1332.11  1339.23  1359.36  1380.04  1388.17  1394.39
eigval :     1404.25  1407.63  1410.16  1425.32  1432.96  1435.10
eigval :     1436.31  1437.65  1443.71  1444.25  1449.45  1468.28
eigval :     1470.25  1472.18  1473.14  1477.27  1478.06  1488.24
eigval :     1489.58  1495.33  1495.96  1502.15  1526.42  1545.39
eigval :     1546.88  1553.09  1555.81  1557.92  1558.53  1577.09
eigval :     1577.70  1579.51  1581.17  1581.68  1585.91  1589.48
eigval :     1592.98  1595.19  1595.55  1596.15  1597.41  1599.58
eigval :     1602.33  1604.37  2373.82  2374.39  3075.22  3075.64
eigval :     3075.98  3076.35  3076.63  3076.69  3077.36  3077.54
eigval :     3077.60  3078.25  3080.30  3081.33  3081.43  3081.99
eigval :     3083.60  3083.66  3085.30  3086.12  3086.73  3086.78
eigval :     3086.85  3087.06  3088.18  3089.00  3089.43  3089.97
eigval :     3090.28  3090.51  3092.38  3092.83  3093.18  3093.26
eigval :     3093.47  3095.23  3095.26  3095.50  3095.89  3097.89
eigval :     3098.18  3098.52  3103.90  3106.76  3110.19  3110.25

   temp. (K)  partition function   enthalpy   heat capacity  entropy
                                   cal/mol     cal/K/mol   cal/K/mol   J/K/mol
 298.15  VIB  0.980E+31            36831.165    224.872    234.503
         ROT  0.499E+09              888.752      2.981     42.781
         INT  0.489E+40            37719.918    227.853    277.284
         TR   0.292E+29             1481.254      4.968     46.467
         TOT                       39201.1714   232.8209   323.7512  1354.5751

       T/K    H(0)-H(T)+PV         H(T)/Eh          T*S/Eh         G(T)/Eh
   ------------------------------------------------------------------------
    298.15    0.624710E-01    0.971644E+00    0.153825E+00    0.817819E+00
   ------------------------------------------------------------------------

         :::::::::::::::::::::::::::::::::::::::::::::::::::::
         ::                  THERMODYNAMIC                  ::
         :::::::::::::::::::::::::::::::::::::::::::::::::::::
         :: total free energy        -189.032371691263 Eh   ::
         ::.................................................::
         :: total energy             -189.850190637480 Eh   ::
         :: zero point energy           0.909172550892 Eh   ::
         :: G(RRHO) w/o ZPVE           -0.091353604675 Eh   ::
         :: G(RRHO) contrib.            0.817818946217 Eh   ::
         :::::::::::::::::::::::::::::::::::::::::::::::::::::

           -------------------------------------------------
          | TOTAL ENERGY             -189.850190637480 Eh   |
          | TOTAL ENTHALPY           -188.878547043469 Eh   |
          | TOTAL FREE ENERGY        -189.032371691263 Eh   |
          | GRADIENT NORM               0.000070301509 Eh/α |
          | HOMO-LUMO GAP               1.262006430904 eV   |
           -------------------------------------------------

 * finished run on 2025/09/03 at 21:52:00.816
