   * xtb version 6.7.1 (edcfbbe) compiled by 'albert@albert-system' on 2024-07-22

   ID    Z sym.   atoms
    1    7 N      1, 21, 28, 36, 56, 73
    2    6 C      2-20, 22-27, 29-35, 37-55, 57-72, 74-76
    3    1 H      77-120

          program call               : xtb data2507/gas/TNPZ/TNPZ_gas_T1_crest.xyz --gfn 2 --spinpol --tblite --uhf 2 --ohess vtight --parallel 40 --molden --ceasefiles --namespace data2507/gas/TNPZ/TNPZ_gas_T1_finalOpt
 * total energy  :  -189.8077451 Eh     change        0.1496485E-07 Eh
 * total energy  :  -189.8077675 Eh     change       -0.2245111E-04 Eh
 * total energy  :  -189.8077664 Eh     change        0.1130707E-05 Eh
 * total energy  :  -189.8077697 Eh     change       -0.3295404E-05 Eh
 * total energy  :  -189.8077736 Eh     change       -0.3940037E-05 Eh
 * total energy  :  -189.8077743 Eh     change       -0.6814632E-06 Eh
 * total energy  :  -189.8077756 Eh     change       -0.1233107E-05 Eh
 * total energy  :  -189.8077765 Eh     change       -0.9004487E-06 Eh
 * total energy  :  -189.8077775 Eh     change       -0.1003075E-05 Eh
 * total energy  :  -189.8077780 Eh     change       -0.5723541E-06 Eh
 * total energy  :  -189.8077785 Eh     change       -0.3656112E-08 Eh
 * total energy  :  -189.8077783 Eh     change        0.1543652E-06 Eh
 * total energy  :  -189.8077781 Eh     change        0.2755702E-06 Eh
 * total energy  :  -189.8077776 Eh     change        0.4220286E-06 Eh
 * total energy  :  -189.8077769 Eh     change        0.7694809E-06 Eh
 * total energy  :  -189.8077784 Eh     change       -0.1544115E-05 Eh
 * total energy  :  -189.8077787 Eh     change       -0.2774711E-06 Eh
 * total energy  :  -189.8077789 Eh     change       -0.2179858E-06 Eh
 * total energy  :  -189.8077790 Eh     change       -0.5431878E-07 Eh
   *** GEOMETRY OPTIMIZATION CONVERGED AFTER 21 ITERATIONS ***

 final structure:
================
120
 xtb: 6.7.1 (edcfbbe)
N           12.83019074068623       -6.54193726084273       -0.23517051676039
C           11.85925841397989       -5.93188826617237       -0.21015075585102
C           10.66321014022676       -5.18175451697039       -0.18031061603294
C           10.56644723773905       -4.04899308680185        0.62990878368029
C            9.39644133093431       -3.32062980645823        0.65327894928613
C            8.29836246748668       -3.70156966789893       -0.12064164857021
C            7.05397011795216       -2.92594477586872       -0.09114919469609
C            5.80919834381313       -3.57731894864156       -0.10352808588235
C            4.65248300084083       -2.84883331632640       -0.07647077192808
C            4.68069662139828       -1.44387267008667       -0.04608404193049
C            5.92357016525625       -0.76780650043445       -0.03442305458065
C            7.08755079594447       -1.54320523939426       -0.05440053086159
C            5.94272495708006        0.67736135461847       -0.00596459861480
C            7.12695356922708        1.42152413374718        0.01429015359487
C            7.13018565748984        2.80463888034524        0.05127617637565
C            8.39492235593314        3.54666630782691        0.08169775861043
C            8.53348776257032        4.67914241960071        0.88674664256844
C            9.71924351459514        5.38076767251313        0.92414086826987
C           10.79880124956560        4.96238213921324        0.14394684156179
C           12.01465180538442        5.67993471806842        0.17522286322800
N           13.00171752513019        6.26346070449863        0.20146012618571
C           10.67182478109107        3.83360842674358       -0.66765212825543
C            9.48258643162271        3.13710966875451       -0.69228110241125
C            5.90326905931045        3.48896265408901        0.06335050946245
C            4.72755757508138        2.79145522552639        0.03601943470757
C            4.71838079691331        1.38632462238165        0.00565994113302
C            3.46731500837232        0.70034599260344       -0.00965920691007
N            2.31896268799840        1.35964139587283       -0.00325651246655
C            1.13927279009137        0.74229627006922       -0.01360120471489
C           -0.07166050450835        1.42538333673155       -0.02560348397350
C           -1.28643451577737        0.75384923663173       -0.03695101610895
C           -2.55426540621890        1.49088388838213       -0.12238902103305
C           -3.51218720881994        1.11290018256100       -1.06427866933033
C           -4.74962737992206        1.71211866372677       -1.09121468430544
C           -5.07064042164764        2.71137812258124       -0.17113447470403
N           -6.36955459965264        3.23020860004732       -0.14588095895477
C           -7.43565834771453        2.33593338105498       -0.30959539905021
C           -7.37402837252550        1.06795483658556        0.26969852405170
C           -8.41033268417361        0.17264630459786        0.09754135600652
C           -9.52029802334109        0.52212184257868       -0.65408504895446
C           -9.58900867982718        1.78183231736687       -1.22653936647624
C           -8.55794154310642        2.68641817564428       -1.05849304017530
C           -6.59526603509644        4.59047072896279        0.06305997420670
C           -7.72894671641080        5.02649162966317        0.75022836903947
C           -7.94528112936799        6.37577856715101        0.94884483767563
C           -7.03775451239810        7.31052192006931        0.47744731302740
C           -5.90797645421118        6.88273822008893       -0.20085319615862
C           -5.68587814787469        5.53641888870238       -0.41239957077671
C           -4.09297173808995        3.14499396126777        0.72308516820777
C           -2.85041877966264        2.54332715661802        0.73963947600703
C           -1.30363694884989       -0.65234526894696       -0.00304953113489
C           -2.58918821167248       -1.36594869677642        0.08397117679332
C           -2.95565017082250       -2.31441138637635       -0.86658136892688
C           -4.20541448180458       -2.89848826575470       -0.83238730477033
C           -5.10974960641159       -2.56895277538770        0.17581933996759
N           -6.39662633616799       -3.12830656636830        0.17667682764825
C           -7.11815227614275       -3.14015070957145       -1.02187568114379
C           -7.95833115578128       -4.20618786847071       -1.34165886426082
C           -8.67563061512767       -4.19384705414858       -2.52204836582282
C           -8.56328161527593       -3.12906220471124       -3.40137877210581
C           -7.72022223732187       -2.07371242692895       -3.09338416533060
C           -7.00097428018712       -2.07445129935560       -1.91497357111855
C           -6.95234821097250       -3.60011267490653        1.36550584365874
C           -8.32770324695731       -3.53342039984829        1.59574403932033
C           -8.85974897925791       -4.00150202340004        2.78106270469272
C           -8.03774592365525       -4.53710971176187        3.75888960806931
C           -6.67170480067311       -4.60411013852718        3.53776342132872
C           -6.13005890391196       -4.14475712511796        2.35384405075944
C           -4.72356773756300       -1.66684689301515        1.16591678085238
C           -3.48362958892176       -1.06815429579892        1.11099888480612
C           -0.10885788614960       -1.35606779108096       -0.01424493341375
C            1.12064934036560       -0.70524456872222       -0.02607766087893
N            2.28275112582820       -1.35362412002567       -0.03709994093838
C            3.44861161445792       -0.72486713066926       -0.03021203436753
C            8.40666966166095       -4.83827640071408       -0.92439417366795
C            9.57304907027148       -5.57171445319258       -0.96048766778170
H           11.41022885593397       -3.75393890704858        1.23649940322684
H            9.31988673232906       -2.45716856267954        1.29761379003041
H            5.77110206129010       -4.65635042707140       -0.10817491265067
H            3.68830973707113       -3.33397412958676       -0.07713194209687
H            8.05184347504017       -1.06040423634254       -0.06971891311115
H            8.07804608892656        0.91322257747164        0.02969877245196
H            7.70706138954654        4.99625409123156        1.50533768999898
H            9.82317585448850        6.25208200137723        1.55415736487236
H           11.50758000497229        3.51655725119587       -1.27425332791861
H            9.38300111191158        2.27672118579073       -1.33758008733715
H            5.89394592489007        4.56862707549687        0.06808874460200
H            3.77664606267421        3.30210536081071        0.03657208094412
H           -0.04762231481724        2.50401946547244       -0.05461948358274
H           -3.27600660441725        0.34567064372870       -1.78580189911513
H           -5.48795210349572        1.40706000875386       -1.81848296743557
H           -6.50814373225294        0.79363631728292        0.85462872905202
H           -8.35332973631104       -0.79962093834443        0.56228901211159
H          -10.32579346482435       -0.18271951807236       -0.79291287240065
H          -10.44964829961219        2.06115530608941       -1.81623107227257
H           -8.60928616243984        3.66523511462516       -1.51258154385314
H           -8.43151947786290        4.30022068806726        1.13174184543588
H           -8.82572153237558        6.69940259537634        1.48420468293452
H           -7.20954495727124        8.36387760098853        0.63757629388959
H           -5.19743245917501        7.60413007154049       -0.57664514071409
H           -4.81127984251609        5.20663858800486       -0.95374689956059
H           -4.32500975509644        3.93395859505422        1.42350802215183
H           -2.11348568042449        2.86043052180417        1.46320979163944
H           -2.26399342963703       -2.56980793037028       -1.65646399241946
H           -4.49676793068031       -3.60967002104153       -1.59164723057293
H           -8.03949188128921       -5.04198518837002       -0.66215438857190
H           -9.32213302693395       -5.02570826153712       -2.75992714651121
H           -9.12752205647759       -3.12325401320794       -4.32144244358412
H           -7.62949072560153       -1.23772852850621       -3.77106907383304
H           -6.35269202438336       -1.24621129114556       -1.66939489393710
H           -8.97738365800282       -3.11227163139302        0.84230739422149
H           -9.92561248059002       -3.93976564357968        2.94463905798925
H           -8.45804763855315       -4.89997433724769        4.68425273715366
H           -6.02207126869753       -5.02577861068962        4.29051829437247
H           -5.06579746691187       -4.20989496727915        2.18154534146168
H           -5.41098302389279       -1.42809419266452        1.96458209707928
H           -3.20135286200586       -0.35148557779831        1.86815895546040
H           -0.11462863237752       -2.43514182531758        0.01173740857057
H            7.57224277999733       -5.13369067943500       -1.54298461218790
H            9.65361990303180       -6.44626269864566       -1.58944339903562

 projected vibrational frequencies (cm⁻¹)
eigval :       -0.00    -0.00     0.00     0.00     0.00     0.00
eigval :        3.94     7.70     8.63    12.86    16.01    20.68
eigval :       22.25    24.13    25.38    32.83    37.92    39.40
eigval :       46.83    47.39    50.19    52.31    56.29    59.58
eigval :       61.66    69.20    70.91    76.27    80.26    83.51
eigval :       93.32    96.53   104.51   107.68   108.69   116.35
eigval :      117.06   124.29   131.83   145.69   152.61   169.25
eigval :      173.67   188.48   193.23   203.85   208.10   215.98
eigval :      217.24   229.12   232.98   235.48   247.06   252.29
eigval :      282.70   293.46   303.06   304.92   310.29   318.42
eigval :      325.45   334.64   340.71   347.52   360.98   363.40
eigval :      366.51   367.03   377.53   378.35   379.43   381.77
eigval :      385.60   386.76   388.06   389.54   398.05   403.97
eigval :      413.25   418.25   430.68   434.17   444.53   447.20
eigval :      465.88   475.67   476.79   484.54   485.68   491.50
eigval :      493.91   509.47   514.58   525.63   532.96   534.32
eigval :      538.79   540.43   546.12   547.35   565.39   579.94
eigval :      581.15   583.95   584.39   589.08   591.52   594.08
eigval :      594.63   602.27   603.83   610.12   613.97   616.11
eigval :      616.31   623.07   623.53   629.70   649.71   658.10
eigval :      658.79   659.36   659.93   670.33   673.35   677.87
eigval :      679.36   691.37   693.80   698.33   701.11   711.40
eigval :      711.95   722.65   734.71   743.26   755.76   756.08
eigval :      760.75   761.44   770.28   807.57   808.01   811.56
eigval :      812.58   814.57   819.70   829.89   834.65   835.65
eigval :      844.18   858.77   866.08   868.64   869.97   870.81
eigval :      872.59   872.85   875.47   875.89   876.05   889.61
eigval :      890.95   891.23   892.43   895.05   900.67   910.10
eigval :      910.70   915.29   915.41   916.75   917.81   918.69
eigval :      919.86   919.88   925.40   925.79   926.97   927.13
eigval :      927.64   927.92   928.05   928.22   928.78   929.51
eigval :      929.93   930.96   933.46   953.83   983.30   989.02
eigval :      996.18  1004.32  1005.13  1010.38  1014.57  1030.23
eigval :     1035.43  1059.52  1078.48  1079.36  1083.29  1083.85
eigval :     1084.17  1084.97  1096.38  1122.48  1122.94  1124.97
eigval :     1126.32  1136.07  1136.55  1136.65  1139.49  1155.57
eigval :     1156.10  1179.68  1180.01  1180.16  1180.78  1183.80
eigval :     1184.73  1187.80  1188.39  1192.60  1193.94  1195.07
eigval :     1196.74  1199.02  1211.83  1212.79  1213.75  1222.54
eigval :     1234.44  1236.34  1238.49  1243.42  1247.37  1258.55
eigval :     1264.99  1267.79  1267.95  1269.40  1272.73  1277.89
eigval :     1278.65  1279.86  1282.03  1283.46  1287.47  1304.68
eigval :     1305.07  1310.06  1312.15  1314.53  1316.74  1317.36
eigval :     1320.02  1323.81  1324.39  1325.81  1327.52  1328.22
eigval :     1328.78  1338.08  1346.10  1357.70  1383.66  1393.33
eigval :     1393.40  1402.79  1405.08  1409.95  1411.78  1422.54
eigval :     1423.87  1435.13  1435.65  1442.78  1443.20  1460.01
eigval :     1464.02  1469.60  1471.09  1473.15  1474.31  1480.31
eigval :     1486.87  1487.54  1489.39  1494.24  1505.73  1516.87
eigval :     1533.04  1537.61  1547.63  1548.38  1555.06  1556.79
eigval :     1572.70  1574.93  1575.36  1575.96  1579.06  1579.38
eigval :     1591.62  1591.67  1592.07  1592.55  1592.88  1594.41
eigval :     1599.19  1600.07  2369.90  2370.78  3075.89  3076.12
eigval :     3077.08  3077.22  3077.58  3077.61  3078.14  3078.40
eigval :     3078.68  3078.71  3079.30  3080.47  3080.58  3082.04
eigval :     3082.10  3082.69  3084.92  3084.96  3086.06  3087.05
eigval :     3087.59  3087.98  3088.21  3089.28  3089.73  3090.40
eigval :     3090.54  3090.62  3090.84  3091.73  3091.81  3092.24
eigval :     3093.80  3093.89  3093.91  3094.83  3095.83  3098.10
eigval :     3098.39  3098.47  3098.95  3099.48  3103.27  3106.09

   temp. (K)  partition function   enthalpy   heat capacity  entropy
                                   cal/mol     cal/K/mol   cal/K/mol   J/K/mol
 298.15  VIB  0.152E+32            36976.672    226.041    235.578
         ROT  0.501E+09              888.752      2.981     42.790
         INT  0.762E+40            37865.424    229.022    278.369
         TR   0.292E+29             1481.254      4.968     46.467
         TOT                       39346.6783   233.9901   324.8356  1359.1122

       T/K    H(0)-H(T)+PV         H(T)/Eh          T*S/Eh         G(T)/Eh
   ------------------------------------------------------------------------
    298.15    0.627029E-01    0.969431E+00    0.154340E+00    0.815091E+00
   ------------------------------------------------------------------------

         :::::::::::::::::::::::::::::::::::::::::::::::::::::
         ::                  THERMODYNAMIC                  ::
         :::::::::::::::::::::::::::::::::::::::::::::::::::::
         :: total free energy        -188.992688272336 Eh   ::
         ::.................................................::
         :: total energy             -189.807779032983 Eh   ::
         :: zero point energy           0.906727719908 Eh   ::
         :: G(RRHO) w/o ZPVE           -0.091636959261 Eh   ::
         :: G(RRHO) contrib.            0.815090760648 Eh   ::
         :::::::::::::::::::::::::::::::::::::::::::::::::::::

           -------------------------------------------------
          | TOTAL ENERGY             -189.807779032983 Eh   |
          | TOTAL ENTHALPY           -188.838348389975 Eh   |
          | TOTAL FREE ENERGY        -188.992688272336 Eh   |
          | GRADIENT NORM               0.000103251073 Eh/α |
           -------------------------------------------------

 * finished run on 2025/09/03 at 22:21:43.076
